Title
42773
    1SAPS     N    1   2.920   5.615   7.151  0.3922  0.7300 -0.1644
    1SAPS   HN1    2   3.000   5.655   7.204 -0.0588 -1.6952  2.5782
    1SAPS   HN2    3   2.954   5.539   7.090 -1.7256 -0.2019 -0.2636
    1SAPS   HN3    4   2.878   5.684   7.086 -2.8023 -0.0310  0.9100
    1SAPS   C12    5   2.823   5.551   7.243  0.0531 -0.2625  0.4212
    1SAPS  H12A    6   2.884   5.482   7.301 -1.5684 -1.4284  0.8243
    1SAPS   C13    7   2.747   5.645   7.344  0.6108  0.2009 -0.3192
    1SAPS  O13A    8   2.750   5.768   7.334 -0.0783 -0.4033  0.0677
    1SAPS  O13B    9   2.673   5.587   7.429  0.2263 -0.0849  0.0392
    1SAPS   C11   10   2.717   5.464   7.169 -0.4694  0.0525  0.2541
    1SAPS  H11A   11   2.625   5.523   7.148 -1.4973 -1.0922  1.4137
    1SAPS  H11B   12   2.683   5.387   7.241 -1.5539 -3.1097 -3.3204
    1SAPS     P   13   2.680   5.306   6.973 -0.7754  0.6286  0.0809
    1SAPS   O13   14   2.758   5.243   6.863 -0.1273  0.3651  0.3412
    1SAPS   O14   15   2.602   5.217   7.065  0.2545 -0.2274  0.0491
    1SAPS   O12   16   2.778   5.409   7.051  1.1096  0.2235 -0.2475
    1SAPS   O11   17   2.579   5.398   6.902 -0.3565 -0.0904 -0.3349
    1SAPS    C1   18   2.624   5.521   6.842 -0.0418  0.4059 -0.5263
    1SAPS    HA   19   2.576   5.613   6.881 -1.8607 -0.9245  0.5483
    1SAPS    HB   20   2.732   5.533   6.866 -0.5150  1.7085  1.1240
    1SAPS    C2   21   2.609   5.532   6.690  0.4079  0.2925  0.7539
    1SAPS    HS   22   2.591   5.637   6.658 -1.6825 -0.3976 -0.4691
    1SAPS   O21   23   2.511   5.446   6.639 -0.0523 -0.5590 -0.4050
    1SAPS   C21   24   2.390   5.492   6.652  0.6229 -0.4853 -0.6798
    1SAPS   O22   25   2.350   5.577   6.734  0.4410  0.5230 -0.1357
    1SAPS   C22   26   2.301   5.419   6.545 -0.1341  0.1096  0.7354
    1SAPS   H2R   27   2.364   5.411   6.453  0.0062  0.5982  0.7897
    1SAPS   H2S   28   2.278   5.315   6.578 -3.8827 -0.4134 -2.6825
    1SAPS    C3   29   2.736   5.489   6.620 -0.1110 -0.3131  0.4856
    1SAPS    HX   30   2.759   5.383   6.644  0.4475 -0.2558  0.2367
    1SAPS    HY   31   2.814   5.558   6.659  0.6043 -0.8881  0.1111
    1SAPS   O31   32   2.723   5.517   6.476 -1.0506  0.6205 -0.3161
    1SAPS   C31   33   2.828   5.485   6.401  0.7880 -0.0374 -0.3089
    1SAPS   O32   34   2.930   5.432   6.445  0.3162 -0.5590  0.6469
    1SAPS   C32   35   2.811   5.547   6.258 -0.0781  0.9263 -0.8857
    1SAPS   H2X   36   2.821   5.657   6.270  1.5020  1.1392 -3.3689
    1SAPS   H2Y   37   2.708   5.531   6.219 -0.6249  2.4249 -0.1146
    1SAPS   C23   38   2.171   5.489   6.505  0.2092 -0.0381  0.1877
    1SAPS   H3R   39   2.118   5.523   6.597  1.7384  2.6719  0.1732
    1SAPS   H3S   40   2.105   5.433   6.436 -0.0213  1.1866 -0.6270
    1SAPS   C24   41   2.192   5.617   6.420  1.1759 -0.0770 -0.2161
    1SAPS   H4R   42   2.247   5.583   6.330  0.6891  1.6149 -1.2061
    1SAPS   H4S   43   2.249   5.685   6.487  1.8263 -2.5640  1.9386
    1SAPS   C25   44   2.070   5.702   6.376 -0.7241 -0.0819 -0.8964
    1SAPS   H5R   45   2.027   5.758   6.460  0.0243 -1.1623  0.2478
    1SAPS   C26   46   2.011   5.704   6.258 -0.0770  1.0297 -0.5921
    1SAPS   H6R   47   1.925   5.770   6.240 -0.2495  0.7731 -0.7171
    1SAPS   C27   48   2.053   5.617   6.136 -0.6281 -0.4411 -0.7440
    1SAPS   H7R   49   2.158   5.645   6.115 -0.9260  0.6728 -0.7939
    1SAPS   H7S   50   1.998   5.656   6.048 -1.4610  0.1308  0.0080
    1SAPS   C28   51   2.055   5.464   6.138  0.2870  0.5284  0.1050
    1SAPS   H8R   52   2.011   5.410   6.223  1.8140 -2.4452 -0.8420
    1SAPS   C29   53   2.094   5.390   6.032 -0.1459 -0.3042 -0.2931
    1SAPS   H9R   54   2.106   5.281   6.036  0.6219 -0.2602 -1.0876
    1SAPS  C210   55   2.151   5.440   5.902 -0.4047 -0.4062  0.3106
    1SAPS  H10R   56   2.256   5.409   5.887 -0.5952 -1.5481  1.1668
    1SAPS  H10S   57   2.158   5.550   5.890  0.8600 -0.6612 -1.7903
    1SAPS  C211   58   2.067   5.388   5.787 -0.2968  0.0878  0.5796
    1SAPS  H11R   59   1.962   5.371   5.815 -0.1165 -2.1895  0.0690
    1SAPS  C212   60   2.092   5.413   5.656  0.4155 -0.2390 -0.5909
    1SAPS  H12R   61   2.029   5.373   5.575 -1.2174  0.7737  0.1268
    1SAPS  C213   62   2.228   5.461   5.603 -0.0035 -0.0060 -0.5870
    1SAPS  H13R   63   2.286   5.375   5.564  0.5237 -0.7653  1.7466
    1SAPS  H13S   64   2.290   5.509   5.681  0.7741 -0.8404 -0.6731
    1SAPS  C214   65   2.210   5.576   5.498  0.5266 -0.2713  0.1634
    1SAPS  H14R   66   2.226   5.674   5.545  0.1348 -0.8312  1.5234
    1SAPS  C215   67   2.179   5.570   5.362  0.2423 -0.6288 -0.1380
    1SAPS  H15R   68   2.186   5.667   5.309 -2.1200  0.3033  1.1197
    1SAPS  C216   69   2.147   5.446   5.291 -0.2371  0.2333 -0.1387
    1SAPS  H16R   70   2.057   5.475   5.232  1.4356  2.6796 -1.6696
    1SAPS  H16S   71   2.110   5.373   5.367 -2.1540  2.2846  1.0355
    1SAPS  C217   72   2.271   5.385   5.212 -0.3516  0.1794  0.1358
    1SAPS  H17R   73   2.243   5.286   5.170 -1.3173  0.3386  0.3725
    1SAPS  H17S   74   2.361   5.352   5.267  0.5701  1.6682 -0.4386
    1SAPS  C218   75   2.303   5.480   5.097  0.4024  0.6837  0.1729
    1SAPS  H18R   76   2.393   5.543   5.119  2.2903 -0.6296 -3.0201
    1SAPS  H18S   77   2.217   5.546   5.076 -0.5619 -0.6317 -0.0921
    1SAPS  C219   78   2.328   5.399   4.966  0.3130  1.2061 -0.3383
    1SAPS  H19R   79   2.240   5.332   4.953 -0.8578  2.4387  0.9012
    1SAPS  H19S   80   2.415   5.331   4.974  0.2512  0.7816 -2.6503
    1SAPS  C220   81   2.346   5.488   4.839 -0.8480  0.0878 -0.5995
    1SAPS  H20R   82   2.262   5.560   4.833  0.0760  1.3625  0.9013
    1SAPS  H20S   83   2.352   5.427   4.747  0.2558 -0.6145 -0.0906
    1SAPS  H20T   84   2.442   5.545   4.843 -1.4724  1.1360  0.0324
    1SAPS   C33   85   2.922   5.508   6.170  0.1630 -0.2723  0.1963
    1SAPS   H3X   86   2.951   5.401   6.177  1.8334  0.1357 -0.1221
    1SAPS   H3Y   87   3.009   5.568   6.205  1.2775 -0.3872 -2.1418
    1SAPS   C34   88   2.893   5.549   6.024  0.1459 -0.6372 -0.0217
    1SAPS   H4X   89   2.864   5.656   6.031  0.4770 -0.6119  1.1752
    1SAPS   H4Y   90   2.803   5.502   5.978 -0.5478  2.5037 -2.2584
    1SAPS   C35   91   3.013   5.513   5.942 -0.5374  0.0516  0.1221
    1SAPS   H5X   92   3.051   5.409   5.948 -1.5715 -0.5033 -2.0302
    1SAPS   H5Y   93   3.090   5.587   5.972 -1.6742  1.1523  0.4248
    1SAPS   C36   94   3.003   5.533   5.787 -0.6097 -0.3796  0.0440
    1SAPS   H6X   95   2.943   5.448   5.750  1.6755 -1.8890 -0.4041
    1SAPS   H6Y   96   3.107   5.505   5.758 -0.9817 -1.3945 -0.3401
    1SAPS   C37   97   2.962   5.672   5.736 -0.2527 -0.6053  0.0379
    1SAPS   H7X   98   3.006   5.753   5.798 -0.3106  1.2067 -2.1727
    1SAPS   H7Y   99   2.852   5.682   5.748 -0.0445  1.0867  0.8558
    1SAPS   C38  100   3.003   5.700   5.590  0.0538 -0.3924 -0.4030
    1SAPS   H8X  101   3.111   5.711   5.571  0.2099  1.2501  1.1991
    1SAPS   H8Y  102   2.954   5.794   5.559  1.5259  0.1487 -1.1457
    1SAPS   C39  103   2.952   5.589   5.496 -0.4343  0.7019  0.7600
    1SAPS   H9X  104   2.842   5.576   5.504 -0.4291  0.9708  1.2860
    1SAPS   H9Y  105   2.989   5.490   5.532  0.5313  0.6105 -0.4062
    1SAPS  C310  106   2.998   5.605   5.350 -0.5275 -0.5050  0.2047
    1SAPS  H10X  107   2.982   5.499   5.321 -0.5928 -1.1248  2.3776
    1SAPS  H10Y  108   3.107   5.620   5.330 -0.7102 -1.3612 -1.7185
    1SAPS  C311  109   2.911   5.708   5.279 -0.8035  0.7311 -0.2620
    1SAPS  H11X  110   2.893   5.787   5.355 -0.2494  0.8089 -0.2076
    1SAPS  H11Y  111   2.813   5.660   5.258 -0.5069 -0.3327  0.6904
    1SAPS  C312  112   2.974   5.765   5.149  0.2556 -0.3431 -0.2626
    1SAPS  H12X  113   3.082   5.778   5.171  0.0626 -0.5226  0.8675
    1SAPS  H12Y  114   2.917   5.859   5.131  1.8825  0.5749 -0.8636
    1SAPS  C313  115   2.968   5.669   5.027  0.2210  0.4169  0.6912
    1SAPS  H13X  116   2.864   5.643   5.002 -0.0460  1.8335  0.2166
    1SAPS  H13Y  117   3.022   5.575   5.050  2.0504  0.9688 -1.0807
    1SAPS  C314  118   3.012   5.734   4.895 -0.2657 -0.2828 -0.0974
    1SAPS  H14X  119   3.118   5.764   4.911  0.9653 -1.9226 -3.9783
    1SAPS  H14Y  120   2.943   5.820   4.883 -1.3017 -0.8069  1.6795
    1SAPS  C315  121   3.003   5.647   4.772  0.2622  0.2707  0.2434
    1SAPS  H15X  122   2.897   5.617   4.763 -0.5132  3.1629 -2.1064
    1SAPS  H15Y  123   3.069   5.563   4.803  0.8242  1.5591  2.8485
    1SAPS  C316  124   3.062   5.705   4.643 -0.0338  0.5239  0.1216
    1SAPS  H16X  125   3.107   5.629   4.577  3.5382  1.4264  1.3019
    1SAPS  H16Y  126   3.151   5.765   4.670  0.8199  0.2562 -1.9654
    1SAPS  C317  127   2.978   5.803   4.574  0.1131  0.3368 -0.6625
    1SAPS  H17X  128   2.923   5.871   4.641 -0.8337  0.5031 -1.5708
    1SAPS  H17Y  129   2.902   5.748   4.513  1.0433 -1.9676  0.1490
    1SAPS  C318  130   3.055   5.888   4.472 -0.7065 -0.1074 -0.3513
    1SAPS  H18X  131   3.094   5.828   4.386 -0.4284  0.3281 -0.5344
    1SAPS  H18Y  132   3.130   5.951   4.526 -1.4030  0.4213  0.0142
    1SAPS  H18Z  133   2.990   5.968   4.431  1.2710  2.7977  1.7794
    2SAPS     N  134   2.709   6.238   6.799 -0.4473  0.1515 -0.1854
    2SAPS   HN1  135   2.752   6.148   6.831  1.1105  0.0077 -2.4466
    2SAPS   HN2  136   2.754   6.254   6.706 -1.0964 -0.7108 -0.6654
    2SAPS   HN3  137   2.748   6.316   6.856  1.6426  1.2017 -2.8107
    2SAPS   C12  138   2.562   6.247   6.803 -0.7159 -0.0261 -0.2305
    2SAPS  H12A  139   2.530   6.180   6.724 -1.8482  0.9100 -0.6056
    2SAPS   C13  140   2.490   6.238   6.940 -0.1328  0.3053 -0.1669
    2SAPS  O13A  141   2.550   6.228   7.053 -0.6977  0.4618  0.4913
    2SAPS  O13B  142   2.361   6.252   6.933 -0.1255 -0.2156 -0.1518
    2SAPS   C11  143   2.523   6.389   6.744  0.2925  0.1961 -0.1389
    2SAPS  H11A  144   2.559   6.461   6.819 -0.3321  1.5027 -1.0439
    2SAPS  H11B  145   2.412   6.395   6.745  0.0696 -2.5842  0.1490
    2SAPS     P  146   2.501   6.491   6.502 -0.2931  0.1818  0.4063
    2SAPS   O13  147   2.436   6.604   6.562 -0.0606  0.4892 -0.5250
    2SAPS   O14  148   2.587   6.508   6.378  0.1619  0.1093  0.0530
    2SAPS   O12  149   2.588   6.425   6.623  0.4143  0.4692 -0.2126
    2SAPS   O11  150   2.392   6.388   6.470  0.5207  0.3394 -0.4942
    2SAPS    C1  151   2.417   6.247   6.452  0.1670 -0.1386  0.1129
    2SAPS    HA  152   2.525   6.222   6.444  0.4132  0.8486  0.1605
    2SAPS    HB  153   2.385   6.203   6.549 -2.6384 -0.4390 -0.8781
    2SAPS    C2  154   2.343   6.167   6.342 -0.2466  0.3759  0.7309
    2SAPS    HS  155   2.397   6.073   6.318  0.5711  1.3245 -1.3501
    2SAPS   O21  156   2.327   6.252   6.230 -0.4208 -0.3197  0.8564
    2SAPS   C21  157   2.439   6.275   6.170 -0.3514  0.4170  0.1610
    2SAPS   O22  158   2.541   6.215   6.199 -0.4030  0.2262  0.6363
    2SAPS   C22  159   2.422   6.394   6.073 -0.0024  0.1974 -0.1300
    2SAPS   H2R  160   2.350   6.467   6.115 -1.5063 -1.7186  0.8483
    2SAPS   H2S  161   2.518   6.448   6.064  0.4694 -0.7805 -1.2230
    2SAPS    C3  162   2.201   6.112   6.383 -0.0477  0.0497  0.6475
    2SAPS    HX  163   2.154   6.203   6.427 -0.2407  0.9545 -1.2990
    2SAPS    HY  164   2.191   6.033   6.460 -3.5602 -1.9535 -1.5480
    2SAPS   O31  165   2.124   6.064   6.267  0.2459 -0.3927 -0.0801
    2SAPS   C31  166   2.007   6.120   6.242 -0.1191  0.4959  0.6123
    2SAPS   O32  167   1.954   6.214   6.302  0.0529  0.6477  0.1088
    2SAPS   C32  168   1.939   6.056   6.119  0.1313 -0.1993  0.4149
    2SAPS   H2X  169   1.852   6.122   6.098 -0.5515  0.0927  3.6352
    2SAPS   H2Y  170   1.901   5.955   6.146  1.5555 -1.3218 -1.5429
    2SAPS   C23  171   2.364   6.359   5.939 -0.1067  0.8347 -0.1663
    2SAPS   H3R  172   2.329   6.459   5.905 -0.3899 -0.0097 -2.5331
    2SAPS   H3S  173   2.277   6.289   5.944  1.0663 -0.5713  2.5989
    2SAPS   C24  174   2.474   6.294   5.848 -0.2914  0.1705 -0.0067
    2SAPS   H4R  175   2.514   6.202   5.895 -0.2984 -0.5297 -1.3330
    2SAPS   H4S  176   2.557   6.368   5.846 -1.1509  1.1597 -1.8435
    2SAPS   C25  177   2.417   6.253   5.713 -0.2975 -0.0441 -0.0809
    2SAPS   H5R  178   2.336   6.180   5.727 -0.2603 -0.1153 -0.2345
    2SAPS   C26  179   2.427   6.307   5.593 -0.1338 -0.0284 -0.3525
    2SAPS   H6R  180   2.387   6.252   5.507 -0.5898  0.3089 -0.3645
    2SAPS   C27  181   2.498   6.431   5.559  0.2089 -0.5220 -0.0963
    2SAPS   H7R  182   2.607   6.412   5.566  0.6149  1.8695  0.9257
    2SAPS   H7S  183   2.477   6.508   5.636  0.6572 -0.8423  0.3506
    2SAPS   C28  184   2.452   6.488   5.427  0.7915 -0.1370 -1.0690
    2SAPS   H8R  185   2.377   6.569   5.423  2.5422  1.6555  0.3736
    2SAPS   C29  186   2.488   6.445   5.306  0.3260  0.0023 -0.2358
    2SAPS   H9R  187   2.452   6.501   5.219  1.1590  0.5500 -0.2369
    2SAPS  C210  188   2.585   6.328   5.273  0.0104 -0.2291 -0.1309
    2SAPS  H10R  189   2.605   6.264   5.361  3.3259  1.8162  0.8160
    2SAPS  H10S  190   2.684   6.371   5.246 -0.3642  0.8593  0.1398
    2SAPS  C211  191   2.537   6.236   5.163  0.2971  0.3228 -0.5394
    2SAPS  H11R  192   2.521   6.130   5.190 -0.2148  0.1943 -1.3224
    2SAPS  C212  193   2.529   6.253   5.029  0.2387 -0.3141  0.8069
    2SAPS  H12R  194   2.478   6.177   4.968  0.0527 -0.8796  1.6477
    2SAPS  C213  195   2.563   6.376   4.944 -1.0524 -0.1168 -0.5722
    2SAPS  H13R  196   2.659   6.351   4.895 -1.1793 -1.4275 -0.2071
    2SAPS  H13S  197   2.588   6.460   5.012 -1.3433  0.0641 -0.6863
    2SAPS  C214  198   2.470   6.427   4.837 -0.2190  0.1755  0.0206
    2SAPS  H14R  199   2.495   6.403   4.733  0.5580 -2.6926  0.7904
    2SAPS  C215  200   2.350   6.488   4.854  0.6411 -0.9207 -0.2360
    2SAPS  H15R  201   2.289   6.528   4.772  0.4969 -1.1536 -0.2441
    2SAPS  C216  202   2.280   6.520   4.986  0.0391  0.1903 -0.2511
    2SAPS  H16R  203   2.338   6.460   5.059 -0.7353  0.2500  0.4324
    2SAPS  H16S  204   2.180   6.473   4.990  0.9609 -2.0118 -1.6932
    2SAPS  C217  205   2.282   6.669   5.020 -0.0676 -0.5006 -0.3059
    2SAPS  H17R  206   2.374   6.711   4.975 -0.8085  0.1334 -1.2657
    2SAPS  H17S  207   2.292   6.690   5.129  0.8343  1.1623 -0.6887
    2SAPS  C218  208   2.156   6.742   4.970 -0.1270  0.3069  0.0029
    2SAPS  H18R  209   2.064   6.680   4.982  0.4633 -0.5303  0.2895
    2SAPS  H18S  210   2.165   6.736   4.859  0.8538  0.0382  0.0898
    2SAPS  C219  211   2.144   6.884   5.012 -0.1333 -0.6088 -0.6474
    2SAPS  H19R  212   2.239   6.936   4.988  0.5229 -1.6915 -0.4188
    2SAPS  H19S  213   2.160   6.904   5.120 -1.3059  1.4041 -0.7804
    2SAPS  C220  214   2.024   6.967   4.960  0.1466  0.2822 -0.4583
    2SAPS  H20R  215   1.931   6.916   4.994 -0.1399  0.1244 -1.4475
    2SAPS  H20S  216   2.029   6.960   4.850  2.3292  1.2120 -0.4729
    2SAPS  H20T  217   2.026   7.076   4.985  2.2513  0.2759 -0.4097
    2SAPS   C33  218   2.030   6.029   5.992 -0.2524 -0.0855  0.9737
    2SAPS   H3X  219   2.102   5.949   6.020  0.5358  0.3490  0.2490
    2SAPS   H3Y  220   2.091   6.116   5.959 -1.9746  0.3814 -1.2738
    2SAPS   C34  221   1.952   5.973   5.872  0.7211  0.0952 -0.0352
    2SAPS   H4X  222   1.878   6.053   5.852  0.4864  0.6423  2.5577
    2SAPS   H4Y  223   1.898   5.881   5.901  0.9841 -0.1143 -0.2039
    2SAPS   C35  224   2.038   5.934   5.745  0.4184  0.0260  0.4220
    2SAPS   H5X  225   1.976   5.864   5.685 -0.9213  1.2019  0.3503
    2SAPS   H5Y  226   2.133   5.885   5.774  0.0502 -1.2749 -0.4825
    2SAPS   C36  227   2.063   6.050   5.654 -0.2927  0.0024 -0.4666
    2SAPS   H6X  228   2.119   6.120   5.720 -0.4087 -0.1882 -0.1670
    2SAPS   H6Y  229   1.966   6.093   5.621  0.1465 -0.2286 -2.1565
    2SAPS   C37  230   2.139   6.018   5.525  0.2895 -0.1380  0.1344
    2SAPS   H7X  231   2.200   5.932   5.560 -1.5432 -1.1616  0.9314
    2SAPS   H7Y  232   2.207   6.102   5.497  0.2549 -0.4677 -0.9510
    2SAPS   C38  233   2.055   5.979   5.400 -0.8553  0.3809  0.3107
    2SAPS   H8X  234   1.987   6.064   5.375  2.0948  2.6496 -0.6478
    2SAPS   H8Y  235   1.987   5.897   5.432  0.8823 -0.1034  3.0632
    2SAPS   C39  236   2.142   5.953   5.282 -0.1194  0.1589 -0.0577
    2SAPS   H9X  237   2.063   5.920   5.211  0.0460  2.5725 -1.4750
    2SAPS   H9Y  238   2.213   5.868   5.291 -0.8245 -0.3764  0.5505
    2SAPS  C310  239   2.215   6.077   5.238  0.3411 -0.5995  0.6120
    2SAPS  H10X  240   2.295   6.054   5.164 -1.4857 -0.0145 -1.6497
    2SAPS  H10Y  241   2.275   6.122   5.320  1.4493 -0.7072 -0.1189
    2SAPS  C311  242   2.130   6.188   5.168  0.1299  0.6166  0.2140
    2SAPS  H11X  243   2.192   6.278   5.150  1.4058 -0.2634  0.0646
    2SAPS  H11Y  244   2.050   6.213   5.241 -1.2485 -0.6235 -0.8147
    2SAPS  C312  245   2.079   6.137   5.027 -1.2203  0.7789 -0.3685
    2SAPS  H12X  246   2.002   6.212   4.997 -1.5810  0.4901 -0.1670
    2SAPS  H12Y  247   2.025   6.041   5.040 -0.8988  0.6634  0.1485
    2SAPS  C313  248   2.176   6.115   4.913 -0.2718 -0.3299 -0.6600
    2SAPS  H13X  249   2.257   6.041   4.935  0.3764  0.4194 -0.4897
    2SAPS  H13Y  250   2.222   6.214   4.893 -1.0239 -0.4923 -3.7829
    2SAPS  C314  251   2.104   6.074   4.781  0.2227 -0.0839  0.0778
    2SAPS  H14X  252   2.025   6.151   4.768 -1.7565 -1.0990  4.1664
    2SAPS  H14Y  253   2.048   5.980   4.802  0.7205 -0.2312  0.7993
    2SAPS  C315  254   2.190   6.050   4.655 -0.1935 -0.6261 -0.5045
    2SAPS  H15X  255   2.132   6.047   4.560 -0.6918  1.1463 -0.2795
    2SAPS  H15Y  256   2.240   5.952   4.671  0.3516 -0.0981  1.1832
    2SAPS  C316  257   2.300   6.160   4.639 -1.0944 -0.2378  0.6233
    2SAPS  H16X  258   2.377   6.153   4.718 -0.5543  0.0734  0.1358
    2SAPS  H16Y  259   2.249   6.259   4.642  1.9976  1.4643  1.6325
    2SAPS  C317  260   2.377   6.144   4.507  0.2230 -0.0357 -0.7226
    2SAPS  H17X  261   2.412   6.039   4.499  1.6607  0.3266  0.5410
    2SAPS  H17Y  262   2.480   6.184   4.514  0.5185 -0.7544 -0.8797
    2SAPS  C318  263   2.309   6.194   4.390  0.3574 -0.1733  0.5068
    2SAPS  H18X  264   2.279   6.299   4.412  1.3633  0.3920 -0.7128
    2SAPS  H18Y  265   2.223   6.130   4.363  0.1088  0.5977 -0.5957
    2SAPS  H18Z  266   2.375   6.204   4.302  1.4553 -0.0097  1.3306
    3SAPS     N  267   2.954   4.254   6.891  0.4375  0.1808  0.3191
    3SAPS   HN1  268   2.924   4.182   6.960  1.0445 -0.1080  0.2849
    3SAPS   HN2  269   3.007   4.334   6.931  3.6060 -0.3121 -2.4777
    3SAPS   HN3  270   2.866   4.289   6.847  0.5809 -0.3385 -0.4015
    3SAPS   C12  271   3.055   4.191   6.803  0.1373 -0.0349  0.3809
    3SAPS  H12A  272   3.101   4.272   6.748  0.0154  0.2704  0.7211
    3SAPS   C13  273   3.164   4.113   6.871  0.5915 -0.4275 -0.8581
    3SAPS  O13A  274   3.180   4.131   6.994 -0.1630 -0.2665  0.1314
    3SAPS  O13B  275   3.262   4.086   6.796 -0.1180  0.3549  0.2380
    3SAPS   C11  276   2.982   4.098   6.695 -0.0689 -0.3025 -0.2329
    3SAPS  H11A  277   2.926   4.021   6.751 -0.0235 -0.1676 -0.0001
    3SAPS  H11B  278   3.053   4.038   6.635 -1.2640 -3.1269  1.0295
    3SAPS     P  279   2.771   4.130   6.541  0.6523  0.2404 -0.1494
    3SAPS   O13  280   2.809   4.003   6.480  0.0377  0.8597  0.4300
    3SAPS   O14  281   2.662   4.144   6.634  0.3174  0.0862 -0.9915
    3SAPS   O12  282   2.901   4.180   6.614 -0.1469 -0.2680  0.1117
    3SAPS   O11  283   2.758   4.235   6.419  0.5918  0.2724 -0.3345
    3SAPS    C1  284   2.793   4.375   6.436 -0.5556  0.0894  0.1109
    3SAPS    HA  285   2.735   4.407   6.526 -0.2824 -0.0588  0.3406
    3SAPS    HB  286   2.899   4.379   6.468 -0.0122  0.4796 -1.6290
    3SAPS    C2  287   2.765   4.464   6.310 -0.0287 -0.4766  0.5468
    3SAPS    HS  288   2.841   4.545   6.310 -0.5745  0.0405  1.0612
    3SAPS   O21  289   2.631   4.519   6.301  0.2000 -0.1633  0.0229
    3SAPS   C21  290   2.604   4.629   6.367 -0.4798  0.4305 -0.1977
    3SAPS   O22  291   2.671   4.684   6.446 -0.3676  0.3032  0.0367
    3SAPS   C22  292   2.473   4.690   6.301 -0.2410  0.3788 -0.2213
    3SAPS   H2R  293   2.424   4.601   6.255  0.5229 -2.0290  3.1928
    3SAPS   H2S  294   2.407   4.734   6.378 -1.0852 -2.6462  0.9300
    3SAPS    C3  295   2.788   4.389   6.178 -0.0309  0.5573  0.2972
    3SAPS    HX  296   2.707   4.315   6.159 -1.5690  2.8748 -3.2586
    3SAPS    HY  297   2.878   4.328   6.198 -0.4092  0.6187  2.3336
    3SAPS   O31  298   2.796   4.474   6.058  0.1249 -0.2710 -0.6174
    3SAPS   C31  299   2.918   4.505   6.020 -0.6125 -0.1944  0.0405
    3SAPS   O32  300   3.022   4.496   6.083  0.4364  0.3797 -0.0266
    3SAPS   C32  301   2.913   4.551   5.876  0.0269  0.0260  0.3145
    3SAPS   H2X  302   2.856   4.646   5.886  1.9701  1.3313 -0.3019
    3SAPS   H2Y  303   2.852   4.473   5.826 -1.2363  1.0779  0.1684
    3SAPS   C23  304   2.511   4.785   6.193  0.1871  0.2098  0.5104
    3SAPS   H3R  305   2.574   4.866   6.236  1.3701 -0.3959 -0.0052
    3SAPS   H3S  306   2.416   4.827   6.154  0.0719  0.7544  1.3732
    3SAPS   C24  307   2.590   4.721   6.076  0.1135 -0.4416 -0.1154
    3SAPS   H4R  308   2.546   4.625   6.041 -1.0305 -1.2313  3.1211
    3SAPS   H4S  309   2.686   4.693   6.125  0.9298 -0.1423 -1.4802
    3SAPS   C25  310   2.611   4.828   5.968 -0.1230  0.8111 -0.6387
    3SAPS   H5R  311   2.637   4.921   6.021  0.9414 -1.2314  2.6865
    3SAPS   C26  312   2.605   4.828   5.833  0.0699  0.3150 -0.0418
    3SAPS   H6R  313   2.644   4.920   5.786 -0.3664 -1.1212 -3.4690
    3SAPS   C27  314   2.564   4.715   5.741 -0.6592  0.3066  0.4428
    3SAPS   H7R  315   2.461   4.732   5.702 -0.6481  0.7842  0.6188
    3SAPS   H7S  316   2.570   4.619   5.798  1.7516 -1.7986 -2.9793
    3SAPS   C28  317   2.652   4.691   5.620  0.7456 -0.7299 -0.0480
    3SAPS   H8R  318   2.761   4.692   5.632  1.1480  2.6066 -2.6231
    3SAPS   C29  319   2.608   4.666   5.494 -0.5465 -0.1494 -0.3054
    3SAPS   H9R  320   2.689   4.652   5.421  0.5065  0.3223  0.7312
    3SAPS  C210  321   2.466   4.669   5.433  0.0841 -0.5494  0.2653
    3SAPS  H10R  322   2.413   4.759   5.470  1.2687 -0.4277  1.7947
    3SAPS  H10S  323   2.413   4.583   5.480  2.4384 -0.8466  2.6416
    3SAPS  C211  324   2.470   4.666   5.279 -0.1411  0.6532  0.7179
    3SAPS  H11R  325   2.512   4.571   5.243 -0.3291  1.0694 -0.6544
    3SAPS  C212  326   2.425   4.753   5.185  1.0210 -0.2797 -0.1483
    3SAPS  H12R  327   2.442   4.726   5.080 -0.2576  1.3892 -0.8078
    3SAPS  C213  328   2.357   4.882   5.225 -0.1139  0.5807 -0.2307
    3SAPS  H13R  329   2.367   4.941   5.131  0.9663 -1.5897 -1.5546
    3SAPS  H13S  330   2.420   4.940   5.297 -1.8684  1.6460  0.5113
    3SAPS  C214  331   2.215   4.867   5.277 -0.3047 -0.3556  0.3046
    3SAPS  H14R  332   2.159   4.778   5.244 -0.7458  0.1337 -0.2810
    3SAPS  C215  333   2.160   4.951   5.363 -0.3774 -1.0789  0.0049
    3SAPS  H15R  334   2.059   4.929   5.401 -1.1308  1.4196 -0.3642
    3SAPS  C216  335   2.213   5.087   5.410 -0.0823  0.3135  1.0127
    3SAPS  H16R  336   2.130   5.160   5.420  1.2068  1.6258  2.8150
    3SAPS  H16S  337   2.298   5.120   5.347  1.6043 -1.2793  2.3221
    3SAPS  C217  338   2.274   5.080   5.546 -0.5047 -0.7174 -0.1473
    3SAPS  H17R  339   2.316   5.181   5.565 -1.6489  0.0548 -1.5367
    3SAPS  H17S  340   2.358   5.008   5.535  0.1020 -0.2161  1.0320
    3SAPS  C218  341   2.203   5.030   5.671  0.2902  0.4336  0.5870
    3SAPS  H18R  342   2.175   4.925   5.649 -0.4264  0.7030  0.1588
    3SAPS  H18S  343   2.112   5.091   5.686 -2.0226 -1.8125 -2.7716
    3SAPS  C219  344   2.293   5.033   5.797  0.0704 -0.1971 -0.0456
    3SAPS  H19R  345   2.379   4.975   5.757 -0.2116 -1.1187  0.6376
    3SAPS  H19S  346   2.331   5.136   5.811  2.6271 -0.9994 -0.5674
    3SAPS  C220  347   2.239   4.958   5.918  0.0779 -0.5186 -0.3863
    3SAPS  H20R  348   2.313   4.930   5.996 -0.5968 -0.5552  0.2434
    3SAPS  H20S  349   2.199   4.862   5.877  1.1436 -0.8630 -0.6634
    3SAPS  H20T  350   2.163   5.020   5.969  1.0238  1.7108 -1.5254
    3SAPS   C33  351   3.058   4.574   5.819  0.1991 -0.0624 -0.4685
    3SAPS   H3X  352   3.115   4.479   5.830  0.3434  0.2250  1.8109
    3SAPS   H3Y  353   3.105   4.663   5.867  1.2703 -0.6651 -0.3653
    3SAPS   C34  354   3.037   4.598   5.669 -0.0047 -0.0009  0.5729
    3SAPS   H4X  355   3.024   4.708   5.664  1.7631  0.2395  0.5546
    3SAPS   H4Y  356   2.951   4.539   5.629  2.2322 -1.7302 -2.0948
    3SAPS   C35  357   3.164   4.564   5.585 -0.1075  0.4664 -0.0312
    3SAPS   H5X  358   3.250   4.620   5.627  1.9209 -1.9087 -0.7425
    3SAPS   H5Y  359   3.178   4.454   5.598 -0.0791  0.4747  0.0043
    3SAPS   C36  360   3.150   4.571   5.432  0.0522 -0.1213 -0.0979
    3SAPS   H6X  361   3.115   4.469   5.406 -1.1590  0.2346  0.0487
    3SAPS   H6Y  362   3.244   4.568   5.374  0.9362  0.1767  1.2665
    3SAPS   C37  363   3.059   4.675   5.368  0.2997 -0.3908  0.2242
    3SAPS   H7X  364   3.115   4.770   5.374 -3.2417  1.8115  3.8783
    3SAPS   H7Y  365   2.968   4.696   5.429  0.0371 -0.4189 -0.1530
    3SAPS   C38  366   3.010   4.636   5.220 -0.1830  0.4339 -0.4541
    3SAPS   H8X  367   2.929   4.709   5.196 -0.1126  1.0208  0.9521
    3SAPS   H8Y  368   2.972   4.532   5.216  0.5711  0.0215  1.6256
    3SAPS   C39  369   3.128   4.643   5.121 -0.1373  0.2761  0.6662
    3SAPS   H9X  370   3.206   4.574   5.159 -1.4425 -0.3140  2.4501
    3SAPS   H9Y  371   3.157   4.749   5.135  0.8668 -0.0161  0.8408
    3SAPS  C310  372   3.091   4.591   4.981 -0.1185 -0.0284  1.1715
    3SAPS  H10X  373   2.981   4.579   4.968 -0.1367 -0.4119  1.6449
    3SAPS  H10Y  374   3.150   4.505   4.944  0.9469  1.9132 -2.0740
    3SAPS  C311  375   3.125   4.693   4.870 -0.2187  0.8289  0.3545
    3SAPS  H11X  376   3.229   4.730   4.882  0.4222 -1.4953  3.0738
    3SAPS  H11Y  377   3.061   4.780   4.894 -0.5265  0.6738  0.1094
    3SAPS  C312  378   3.087   4.655   4.723 -0.0207 -0.7241 -0.8948
    3SAPS  H12X  379   3.165   4.587   4.683  0.7900  1.1512 -2.7190
    3SAPS  H12Y  380   3.093   4.748   4.663  3.8669 -0.2487 -0.0026
    3SAPS  C313  381   2.945   4.591   4.704 -0.2798 -0.1443  0.6474
    3SAPS  H13X  382   2.865   4.647   4.758  0.6010 -0.5917  2.5293
    3SAPS  H13Y  383   2.954   4.493   4.755  0.4935 -0.9372 -0.9669
    3SAPS  C314  384   2.902   4.561   4.558  0.1385 -0.2090  0.8390
    3SAPS  H14X  385   2.968   4.479   4.522 -1.7047 -1.1994 -0.4786
    3SAPS  H14Y  386   2.914   4.654   4.497 -0.5051 -0.9246 -0.4279
    3SAPS  C315  387   2.755   4.511   4.557 -0.7448  0.0459 -0.2177
    3SAPS  H15X  388   2.681   4.593   4.570 -1.6250 -0.4534 -1.7778
    3SAPS  H15Y  389   2.735   4.439   4.639 -0.3958 -1.2820 -1.2756
    3SAPS  C316  390   2.724   4.436   4.423 -0.4126 -0.9757  0.2924
    3SAPS  H16X  391   2.805   4.364   4.400  1.2768 -0.1124  3.1007
    3SAPS  H16Y  392   2.733   4.522   4.352  0.7755 -0.7078  0.7449
    3SAPS  C317  393   2.584   4.371   4.418 -0.3292  0.1104 -0.1758
    3SAPS  H17X  394   2.574   4.331   4.315 -1.6981 -1.2492  0.4490
    3SAPS  H17Y  395   2.498   4.440   4.433  1.1923  1.7930  1.4036
    3SAPS  C318  396   2.575   4.251   4.508 -0.2015 -0.0435 -0.0588
    3SAPS  H18X  397   2.657   4.178   4.493  0.0831  0.5469 -1.4832
    3SAPS  H18Y  398   2.471   4.209   4.508 -0.6706  0.9247  2.7362
    3SAPS  H18Z  399   2.586   4.272   4.616 -0.9699 -1.4681  0.3371
    4SAPS     N  400   1.682   3.613   6.766 -0.3432 -0.4410 -0.4480
    4SAPS   HN1  401   1.617   3.601   6.686 -2.9273 -1.1083  1.5910
    4SAPS   HN2  402   1.625   3.589   6.850 -0.9443  0.5044 -0.5708
    4SAPS   HN3  403   1.700   3.715   6.772 -3.6069  0.1736  2.2485
    4SAPS   C12  404   1.797   3.512   6.756 -0.0037 -0.0526  0.6588
    4SAPS  H12A  405   1.847   3.536   6.663  2.0139  2.7808  2.3172
    4SAPS   C13  406   1.900   3.520   6.876  0.3234  0.1525  0.1060
    4SAPS  O13A  407   1.891   3.617   6.958 -0.2436 -0.0043  0.2639
    4SAPS  O13B  408   2.001   3.443   6.875 -0.2217  0.5505  0.2505
    4SAPS   C11  409   1.735   3.370   6.750 -0.3941  0.0323  0.6405
    4SAPS  H11A  410   1.705   3.339   6.853 -0.9397 -3.3796 -0.4124
    4SAPS  H11B  411   1.816   3.298   6.724 -2.3236 -1.7021 -0.9308
    4SAPS     P  412   1.549   3.227   6.650  0.2511 -0.0303 -0.2108
    4SAPS   O13  413   1.488   3.204   6.778  0.4978  0.3093 -0.3655
    4SAPS   O14  414   1.458   3.244   6.534 -0.0649  0.2437 -0.2240
    4SAPS   O12  415   1.633   3.353   6.656  0.5538  0.4798  0.0169
    4SAPS   O11  416   1.648   3.108   6.615  0.0229  0.3749 -0.3824
    4SAPS    C1  417   1.698   3.094   6.478  0.1909 -0.2443 -0.1321
    4SAPS    HA  418   1.704   3.190   6.423 -1.6359  0.3497  0.6543
    4SAPS    HB  419   1.798   3.045   6.478 -0.2497 -1.1840 -1.0661
    4SAPS    C2  420   1.606   3.011   6.382 -0.8091 -0.0701  0.5922
    4SAPS    HS  421   1.509   3.065   6.372 -0.9532 -0.6228 -1.6664
    4SAPS   O21  422   1.602   2.880   6.438  0.4714  0.7355 -0.0864
    4SAPS   C21  423   1.499   2.810   6.400 -0.2166 -0.2070 -0.2386
    4SAPS   O22  424   1.418   2.841   6.319  0.1496  0.5058 -0.6903
    4SAPS   C22  425   1.517   2.672   6.470  0.5001 -0.9274 -0.1606
    4SAPS   H2R  426   1.625   2.647   6.464  0.7279 -0.3550  1.1928
    4SAPS   H2S  427   1.477   2.685   6.573 -0.8444  1.2847 -0.8755
    4SAPS    C3  428   1.664   3.009   6.236 -0.1039 -0.3149  0.2151
    4SAPS    HX  429   1.614   2.938   6.167  1.8425  1.9098 -3.8520
    4SAPS    HY  430   1.768   2.972   6.232  0.9705  2.4928 -0.5765
    4SAPS   O31  431   1.662   3.142   6.178  0.1159  0.3764 -0.4906
    4SAPS   C31  432   1.740   3.164   6.076  0.5540 -0.6396  0.2622
    4SAPS   O32  433   1.800   3.081   6.009  0.1845 -0.2455  0.1109
    4SAPS   C32  434   1.737   3.311   6.047 -0.1343 -0.1117  0.2251
    4SAPS   H2X  435   1.739   3.372   6.140  0.7210 -1.2577  0.9981
    4SAPS   H2Y  436   1.638   3.317   5.998 -0.3939 -1.8895  0.4814
    4SAPS   C23  437   1.431   2.566   6.399 -0.8678 -0.5836  0.8394
    4SAPS   H3R  438   1.475   2.469   6.432 -1.3204 -0.8276  0.7321
    4SAPS   H3S  439   1.448   2.574   6.290  2.6719 -0.8289  1.2311
    4SAPS   C24  440   1.282   2.559   6.421 -0.2315 -0.2135 -0.3498
    4SAPS   H4R  441   1.234   2.641   6.363 -2.1143 -0.4134  0.8314
    4SAPS   H4S  442   1.269   2.586   6.528  0.3083 -0.2730 -0.2697
    4SAPS   C25  443   1.211   2.427   6.405  0.5624  0.3253 -0.0416
    4SAPS   H5R  444   1.228   2.356   6.487  0.8212  0.1114 -0.2765
    4SAPS   C26  445   1.152   2.383   6.288 -0.2293 -0.1089 -0.1551
    4SAPS   H6R  446   1.105   2.284   6.288  1.2134 -0.8728  2.0963
    4SAPS   C27  447   1.130   2.466   6.164 -0.0747 -0.2757  0.6868
    4SAPS   H7R  448   1.140   2.575   6.184 -0.9009 -0.2795  1.1429
    4SAPS   H7S  449   1.026   2.459   6.126  1.4610  1.4069 -4.8323
    4SAPS   C28  450   1.233   2.418   6.060  0.3121  0.3800  0.3993
    4SAPS   H8R  451   1.337   2.442   6.087 -0.3216  3.1891  0.5827
    4SAPS   C29  452   1.208   2.360   5.937 -0.1536 -0.1744 -0.2654
    4SAPS   H9R  453   1.296   2.336   5.876  1.3380 -0.2531  1.8002
    4SAPS  C210  454   1.079   2.337   5.864  0.3167  0.2979 -0.5527
    4SAPS  H10R  455   1.023   2.425   5.826  0.3320 -0.6416 -2.9574
    4SAPS  H10S  456   1.007   2.299   5.939 -0.3860  0.5611 -1.0767
    4SAPS  C211  457   1.071   2.250   5.740 -0.4484  0.1611  0.0418
    4SAPS  H11R  458   1.088   2.144   5.760 -0.7427 -0.2194 -1.5538
    4SAPS  C212  459   1.059   2.296   5.610  0.4125 -0.1036  0.0819
    4SAPS  H12R  460   1.051   2.213   5.539 -0.0461  1.3618 -1.6535
    4SAPS  C213  461   1.056   2.435   5.553 -0.4727  0.3864 -0.1826
    4SAPS  H13R  462   1.157   2.451   5.509 -0.9624  0.8063 -1.1955
    4SAPS  H13S  463   1.045   2.508   5.636 -0.2736  0.9651 -0.6539
    4SAPS  C214  464   0.952   2.445   5.449 -0.1711 -0.2246  0.6628
    4SAPS  H14R  465   0.850   2.453   5.490  0.2284  0.1498  1.6328
    4SAPS  C215  466   0.969   2.475   5.318 -0.1045 -0.4360  0.7369
    4SAPS  H15R  467   0.890   2.444   5.248 -0.0879 -0.8112  0.8806
    4SAPS  C216  468   1.100   2.494   5.237 -0.0017  0.7534 -0.0803
    4SAPS  H16R  469   1.163   2.406   5.261 -2.6872 -0.7790  1.8247
    4SAPS  H16S  470   1.155   2.583   5.276  1.1658 -0.6637  1.6759
    4SAPS  C217  471   1.090   2.484   5.082  0.0333  0.1116  0.5248
    4SAPS  H17R  472   1.189   2.507   5.038 -0.4645  3.1249  0.8055
    4SAPS  H17S  473   1.017   2.564   5.059 -0.0875 -0.3753 -0.8674
    4SAPS  C218  474   1.037   2.351   5.028 -0.0043 -0.1448 -1.0286
    4SAPS  H18R  475   0.940   2.313   5.067 -0.5507 -0.1929 -2.3948
    4SAPS  H18S  476   1.107   2.280   5.077 -2.4277 -0.1286  2.9508
    4SAPS  C219  477   1.060   2.339   4.880 -0.5627  1.0804 -0.3863
    4SAPS  H19R  478   1.166   2.345   4.847 -0.8848  1.6293 -1.3732
    4SAPS  H19S  479   1.013   2.426   4.829 -2.9480  0.5930  0.7931
    4SAPS  C220  480   1.004   2.212   4.806 -0.4545 -1.0749 -0.0986
    4SAPS  H20R  481   0.893   2.208   4.811 -0.4787  0.2238  1.6051
    4SAPS  H20S  482   1.042   2.121   4.857 -2.0688 -1.7886 -0.1024
    4SAPS  H20T  483   1.030   2.213   4.698  1.1187 -2.2848  0.2293
    4SAPS   C33  484   1.846   3.354   5.953 -0.0779  0.2019 -0.0712
    4SAPS   H3X  485   1.844   3.289   5.863  2.2616 -0.1943  0.0940
    4SAPS   H3Y  486   1.947   3.344   5.997 -0.1327  0.7859  0.1970
    4SAPS   C34  487   1.832   3.503   5.899 -0.4053  0.0643 -0.0466
    4SAPS   H4X  488   1.936   3.511   5.862  0.7228 -4.0264  1.7413
    4SAPS   H4Y  489   1.826   3.574   5.984 -0.3176 -1.2839  1.1117
    4SAPS   C35  490   1.726   3.529   5.789  0.4738 -0.0971  0.0332
    4SAPS   H5X  491   1.636   3.561   5.845  0.3136 -1.3489  0.5123
    4SAPS   H5Y  492   1.693   3.435   5.742 -0.8336  0.3753 -0.0322
    4SAPS   C36  493   1.776   3.623   5.672  0.1619 -0.0516 -0.9436
    4SAPS   H6X  494   1.876   3.590   5.638  0.0841 -0.7613 -0.5115
    4SAPS   H6Y  495   1.808   3.723   5.708  0.0909  0.6191 -2.6606
    4SAPS   C37  496   1.670   3.641   5.571  1.1034  0.1496 -0.7836
    4SAPS   H7X  497   1.584   3.697   5.613  1.1044  0.2787 -0.9504
    4SAPS   H7Y  498   1.620   3.543   5.552 -0.4714  1.0986 -1.8606
    4SAPS   C38  499   1.732   3.687   5.440 -0.1869 -0.1181  0.2129
    4SAPS   H8X  500   1.799   3.622   5.381 -0.1973  1.2599 -1.4040
    4SAPS   H8Y  501   1.799   3.774   5.460 -2.6706  1.6834  1.2684
    4SAPS   C39  502   1.626   3.718   5.339  0.7177  0.3223 -0.3408
    4SAPS   H9X  503   1.541   3.770   5.389 -1.1023 -3.3268  0.7180
    4SAPS   H9Y  504   1.582   3.620   5.312 -0.9424  0.8712  0.2241
    4SAPS  C310  505   1.671   3.801   5.224  0.3833  0.2139 -0.4743
    4SAPS  H10X  506   1.721   3.898   5.246 -1.2942  1.3197 -1.3324
    4SAPS  H10Y  507   1.582   3.840   5.171  1.3602  1.1918 -1.4488
    4SAPS  C311  508   1.754   3.727   5.122  0.1172 -0.1682 -0.1252
    4SAPS  H11X  509   1.835   3.678   5.182 -0.8312 -0.5561  0.8723
    4SAPS  H11Y  510   1.799   3.807   5.060  0.2750  1.0108  1.4328
    4SAPS  C312  511   1.684   3.623   5.035  0.8964  0.0395 -0.1236
    4SAPS  H12X  512   1.665   3.534   5.099 -0.8857  0.1542 -0.4469
    4SAPS  H12Y  513   1.744   3.590   4.948 -1.0824 -2.5717 -0.6093
    4SAPS  C313  514   1.551   3.669   4.967 -0.1027  0.5030 -0.0066
    4SAPS  H13X  515   1.478   3.706   5.042  1.9068  2.0492  1.2843
    4SAPS  H13Y  516   1.512   3.583   4.909  2.6543  1.5217 -3.8185
    4SAPS  C314  517   1.568   3.798   4.875  1.0795  0.2785 -0.4367
    4SAPS  H14X  518   1.616   3.879   4.934  0.2588 -1.0400  2.2102
    4SAPS  H14Y  519   1.468   3.812   4.829  0.4473 -2.1842  0.0645
    4SAPS  C315  520   1.671   3.775   4.761 -0.0605 -0.0441 -0.2644
    4SAPS  H15X  521   1.621   3.704   4.691 -0.5167 -0.7873  0.7975
    4SAPS  H15Y  522   1.765   3.730   4.798  1.2107  2.4431 -0.3247
    4SAPS  C316  523   1.697   3.907   4.684 -0.4650 -0.0821  0.0204
    4SAPS  H16X  524   1.601   3.928   4.631 -0.3054  0.1696 -0.1680
    4SAPS  H16Y  525   1.782   3.892   4.614 -0.2674  1.9776 -0.2440
    4SAPS  C317  526   1.726   4.037   4.766  0.1558  0.6977 -0.1003
    4SAPS  H17X  527   1.800   4.012   4.845  0.6541 -1.7944 -1.2498
    4SAPS  H17Y  528   1.637   4.084   4.812  0.1203  2.2635 -1.6416
    4SAPS  C318  529   1.781   4.144   4.666  0.3209  0.2453 -0.4529
    4SAPS  H18X  530   1.826   4.230   4.721  0.3222  0.9202 -1.4720
    4SAPS  H18Y  531   1.712   4.165   4.582  0.6696 -2.1069 -1.4137
    4SAPS  H18Z  532   1.873   4.103   4.619  1.0539 -2.5276  2.9837
    5SAPS     N  533   3.445   4.249   6.901 -0.3770 -0.2726 -0.0007
    5SAPS   HN1  534   3.496   4.273   6.814  3.1034  1.9314  2.3992
    5SAPS   HN2  535   3.371   4.176   6.895  0.0069 -0.8461  1.7639
    5SAPS   HN3  536   3.395   4.335   6.929 -1.8615 -1.5381  1.4995
    5SAPS   C12  537   3.532   4.205   7.011 -0.1442 -0.5192 -0.2008
    5SAPS  H12A  538   3.495   4.243   7.104 -0.2648 -2.9636  0.8240
    5SAPS   C13  539   3.564   4.053   7.033  0.4993 -0.5525 -0.7065
    5SAPS  O13A  540   3.546   3.968   6.943  0.1017  0.0508 -0.0881
    5SAPS  O13B  541   3.628   4.028   7.140  0.2211  0.6691  0.3758
    5SAPS   C11  542   3.664   4.289   7.007  0.2431 -0.7565  0.1488
    5SAPS  H11A  543   3.712   4.256   6.912 -0.3137 -0.0705 -0.3778
    5SAPS  H11B  544   3.734   4.264   7.090  0.9787 -0.2458 -0.3075
    5SAPS     P  545   3.765   4.528   6.971  0.2490 -0.2818  0.1752
    5SAPS   O13  546   3.748   4.656   7.042 -0.0365 -0.6987  0.1666
    5SAPS   O14  547   3.892   4.450   6.989  0.2422 -0.7287  0.0314
    5SAPS   O12  548   3.649   4.433   7.018  0.9058 -0.2598 -0.3058
    5SAPS   O11  549   3.746   4.535   6.809 -0.3862 -0.4135 -0.2444
    5SAPS    C1  550   3.621   4.600   6.770 -0.1398  0.2461  0.0153
    5SAPS    HA  551   3.532   4.559   6.823 -0.1226  0.7584  0.4489
    5SAPS    HB  552   3.621   4.707   6.799  0.3834 -0.3367  2.3961
    5SAPS    C2  553   3.587   4.584   6.617  0.3497  0.1669 -0.5770
    5SAPS    HS  554   3.484   4.544   6.632  0.1404  1.4124  1.6936
    5SAPS   O21  555   3.675   4.490   6.554 -0.3361  0.5673 -0.1433
    5SAPS   C21  556   3.655   4.359   6.595 -0.2253 -0.2684 -0.6368
    5SAPS   O22  557   3.566   4.317   6.666  0.2599 -0.1572  0.0523
    5SAPS   C22  558   3.758   4.275   6.516 -0.1401  0.0522  0.6261
    5SAPS   H2R  559   3.763   4.307   6.410  0.3954  0.2714  0.7178
    5SAPS   H2S  560   3.856   4.298   6.563 -0.4269  1.1061  0.7349
    5SAPS    C3  561   3.583   4.718   6.541  0.2713 -0.2712 -0.1566
    5SAPS    HX  562   3.689   4.744   6.519  0.1883 -0.8860 -1.3956
    5SAPS    HY  563   3.533   4.794   6.603 -2.0615  0.1036 -2.3226
    5SAPS   O31  564   3.500   4.721   6.423 -0.1707  0.1043  0.1022
    5SAPS   C31  565   3.493   4.839   6.364  0.7009  0.2044  0.4689
    5SAPS   O32  566   3.532   4.946   6.414  0.1452  0.7372 -0.8235
    5SAPS   C32  567   3.452   4.811   6.222 -0.4595  0.1310  0.7588
    5SAPS   H2X  568   3.376   4.731   6.219  0.8536 -1.1254 -0.1878
    5SAPS   H2Y  569   3.543   4.776   6.169 -1.0878 -2.4218  1.2793
    5SAPS   C23  570   3.719   4.129   6.538  0.5987  0.1348  0.3993
    5SAPS   H3R  571   3.624   4.095   6.491  0.7590  0.3815 -0.1138
    5SAPS   H3S  572   3.710   4.110   6.647  0.6178  1.7265  0.7074
    5SAPS   C24  573   3.819   4.032   6.461 -1.0632  0.0842  0.3563
    5SAPS   H4R  574   3.785   3.929   6.484  0.5242  0.0519  3.0066
    5SAPS   H4S  575   3.921   4.043   6.505 -1.1194 -0.0257  0.5156
    5SAPS   C25  576   3.827   4.058   6.311 -0.2185  0.5105  0.1471
    5SAPS   H5R  577   3.877   4.151   6.283 -1.1165  1.1873  0.7561
    5SAPS   C26  578   3.774   3.983   6.210  0.1173 -0.0432  0.1617
    5SAPS   H6R  579   3.778   4.014   6.104  0.7812 -1.2290 -0.1864
    5SAPS   C27  580   3.688   3.859   6.223  0.0796 -0.4146 -0.7390
    5SAPS   H7R  581   3.707   3.806   6.318  2.1570  0.4895 -0.5897
    5SAPS   H7S  582   3.720   3.788   6.143  2.0792  0.6533 -0.9632
    5SAPS   C28  583   3.533   3.897   6.218 -0.7709  0.2174 -0.7831
    5SAPS   H8R  584   3.500   3.949   6.309  0.2349  0.9551 -0.8200
    5SAPS   C29  585   3.443   3.885   6.117 -0.2212  0.2003 -0.1957
    5SAPS   H9R  586   3.338   3.906   6.140  0.0193  1.4642 -0.1623
    5SAPS  C210  587   3.480   3.808   5.987 -0.2239 -0.0048 -0.5111
    5SAPS  H10R  588   3.488   3.701   6.014 -0.3687  0.2825  0.7091
    5SAPS  H10S  589   3.574   3.854   5.950  0.0636 -0.4566 -0.3480
    5SAPS  C211  590   3.368   3.826   5.892  0.9770 -0.5667 -0.2064
    5SAPS  H11R  591   3.270   3.852   5.935  0.9411 -0.5126 -0.3201
    5SAPS  C212  592   3.385   3.836   5.757  0.1066  0.0148 -0.3085
    5SAPS  H12R  593   3.302   3.860   5.689  1.2600  0.5408 -1.5789
    5SAPS  C213  594   3.523   3.831   5.701 -0.2687  0.4676  0.0873
    5SAPS  H13R  595   3.598   3.770   5.757  0.3338  0.7084 -0.4422
    5SAPS  H13S  596   3.560   3.935   5.689  1.9966 -0.2494  0.2418
    5SAPS  C214  597   3.509   3.774   5.554  0.4250  0.4086  0.2321
    5SAPS  H14R  598   3.536   3.667   5.556  3.0013  0.9971  0.5810
    5SAPS  C215  599   3.502   3.842   5.443  0.4388 -1.0738  0.0043
    5SAPS  H15R  600   3.505   3.788   5.347  0.8566 -2.4892  0.7864
    5SAPS  C216  601   3.469   3.990   5.432  0.6369 -0.3978  0.4607
    5SAPS  H16R  602   3.554   4.030   5.373 -0.4999  2.2265  0.4796
    5SAPS  H16S  603   3.466   4.044   5.529 -1.6183 -0.8482  0.7082
    5SAPS  C217  604   3.340   4.020   5.350 -0.0731 -0.0459  0.7211
    5SAPS  H17R  605   3.350   3.967   5.253  0.5680 -0.5402  1.0498
    5SAPS  H17S  606   3.350   4.128   5.326  1.4129 -0.6257 -1.7356
    5SAPS  C218  607   3.207   3.998   5.423 -0.5603 -0.2760  0.2707
    5SAPS  H18R  608   3.135   4.051   5.358 -0.1567 -0.3653 -0.2641
    5SAPS  H18S  609   3.209   4.039   5.526  0.1465 -3.4142  1.6203
    5SAPS  C219  610   3.154   3.854   5.431 -0.7319  0.2912 -0.1590
    5SAPS  H19R  611   3.230   3.780   5.464  0.9326  1.9866  0.0017
    5SAPS  H19S  612   3.122   3.826   5.329 -0.0007  0.5552 -0.4710
    5SAPS  C220  613   3.023   3.847   5.506 -0.6337  0.9000  0.4244
    5SAPS  H20R  614   2.962   3.936   5.479 -0.5133 -0.0260 -3.7056
    5SAPS  H20S  615   3.046   3.873   5.611 -0.0180 -0.2259  0.5817
    5SAPS  H20T  616   2.960   3.757   5.489 -1.1595  0.8597  2.4184
    5SAPS   C33  617   3.392   4.945   6.160 -0.5217 -1.1373  0.3079
    5SAPS   H3X  618   3.472   5.022   6.152 -1.0944 -0.5667 -0.0293
    5SAPS   H3Y  619   3.320   4.992   6.230 -1.2483 -1.0161 -0.5001
    5SAPS   C34  620   3.342   4.924   6.022  0.6132 -0.2076  0.6508
    5SAPS   H4X  621   3.289   5.019   5.998  0.7486 -0.6734 -1.7373
    5SAPS   H4Y  622   3.268   4.842   6.016  1.0128 -0.5153 -0.2735
    5SAPS   C35  623   3.442   4.908   5.905 -0.1534  0.1474  0.0129
    5SAPS   H5X  624   3.481   4.806   5.925 -1.2433 -0.2470  0.1954
    5SAPS   H5Y  625   3.526   4.980   5.918  0.6789 -0.8355  0.2035
    5SAPS   C36  626   3.370   4.896   5.769 -0.4808 -0.1496  0.5247
    5SAPS   H6X  627   3.335   4.996   5.737 -0.9330 -0.9734 -1.7680
    5SAPS   H6Y  628   3.281   4.829   5.770 -1.0788  0.6178 -0.0336
    5SAPS   C37  629   3.467   4.869   5.654  0.9246 -0.2126  0.1602
    5SAPS   H7X  630   3.502   4.765   5.669  0.6738 -0.5026 -1.1796
    5SAPS   H7Y  631   3.556   4.935   5.648  0.5873  0.3652  1.2198
    5SAPS   C38  632   3.394   4.877   5.520  0.1053 -0.0237  0.4658
    5SAPS   H8X  633   3.349   4.976   5.500 -4.7197 -1.0454  4.3887
    5SAPS   H8Y  634   3.308   4.806   5.521  0.0296  0.0754  0.8450
    5SAPS   C39  635   3.481   4.827   5.403 -0.3389 -0.2825  0.3981
    5SAPS   H9X  636   3.523   4.726   5.425  0.2283 -0.1244  0.0835
    5SAPS   H9Y  637   3.571   4.892   5.409 -0.0463 -0.5516 -0.7639
    5SAPS  C310  638   3.426   4.818   5.258 -0.4817 -0.2106 -0.1531
    5SAPS  H10X  639   3.364   4.908   5.237  0.6925  0.6603  0.0186
    5SAPS  H10Y  640   3.352   4.737   5.243 -1.5872  1.1649 -2.8128
    5SAPS  C311  641   3.534   4.808   5.156 -0.1740 -0.4103 -0.3591
    5SAPS  H11X  642   3.602   4.722   5.178  1.3882  0.6364 -0.8824
    5SAPS  H11Y  643   3.603   4.896   5.164  1.6436 -1.7553 -0.4897
    5SAPS  C312  644   3.482   4.784   5.018  0.4391 -0.4858  1.0079
    5SAPS  H12X  645   3.413   4.861   4.977  1.1809 -0.5868 -0.5152
    5SAPS  H12Y  646   3.424   4.690   5.023 -1.6582  0.8185  2.4335
    5SAPS  C313  647   3.594   4.774   4.911  0.9455 -0.5513 -0.9542
    5SAPS  H13X  648   3.642   4.676   4.929  0.8319 -0.2661  1.1803
    5SAPS  H13Y  649   3.683   4.842   4.920 -0.5129  1.2002  1.5825
    5SAPS  C314  650   3.552   4.784   4.769 -0.4045 -0.1497  0.4658
    5SAPS  H14X  651   3.543   4.893   4.754 -0.3583 -0.4959 -2.6697
    5SAPS  H14Y  652   3.454   4.736   4.747 -1.2198  1.2077  1.0431
    5SAPS  C315  653   3.667   4.731   4.679 -0.0197  0.4714 -0.0353
    5SAPS  H15X  654   3.765   4.747   4.728  0.7690  1.2913 -1.7766
    5SAPS  H15Y  655   3.663   4.775   4.577  1.3650  0.9172  0.0844
    5SAPS  C316  656   3.654   4.573   4.661  0.5312  0.7564  0.1607
    5SAPS  H16X  657   3.557   4.550   4.613  1.1656 -1.6334 -0.0867
    5SAPS  H16Y  658   3.653   4.538   4.767  1.9061  0.2379  0.0255
    5SAPS  C317  659   3.757   4.501   4.569  0.4588 -0.5301 -0.5983
    5SAPS  H17X  660   3.854   4.504   4.624 -0.1243 -2.2316  0.6190
    5SAPS  H17Y  661   3.758   4.549   4.469 -0.7684  0.5006 -0.1432
    5SAPS  C318  662   3.720   4.356   4.556  0.4292  0.4129  0.3211
    5SAPS  H18X  663   3.704   4.292   4.646  1.2524 -2.3570 -1.3729
    5SAPS  H18Y  664   3.796   4.298   4.500 -1.0767 -0.9531 -0.3826
    5SAPS  H18Z  665   3.626   4.333   4.502  2.4138 -4.2173 -1.7257
    6SAPS     N  666   6.836   3.805   7.309  0.3671  0.4134 -0.1430
    6SAPS   HN1  667   6.812   3.789   7.209  0.1387 -1.4467  0.1674
    6SAPS   HN2  668   6.881   3.713   7.325  2.0990  1.1142 -0.8274
    6SAPS   HN3  669   6.744   3.830   7.351 -3.1073 -5.4357 -2.9766
    6SAPS   C12  670   6.933   3.910   7.328 -0.5251 -0.6284 -0.1775
    6SAPS  H12A  671   6.890   3.998   7.283 -2.5927 -0.1116  2.5093
    6SAPS   C13  672   6.978   3.936   7.477  0.6922  0.0999  0.6413
    6SAPS  O13A  673   6.937   3.864   7.572  0.1248  0.5469  0.3959
    6SAPS  O13B  674   7.038   4.041   7.498  0.0792 -0.0879  0.2146
    6SAPS   C11  675   7.056   3.876   7.235  0.4749  1.0386  0.2788
    6SAPS  H11A  676   7.136   3.948   7.264 -0.6506  1.1598  3.4613
    6SAPS  H11B  677   7.017   3.888   7.132 -1.1387 -1.7530  0.4678
    6SAPS     P  678   7.200   3.671   7.172 -0.3487 -0.0254  0.0111
    6SAPS   O13  679   7.342   3.703   7.220  0.6554  0.0797  0.2114
    6SAPS   O14  680   7.161   3.531   7.167  0.1118  0.0779  0.6138
    6SAPS   O12  681   7.091   3.740   7.262 -0.6397  0.7942  0.0545
    6SAPS   O11  682   7.166   3.738   7.026  0.4781  0.5613 -0.0164
    6SAPS    C1  683   7.062   3.677   6.945  0.4131 -0.8382 -0.0853
    6SAPS    HA  684   7.000   3.604   7.000  0.2973 -0.0068  0.9157
    6SAPS    HB  685   6.988   3.747   6.900 -0.2110 -0.8544  0.8954
    6SAPS    C2  686   7.129   3.606   6.820 -0.2318 -0.8004 -0.2404
    6SAPS    HS  687   7.212   3.545   6.862 -1.3208 -1.8807  0.4161
    6SAPS   O21  688   7.195   3.699   6.728  0.4321  0.5806  0.0667
    6SAPS   C21  689   7.277   3.654   6.639  1.0101  0.0180 -0.1795
    6SAPS   O22  690   7.301   3.537   6.613 -0.2084  0.6555 -0.2928
    6SAPS   C22  691   7.337   3.784   6.568 -0.1980  0.0922  0.0189
    6SAPS   H2R  692   7.337   3.871   6.637  0.2769  0.1051  0.0054
    6SAPS   H2S  693   7.438   3.752   6.534 -1.3747 -1.6348 -2.1569
    6SAPS    C3  694   7.036   3.513   6.745  0.3512 -0.7638  0.4518
    6SAPS    HX  695   6.997   3.440   6.820  0.4600 -1.2052  0.0794
    6SAPS    HY  696   7.089   3.445   6.675  0.5824  2.1190 -2.4118
    6SAPS   O31  697   6.930   3.591   6.669  0.2992  0.2435  0.2137
    6SAPS   C31  698   6.828   3.516   6.623  0.9210 -0.3000 -0.4246
    6SAPS   O32  699   6.813   3.397   6.651  0.1991 -0.1354 -0.3971
    6SAPS   C32  700   6.730   3.600   6.543  0.1410 -0.0029 -1.0379
    6SAPS   H2X  701   6.776   3.700   6.524  0.2647  0.2467  0.4274
    6SAPS   H2Y  702   6.644   3.614   6.612  0.3026 -0.3677 -0.7587
    6SAPS   C23  703   7.263   3.817   6.435  0.0681 -0.0644 -0.4830
    6SAPS   H3R  704   7.156   3.825   6.464 -0.3323 -0.3754 -1.8025
    6SAPS   H3S  705   7.266   3.724   6.373  1.0351 -1.1482  1.1180
    6SAPS   C24  706   7.295   3.951   6.361  0.1038 -0.1485 -0.4975
    6SAPS   H4R  707   7.272   4.037   6.427  2.9717  0.9440 -0.7725
    6SAPS   H4S  708   7.240   3.945   6.264 -0.5677 -1.4503 -0.0637
    6SAPS   C25  709   7.446   3.947   6.337 -0.3374  0.7086  0.4458
    6SAPS   H5R  710   7.500   3.931   6.431 -0.0920 -0.6798  0.0875
    6SAPS   C26  711   7.508   3.943   6.219 -0.3241 -0.5454  1.1159
    6SAPS   H6R  712   7.617   3.949   6.214 -0.4193  0.4259 -0.7394
    6SAPS   C27  713   7.440   3.964   6.081 -0.0537 -0.3222 -0.4791
    6SAPS   H7R  714   7.342   3.914   6.066 -1.0395 -0.2906  4.2723
    6SAPS   H7S  715   7.510   3.932   6.001 -1.0914 -0.5116 -1.3391
    6SAPS   C28  716   7.420   4.114   6.059  0.3884 -0.1765 -0.7170
    6SAPS   H8R  717   7.465   4.187   6.128  2.9091 -1.6190 -0.7320
    6SAPS   C29  718   7.349   4.164   5.955 -0.1751  0.5038  0.1642
    6SAPS   H9R  719   7.350   4.272   5.937  1.9752  0.5737  0.5004
    6SAPS  C210  720   7.283   4.089   5.845  0.2626  0.4777 -0.6960
    6SAPS  H10R  721   7.181   4.132   5.846  0.5614  1.1851 -0.3170
    6SAPS  H10S  722   7.284   3.979   5.860  1.2613  0.5376 -0.2404
    6SAPS  C211  723   7.333   4.121   5.712 -0.1071 -0.2878 -0.0848
    6SAPS  H11R  724   7.408   4.201   5.709 -0.0528 -0.3609 -2.2500
    6SAPS  C212  725   7.313   4.053   5.595  0.6292 -0.5922  0.1702
    6SAPS  H12R  726   7.363   4.093   5.506  0.7757  1.7369  1.2258
    6SAPS  C213  727   7.212   3.940   5.577 -0.2851  0.3311 -0.1396
    6SAPS  H13R  728   7.163   3.922   5.675  1.0267 -0.0753  0.4555
    6SAPS  H13S  729   7.256   3.842   5.548 -0.3610 -0.4678  2.2037
    6SAPS  C214  730   7.105   3.980   5.472  0.4009  0.7826 -0.2349
    6SAPS  H14R  731   7.025   4.043   5.515  0.8532 -1.0276  3.7199
    6SAPS  C215  732   7.092   3.917   5.353  0.4789  0.0056 -0.9002
    6SAPS  H15R  733   7.006   3.940   5.289 -0.7301 -2.9550 -0.5008
    6SAPS  C216  734   7.184   3.817   5.296 -0.8244 -0.4773  0.0488
    6SAPS  H16R  735   7.292   3.828   5.319 -0.4423 -1.7102 -1.0602
    6SAPS  H16S  736   7.164   3.807   5.187 -1.3297  0.6103  0.0265
    6SAPS  C217  737   7.143   3.678   5.346 -0.0536 -0.1261 -0.2783
    6SAPS  H17R  738   7.032   3.663   5.348  0.1122 -1.4161  0.4806
    6SAPS  H17S  739   7.184   3.673   5.449  2.0509  0.2013 -1.0526
    6SAPS  C218  740   7.184   3.559   5.260 -0.7676  0.5911 -0.5315
    6SAPS  H18R  741   7.294   3.546   5.263 -0.8119 -1.8698 -3.8763
    6SAPS  H18S  742   7.159   3.592   5.157  0.4423  2.4593 -0.2862
    6SAPS  C219  743   7.116   3.424   5.304  0.6099 -0.7088  0.4111
    6SAPS  H19R  744   7.006   3.434   5.291  0.6501  1.8256  1.3722
    6SAPS  H19S  745   7.144   3.424   5.412  1.0109 -0.3748  0.3085
    6SAPS  C220  746   7.150   3.296   5.234 -0.1685 -0.5055  0.5874
    6SAPS  H20R  747   7.093   3.204   5.259 -1.2867 -0.6410 -2.0623
    6SAPS  H20S  748   7.257   3.271   5.247  0.2239  1.0378  0.5364
    6SAPS  H20T  749   7.121   3.305   5.127 -1.0007 -1.8250  0.6831
    6SAPS   C33  750   6.671   3.544   6.413 -0.2660  0.1044 -0.1083
    6SAPS   H3X  751   6.649   3.435   6.410  2.3482 -0.5418  1.0386
    6SAPS   H3Y  752   6.745   3.573   6.335  1.0848 -0.3069  0.9725
    6SAPS   C34  753   6.549   3.620   6.379  0.0614  0.1316  0.3316
    6SAPS   H4X  754   6.580   3.726   6.372  1.9762 -0.4812 -1.1845
    6SAPS   H4Y  755   6.479   3.613   6.465  0.9461 -1.8079  0.9502
    6SAPS   C35  756   6.471   3.576   6.260 -0.0133 -0.1949  0.2487
    6SAPS   H5X  757   6.393   3.653   6.246 -0.4239 -0.8273 -1.1726
    6SAPS   H5Y  758   6.414   3.486   6.295 -1.0794  0.8379  1.2489
    6SAPS   C36  759   6.563   3.549   6.137 -0.6903 -0.0194  0.4173
    6SAPS   H6X  760   6.606   3.449   6.162 -0.8422 -0.6642 -1.7047
    6SAPS   H6Y  761   6.644   3.622   6.121  0.0241 -1.2075 -1.7503
    6SAPS   C37  762   6.487   3.538   6.001  0.3964 -0.5742 -0.0537
    6SAPS   H7X  763   6.427   3.631   5.992 -0.9539 -1.3735  0.5611
    6SAPS   H7Y  764   6.416   3.454   6.007  0.1206 -0.2582  1.8852
    6SAPS   C38  765   6.570   3.532   5.877  0.0453  0.1588  0.2288
    6SAPS   H8X  766   6.599   3.425   5.875  1.5373  0.5455 -0.1153
    6SAPS   H8Y  767   6.658   3.599   5.875  0.3814 -0.2635 -2.0568
    6SAPS   C39  768   6.487   3.557   5.745 -0.7892 -0.2922 -0.1417
    6SAPS   H9X  769   6.450   3.662   5.755  0.3322  0.0838  0.2880
    6SAPS   H9Y  770   6.392   3.500   5.742 -1.6171  1.0642 -0.8602
    6SAPS  C310  771   6.576   3.540   5.619  0.4546 -0.2039  0.8261
    6SAPS  H10X  772   6.606   3.433   5.606 -0.2085 -0.6384  2.6043
    6SAPS  H10Y  773   6.667   3.604   5.627  1.0896 -1.1328  1.3074
    6SAPS  C311  774   6.481   3.577   5.504 -0.4512 -0.1494  0.6722
    6SAPS  H11X  775   6.454   3.684   5.519 -0.5971  0.0001 -0.5622
    6SAPS  H11Y  776   6.395   3.506   5.504 -1.8286  1.4126  2.4684
    6SAPS  C312  777   6.549   3.580   5.368  0.2433  0.8386  0.9457
    6SAPS  H12X  778   6.469   3.597   5.294 -0.9575  0.5758  2.1354
    6SAPS  H12Y  779   6.596   3.482   5.348  1.9245  1.9566 -0.8163
    6SAPS  C313  780   6.658   3.680   5.350 -0.6751 -0.2197 -0.2252
    6SAPS  H13X  781   6.737   3.629   5.409 -0.2250 -0.0954 -0.7175
    6SAPS  H13Y  782   6.644   3.782   5.391 -2.3258  0.4678 -2.3038
    6SAPS  C314  783   6.703   3.710   5.208  0.2235  0.4611 -0.0795
    6SAPS  H14X  784   6.720   3.614   5.155  0.8754  1.1152 -1.0937
    6SAPS  H14Y  785   6.801   3.761   5.200  0.9311 -0.9265 -0.4267
    6SAPS  C315  786   6.598   3.787   5.127 -0.2657  0.3960 -0.4070
    6SAPS  H15X  787   6.617   3.891   5.162 -1.8388  0.6206 -0.1504
    6SAPS  H15Y  788   6.494   3.758   5.151 -0.9895  1.1444 -2.4339
    6SAPS  C316  789   6.594   3.791   4.971  0.0709 -0.5283 -0.1114
    6SAPS  H16X  790   6.690   3.843   4.952 -0.0765 -0.6775 -1.3577
    6SAPS  H16Y  791   6.507   3.853   4.940  0.7147  0.5828  0.2483
    6SAPS  C317  792   6.591   3.651   4.911  0.4031  0.4219  0.1735
    6SAPS  H17X  793   6.661   3.593   4.974  0.2859  0.8311  0.6903
    6SAPS  H17Y  794   6.626   3.659   4.806 -1.7201 -0.9472 -0.7031
    6SAPS  C318  795   6.461   3.580   4.916  0.0230  0.6568  0.1598
    6SAPS  H18X  796   6.454   3.537   4.814  3.2045  2.0296 -0.7926
    6SAPS  H18Y  797   6.369   3.637   4.941 -0.6260  0.1946 -1.0910
    6SAPS  H18Z  798   6.462   3.497   4.989 -0.2557  1.9388  1.6608
    7SAPS     N  799   1.125   4.694   7.770  0.6135 -0.1012 -0.4303
    7SAPS   HN1  800   1.138   4.603   7.723  1.2206 -0.1280 -0.2174
    7SAPS   HN2  801   1.153   4.673   7.868 -0.4062 -1.8889 -0.4785
    7SAPS   HN3  802   1.023   4.717   7.769  0.6087 -0.1263 -0.5520
    7SAPS   C12  803   1.219   4.795   7.718 -0.7329 -0.0654  0.3538
    7SAPS  H12A  804   1.236   4.869   7.795 -0.7831 -1.2136  1.5059
    7SAPS   C13  805   1.353   4.721   7.676  0.4848 -0.5350 -0.0966
    7SAPS  O13A  806   1.361   4.596   7.686  0.6570 -0.3657  0.2716
    7SAPS  O13B  807   1.444   4.794   7.631 -0.2520 -0.2171  0.3633
    7SAPS   C11  808   1.181   4.865   7.586  0.1207 -0.0583 -0.6523
    7SAPS  H11A  809   1.173   4.789   7.506  0.6914 -2.2199  1.2187
    7SAPS  H11B  810   1.258   4.940   7.555  0.0360  1.0884  1.6910
    7SAPS     P  811   1.052   5.085   7.643 -0.1135  0.1890 -0.1745
    7SAPS   O13  812   0.909   5.121   7.658 -0.2832 -0.1002  0.0546
    7SAPS   O14  813   1.149   5.112   7.756 -0.9917  0.4039  0.2827
    7SAPS   O12  814   1.058   4.932   7.603 -0.2346 -0.7755 -0.0930
    7SAPS   O11  815   1.102   5.156   7.511  0.7982  0.1688  0.3090
    7SAPS    C1  816   1.036   5.132   7.386 -0.0142 -0.6478  0.9891
    7SAPS    HA  817   1.110   5.087   7.317 -0.6569 -0.5990  0.2482
    7SAPS    HB  818   0.955   5.056   7.399 -1.3481  0.4928 -0.2303
    7SAPS    C2  819   0.972   5.264   7.336  0.9113  0.2979 -0.5182
    7SAPS    HS  820   0.893   5.289   7.411 -0.9315 -1.8624 -1.5914
    7SAPS   O21  821   0.893   5.220   7.221 -0.7541 -0.4063  0.0754
    7SAPS   C21  822   0.826   5.319   7.170 -0.0782 -0.3864  0.2442
    7SAPS   O22  823   0.799   5.426   7.228  0.0313  0.0402  0.9182
    7SAPS   C22  824   0.796   5.282   7.027 -0.5792  0.0604 -0.0093
    7SAPS   H2R  825   0.871   5.210   6.989 -0.4734  0.8673 -1.4033
    7SAPS   H2S  826   0.699   5.227   7.031 -0.3285 -0.2868  2.2459
    7SAPS    C3  827   1.070   5.381   7.309  0.3260  0.0441 -0.2822
    7SAPS    HX  828   1.118   5.402   7.407  0.9076 -1.5175 -0.2007
    7SAPS    HY  829   1.013   5.474   7.289 -0.1629  0.5602  2.9153
    7SAPS   O31  830   1.164   5.335   7.206  1.2023 -0.3368  0.1475
    7SAPS   C31  831   1.263   5.424   7.184 -0.6073  0.2653  0.5044
    7SAPS   O32  832   1.262   5.532   7.239  0.6128  0.0915 -0.0143
    7SAPS   C32  833   1.366   5.370   7.082 -1.0474  0.0953  0.3110
    7SAPS   H2X  834   1.321   5.279   7.038 -1.6748  0.9402 -0.8380
    7SAPS   H2Y  835   1.453   5.339   7.145 -0.7722 -2.8170 -1.3626
    7SAPS   C23  836   0.789   5.398   6.928 -0.5692 -0.4453  0.8569
    7SAPS   H3R  837   0.734   5.481   6.977  2.4769  2.0916  0.3199
    7SAPS   H3S  838   0.724   5.367   6.843  0.7720 -1.8214  0.2864
    7SAPS   C24  839   0.927   5.437   6.870 -0.3511 -0.5500  0.3209
    7SAPS   H4R  840   0.977   5.355   6.815  1.7388 -0.2883  1.7014
    7SAPS   H4S  841   1.002   5.461   6.948 -0.5622  1.7222 -0.0931
    7SAPS   C25  842   0.927   5.549   6.766  0.1295  0.1602  0.4345
    7SAPS   H5R  843   0.990   5.636   6.789 -0.6405  0.9419 -0.3237
    7SAPS   C26  844   0.870   5.542   6.646 -0.1229  0.2798 -0.3739
    7SAPS   H6R  845   0.887   5.632   6.585 -0.9997 -0.9046 -2.4318
    7SAPS   C27  846   0.789   5.435   6.571  0.5252 -0.9504 -0.8368
    7SAPS   H7R  847   0.694   5.493   6.561  0.7372  0.4995  3.4841
    7SAPS   H7S  848   0.760   5.363   6.651  2.4260  0.2972  1.0972
    7SAPS   C28  849   0.837   5.381   6.440 -0.0110 -0.1298 -0.0348
    7SAPS   H8R  850   0.928   5.319   6.447  0.4750  0.6115  0.3425
    7SAPS   C29  851   0.784   5.415   6.318 -0.3120  0.3530 -0.7118
    7SAPS   H9R  852   0.822   5.346   6.241 -1.8949 -0.9081 -0.4301
    7SAPS  C210  853   0.678   5.517   6.289 -0.2949  0.7363 -0.0922
    7SAPS  H10R  854   0.715   5.597   6.221 -0.6854  1.1892  0.2145
    7SAPS  H10S  855   0.652   5.570   6.383 -0.6203 -0.0246  0.2548
    7SAPS  C211  856   0.548   5.459   6.237 -0.2078  0.8176 -0.6563
    7SAPS  H11R  857   0.453   5.485   6.287 -0.1097  0.7519 -0.4383
    7SAPS  C212  858   0.520   5.386   6.133 -0.7075  0.4625  0.3882
    7SAPS  H12R  859   0.418   5.354   6.106  0.0857 -0.9047 -1.1599
    7SAPS  C213  860   0.621   5.329   6.036  0.0158  0.0964 -0.0732
    7SAPS  H13R  861   0.713   5.391   6.043 -1.7549  3.0842 -1.2482
    7SAPS  H13S  862   0.589   5.349   5.931 -1.4938  1.0668  0.5412
    7SAPS  C214  863   0.655   5.180   6.055 -0.1091 -0.1740  0.4992
    7SAPS  H14R  864   0.596   5.121   6.126 -1.9626  0.2260 -0.6510
    7SAPS  C215  865   0.734   5.107   5.973 -0.2912 -0.7263  0.6759
    7SAPS  H15R  866   0.739   4.998   5.984 -0.6448 -0.8849 -0.6393
    7SAPS  C216  867   0.803   5.155   5.852  0.3161  0.4379  0.4121
    7SAPS  H16R  868   0.913   5.152   5.869 -0.0836  0.1867  3.6009
    7SAPS  H16S  869   0.772   5.255   5.814 -1.3593 -0.8546 -1.8669
    7SAPS  C217  870   0.756   5.058   5.736  0.0661 -0.3986 -0.1005
    7SAPS  H17R  871   0.735   4.957   5.777  0.3148 -0.6645 -0.6173
    7SAPS  H17S  872   0.840   5.037   5.666 -0.2650 -0.0220 -0.6178
    7SAPS  C218  873   0.632   5.109   5.669  0.3244  0.6602 -0.0697
    7SAPS  H18R  874   0.661   5.203   5.616  1.5131  0.6155  0.4653
    7SAPS  H18S  875   0.552   5.135   5.741 -0.3852 -0.8711 -0.2810
    7SAPS  C219  876   0.545   5.021   5.569  0.2471 -0.5117 -0.3700
    7SAPS  H19R  877   0.460   5.082   5.532  1.6789 -0.0130 -3.0766
    7SAPS  H19S  878   0.494   4.945   5.632  1.4961  1.5510  3.4250
    7SAPS  C220  879   0.621   4.964   5.458  0.4209  0.2015 -0.1608
    7SAPS  H20R  880   0.679   5.044   5.408  0.4707  0.2379 -0.0445
    7SAPS  H20S  881   0.555   4.918   5.382 -0.2379 -1.0298  1.1024
    7SAPS  H20T  882   0.690   4.887   5.499 -0.7892 -0.6504  0.3465
    7SAPS   C33  883   1.410   5.463   6.966 -0.5445 -1.1117  0.0598
    7SAPS   H3X  884   1.493   5.408   6.917  1.3785  1.3743  0.3355
    7SAPS   H3Y  885   1.442   5.565   6.997 -1.9076 -0.2578 -1.1981
    7SAPS   C34  886   1.297   5.496   6.869 -0.5153  0.0066 -0.4281
    7SAPS   H4X  887   1.236   5.587   6.887 -0.9872 -0.3065 -0.4378
    7SAPS   H4Y  888   1.228   5.409   6.861  0.2585 -0.4344 -3.4801
    7SAPS   C35  889   1.352   5.505   6.720  0.0927  0.0227  0.1431
    7SAPS   H5X  890   1.414   5.415   6.701  1.0284  1.0690 -2.0862
    7SAPS   H5Y  891   1.404   5.603   6.717  1.4588 -0.6878 -0.2219
    7SAPS   C36  892   1.235   5.490   6.618  0.5092  0.6710 -0.0052
    7SAPS   H6X  893   1.177   5.584   6.628 -1.5369 -0.5158 -0.2887
    7SAPS   H6Y  894   1.169   5.405   6.644  1.4707  0.5315  2.2224
    7SAPS   C37  895   1.302   5.477   6.478 -0.1042  0.8080  0.7570
    7SAPS   H7X  896   1.355   5.380   6.465 -0.4223  0.7064  0.1687
    7SAPS   H7Y  897   1.370   5.565   6.473  2.5181 -1.1176  0.4645
    7SAPS   C38  898   1.194   5.470   6.370 -0.2010 -0.0024 -0.2560
    7SAPS   H8X  899   1.132   5.562   6.362  2.1228  1.5093 -2.2286
    7SAPS   H8Y  900   1.125   5.387   6.395  0.2925 -0.8356 -1.5535
    7SAPS   C39  901   1.247   5.446   6.234  0.6934 -0.0843  0.7471
    7SAPS   H9X  902   1.316   5.360   6.225  1.2332  0.4668 -0.5911
    7SAPS   H9Y  903   1.303   5.538   6.206 -0.0484  0.0180 -0.4642
    7SAPS  C310  904   1.112   5.437   6.142 -0.1540 -0.0305  0.3767
    7SAPS  H10X  905   1.027   5.489   6.190 -0.7030  1.1587 -1.7803
    7SAPS  H10Y  906   1.086   5.329   6.153  0.6079 -0.0648  2.3862
    7SAPS  C311  907   1.141   5.486   6.003 -0.2599  0.3464  0.0218
    7SAPS  H11X  908   1.227   5.424   5.969  1.6072  3.4693 -1.3383
    7SAPS  H11Y  909   1.170   5.593   5.996  0.0871  0.7913  4.8782
    7SAPS  C312  910   1.030   5.451   5.905  0.7419 -0.4408 -0.1386
    7SAPS  H12X  911   0.949   5.527   5.914  2.4952  1.5757 -0.5393
    7SAPS  H12Y  912   0.973   5.361   5.939 -2.6883  2.7048  3.4803
    7SAPS  C313  913   1.068   5.443   5.759  0.0427 -0.8739 -0.1764
    7SAPS  H13X  914   0.988   5.389   5.705 -0.0161 -0.8116 -0.1521
    7SAPS  H13Y  915   1.156   5.376   5.751  0.6176 -0.0646 -0.7710
    7SAPS  C314  916   1.109   5.580   5.690  0.6453 -0.5225  0.3691
    7SAPS  H14X  917   1.185   5.629   5.755  1.0537 -1.6770  0.7801
    7SAPS  H14Y  918   1.016   5.641   5.700 -0.4664 -1.7721 -1.7692
    7SAPS  C315  919   1.161   5.562   5.545 -0.7076 -0.3598 -0.2442
    7SAPS  H15X  920   1.080   5.514   5.486 -0.3199 -0.1210 -0.9852
    7SAPS  H15Y  921   1.243   5.487   5.543 -2.0476 -1.8860 -0.6724
    7SAPS  C316  922   1.205   5.688   5.476  0.3822  0.1895  0.2769
    7SAPS  H16X  923   1.270   5.754   5.536  0.4213  0.5738 -0.1814
    7SAPS  H16Y  924   1.119   5.748   5.438 -1.3820 -0.3804  3.0814
    7SAPS  C317  925   1.288   5.646   5.350 -0.6932  0.3998 -0.9853
    7SAPS  H17X  926   1.228   5.591   5.274  0.6887 -0.4592 -1.4981
    7SAPS  H17Y  927   1.368   5.581   5.392 -2.0934 -0.4013  0.5937
    7SAPS  C318  928   1.362   5.756   5.280 -0.3801 -0.5280  0.0060
    7SAPS  H18X  929   1.291   5.836   5.251 -1.4466 -1.1946  0.7029
    7SAPS  H18Y  930   1.391   5.708   5.185  2.6491 -0.4771  0.8060
    7SAPS  H18Z  931   1.463   5.792   5.311 -0.4791  0.2113 -0.5186
    8SAPS     N  932   2.114   0.183   6.957  0.8194 -0.3395 -0.2858
    8SAPS   HN1  933   2.070   0.198   6.864 -2.3813  0.7013  1.2462
    8SAPS   HN2  934   2.162   0.091   6.960  1.3655 -0.1093 -1.4032
    8SAPS   HN3  935   2.034   0.179   7.024  1.0902  0.8777  0.1408
    8SAPS   C12  936   2.210   0.300   6.991  0.8018  0.9236 -0.5128
    8SAPS  H12A  937   2.163   0.397   6.996  0.4935  0.7514  0.0928
    8SAPS   C13  938   2.270   0.268   7.137  0.0510 -0.2641 -0.6694
    8SAPS  O13A  939   2.233   0.173   7.211  0.5597  0.4001  0.2592
    8SAPS  O13B  940   2.366   0.338   7.172 -0.2608  0.2878 -0.9912
    8SAPS   C11  941   2.306   0.304   6.864 -0.7422  0.5368 -0.2671
    8SAPS  H11A  942   2.377   0.221   6.880 -2.0033 -0.2826  1.4456
    8SAPS  H11B  943   2.366   0.394   6.890 -0.5389 -0.0473  1.3423
    8SAPS     P  944   2.167   0.445   6.701 -0.2649 -0.2090 -0.2818
    8SAPS   O13  945   2.060   0.488   6.796 -0.7843 -0.3327 -0.1756
    8SAPS   O14  946   2.282   0.533   6.670 -0.0204  0.3985  0.0130
    8SAPS   O12  947   2.234   0.303   6.741 -0.8467 -0.0956  0.7772
    8SAPS   O11  948   2.092   0.419   6.562  0.2630  0.2635  0.0825
    8SAPS    C1  949   2.146   0.315   6.473 -0.1849 -0.4834  0.1870
    8SAPS    HA  950   2.249   0.342   6.444 -0.3635 -0.3079 -0.2878
    8SAPS    HB  951   2.165   0.213   6.514 -0.4052 -0.4124  0.4671
    8SAPS    C2  952   2.050   0.313   6.356 -0.5258  0.5278  0.4989
    8SAPS    HS  953   2.065   0.218   6.301 -1.6623  1.2105 -1.0778
    8SAPS   O21  954   2.077   0.427   6.277  0.4643 -0.4426  1.0456
    8SAPS   C21  955   2.160   0.403   6.175 -0.3114  0.0705 -0.0121
    8SAPS   O22  956   2.243   0.315   6.165  0.8895  0.0918 -0.3573
    8SAPS   C22  957   2.145   0.514   6.070  0.4039  0.3318 -0.4195
    8SAPS   H2R  958   2.041   0.515   6.030  1.2255  2.8472 -2.7856
    8SAPS   H2S  959   2.152   0.608   6.128  0.2180 -0.6044  1.1975
    8SAPS    C3  960   1.904   0.319   6.393 -0.0400 -0.4320  0.1110
    8SAPS    HX  961   1.877   0.427   6.402 -3.3392 -1.1568  0.0349
    8SAPS    HY  962   1.896   0.267   6.491  0.8441 -0.8564 -0.0371
    8SAPS   O31  963   1.828   0.259   6.294  0.2593  0.7264  0.5374
    8SAPS   C31  964   1.703   0.288   6.304 -0.0794 -0.0161 -0.1572
    8SAPS   O32  965   1.655   0.356   6.396 -0.8196  0.5140 -0.0571
    8SAPS   C32  966   1.626   0.223   6.190  0.4476 -0.5392  0.1446
    8SAPS   H2X  967   1.516   0.221   6.209  0.8221  1.2927  3.2645
    8SAPS   H2Y  968   1.663   0.118   6.197  0.9663 -0.3790 -0.1653
    8SAPS   C23  969   2.238   0.498   5.953 -0.1779  1.0065  0.0624
    8SAPS   H3R  970   2.209   0.401   5.908 -0.3217  0.7517  0.6963
    8SAPS   H3S  971   2.340   0.488   5.995 -0.6108 -0.0484  0.8806
    8SAPS   C24  972   2.242   0.618   5.852 -1.2746 -0.3852  0.0352
    8SAPS   H4R  973   2.303   0.582   5.766 -1.3120 -2.1129  0.6857
    8SAPS   H4S  974   2.294   0.694   5.913 -0.2947 -1.6618  0.8424
    8SAPS   C25  975   2.114   0.664   5.786 -0.2263  0.4844  0.2235
    8SAPS   H5R  976   2.038   0.585   5.776  0.0516  0.4675 -2.7969
    8SAPS   C26  977   2.097   0.776   5.719  0.3570 -0.8419 -0.3392
    8SAPS   H6R  978   2.002   0.794   5.666 -0.6283 -0.1366  1.5583
    8SAPS   C27  979   2.190   0.895   5.723  0.6067  0.8175 -0.2257
    8SAPS   H7R  980   2.272   0.891   5.648 -0.7073 -0.9534 -1.6483
    8SAPS   H7S  981   2.237   0.885   5.823 -0.1567  0.7177  0.1295
    8SAPS   C28  982   2.104   1.024   5.721 -0.3109 -0.0632  1.1227
    8SAPS   H8R  983   2.046   1.037   5.814  1.1074 -1.3526  2.2510
    8SAPS   C29  984   2.098   1.115   5.614 -0.6354 -0.0783  0.0064
    8SAPS   H9R  985   2.050   1.214   5.621 -2.6740 -0.8571 -1.8942
    8SAPS  C210  986   2.161   1.103   5.483  0.1011 -0.2226 -0.4561
    8SAPS  H10R  987   2.110   1.164   5.405 -1.1923  1.8943  1.8887
    8SAPS  H10S  988   2.152   0.999   5.446 -0.1561  0.1931 -1.6262
    8SAPS  C211  989   2.306   1.147   5.477  0.6383  0.4041  0.0814
    8SAPS  H11R  990   2.350   1.193   5.567 -0.7342  0.2806  0.8481
    8SAPS  C212  991   2.394   1.111   5.381 -0.2179 -0.8053  0.0676
    8SAPS  H12R  992   2.492   1.159   5.379 -0.5300 -0.1733 -1.4985
    8SAPS  C213  993   2.362   1.033   5.254  0.0326 -0.5299  0.1049
    8SAPS  H13R  994   2.285   0.954   5.264 -0.2820 -0.0838  1.4209
    8SAPS  H13S  995   2.456   0.984   5.221  0.3855 -1.6221  2.5150
    8SAPS  C214  996   2.303   1.129   5.149  0.2225  1.3189  0.1058
    8SAPS  H14R  997   2.209   1.177   5.180  0.4061  1.6765  0.1142
    8SAPS  C215  998   2.360   1.174   5.030 -0.3131  0.0339  0.0293
    8SAPS  H15R  999   2.299   1.251   4.980  0.0796  1.3924  1.5415
    8SAPS  C216 1000   2.496   1.149   4.966 -0.1393 -0.0476  0.2381
    8SAPS  H16R 1001   2.547   1.069   5.023  1.0664 -1.7269 -2.9550
    8SAPS  H16S 1002   2.556   1.242   4.982 -1.5470  1.2420 -1.5934
    8SAPS  C217 1003   2.489   1.116   4.815  0.2669 -0.3200  0.2079
    8SAPS  H17R 1004   2.593   1.125   4.775  0.0188 -0.0788 -0.3893
    8SAPS  H17S 1005   2.439   1.197   4.758  1.3074 -1.9003 -3.2941
    8SAPS  C218 1006   2.425   0.980   4.779  0.1193 -0.0139 -0.4144
    8SAPS  H18R 1007   2.330   0.960   4.833 -0.7393 -0.2580 -1.9669
    8SAPS  H18S 1008   2.501   0.905   4.812 -0.7507 -0.7847 -0.1160
    8SAPS  C219 1009   2.417   0.952   4.625 -0.0425  0.1365  0.3947
    8SAPS  H19R 1010   2.330   1.009   4.585  0.7001  0.6643 -0.5122
    8SAPS  H19S 1011   2.383   0.847   4.612  2.0698 -0.3923 -1.7466
    8SAPS  C220 1012   2.543   0.977   4.540 -0.0585  0.0612  0.3177
    8SAPS  H20R 1013   2.621   0.910   4.581  1.0937 -0.3550 -2.3729
    8SAPS  H20S 1014   2.570   1.085   4.538 -0.4527  0.1623 -1.1888
    8SAPS  H20T 1015   2.533   0.957   4.431  1.8538  1.4908 -0.1623
    8SAPS   C33 1016   1.636   0.293   6.050  0.0629 -0.2069  0.5927
    8SAPS   H3X 1017   1.743   0.313   6.029 -0.1620  1.0631  0.5853
    8SAPS   H3Y 1018   1.586   0.390   6.035 -1.1663 -0.9510 -0.3071
    8SAPS   C34 1019   1.583   0.202   5.942  0.0862  0.1807  0.4443
    8SAPS   H4X 1020   1.473   0.211   5.933 -0.0449 -1.2933  0.2436
    8SAPS   H4Y 1021   1.614   0.096   5.961  1.6927  0.8799  2.0968
    8SAPS   C35 1022   1.646   0.230   5.805 -0.2072  0.3537  0.3133
    8SAPS   H5X 1023   1.755   0.211   5.812 -0.4521 -1.1819  0.2680
    8SAPS   H5Y 1024   1.632   0.336   5.772  2.9876  0.6819 -0.2886
    8SAPS   C36 1025   1.589   0.146   5.692 -0.1312  0.0533  0.2510
    8SAPS   H6X 1026   1.481   0.162   5.673 -0.2381 -0.8099  0.1157
    8SAPS   H6Y 1027   1.594   0.042   5.730 -2.6778  0.6547  2.5252
    8SAPS   C37 1028   1.651   0.170   5.555  0.0513  0.3344 -0.2547
    8SAPS   H7X 1029   1.620   0.263   5.503 -1.5133 -1.5573 -3.0252
    8SAPS   H7Y 1030   1.598   0.089   5.499 -0.2216  0.0244  0.4443
    8SAPS   C38 1031   1.800   0.133   5.547  0.1132 -0.0673 -0.2371
    8SAPS   H8X 1032   1.806   0.028   5.585 -0.9973 -0.3241 -0.7320
    8SAPS   H8Y 1033   1.850   0.206   5.614  0.2945  1.2310 -1.7350
    8SAPS   C39 1034   1.855   0.132   5.402  0.8469  0.7920 -0.4823
    8SAPS   H9X 1035   1.776   0.070   5.355 -0.7221 -0.1358  3.0130
    8SAPS   H9Y 1036   1.954   0.084   5.390  0.1675 -0.3368 -1.9445
    8SAPS  C310 1037   1.853   0.271   5.331 -0.1689  0.2358 -0.6201
    8SAPS  H10X 1038   1.748   0.310   5.328 -0.3312  0.1316  1.8540
    8SAPS  H10Y 1039   1.882   0.239   5.229  2.1157 -0.0400  0.0662
    8SAPS  C311 1040   1.952   0.374   5.382 -0.2766 -0.2570  0.1665
    8SAPS  H11X 1041   2.058   0.341   5.383 -0.9534 -2.6037  0.9720
    8SAPS  H11Y 1042   1.918   0.395   5.486  0.4265  1.4827  0.0904
    8SAPS  C312 1043   1.936   0.516   5.316  0.7466 -1.1011 -0.4097
    8SAPS  H12X 1044   1.977   0.587   5.392  2.5287 -0.3595 -1.9777
    8SAPS  H12Y 1045   1.828   0.542   5.311  1.0632  0.5102  0.2644
    8SAPS  C313 1046   2.014   0.532   5.185 -0.5003 -0.4016  0.0227
    8SAPS  H13X 1047   1.994   0.447   5.117  0.6177 -1.1801  0.6361
    8SAPS  H13Y 1048   2.122   0.531   5.213 -0.5234  1.6000  0.3471
    8SAPS  C314 1049   1.970   0.662   5.111  0.6182  0.4345 -0.3214
    8SAPS  H14X 1050   1.999   0.749   5.174  0.9670  0.0189  0.1018
    8SAPS  H14Y 1051   1.859   0.655   5.110  0.6693 -2.2376  1.0518
    8SAPS  C315 1052   2.031   0.687   4.974  0.2239  0.3038  0.2444
    8SAPS  H15X 1053   2.006   0.600   4.910 -0.2788 -2.2549  3.6053
    8SAPS  H15Y 1054   2.141   0.691   4.988  0.3524  1.7553 -0.9278
    8SAPS  C316 1055   1.995   0.813   4.904 -0.3651  0.1513 -0.1745
    8SAPS  H16X 1056   2.047   0.901   4.947  1.5316 -0.5329 -0.9603
    8SAPS  H16Y 1057   1.885   0.829   4.893 -0.4092 -0.1353 -0.1680
    8SAPS  C317 1058   2.039   0.819   4.755 -0.2488  0.0986 -0.0532
    8SAPS  H17X 1059   2.005   0.732   4.695 -0.9061  0.6202 -0.4453
    8SAPS  H17Y 1060   2.150   0.821   4.758 -0.2101  0.1217 -1.0654
    8SAPS  C318 1061   1.968   0.937   4.685  0.1660  0.8285  0.8665
    8SAPS  H18X 1062   2.002   1.035   4.727  1.1622  1.3312 -1.0181
    8SAPS  H18Y 1063   1.858   0.929   4.673  0.4910 -1.0713 -1.3980
    8SAPS  H18Z 1064   2.007   0.954   4.583  0.6400  0.8040  1.0401
    9SAPS     N 1065   0.663   4.822   7.457 -0.3095 -0.5271  0.0378
    9SAPS   HN1 1066   0.600   4.739   7.453  0.7906 -1.4264  0.4736
    9SAPS   HN2 1067   0.604   4.904   7.479 -1.0535 -0.2202 -2.7224
    9SAPS   HN3 1068   0.690   4.835   7.357 -1.0250 -0.8725 -0.2082
    9SAPS   C12 1069   0.788   4.791   7.533  0.4122 -0.3360  0.0386
    9SAPS  H12A 1070   0.848   4.881   7.526  1.3904 -1.0756 -1.7890
    9SAPS   C13 1071   0.765   4.775   7.683  0.5537  0.8195  0.3125
    9SAPS  O13A 1072   0.653   4.796   7.739  0.8171 -0.2863  0.0141
    9SAPS  O13B 1073   0.864   4.753   7.762 -0.2917 -0.1081  0.2818
    9SAPS   C11 1074   0.870   4.676   7.475  0.3936  0.8926 -0.1308
    9SAPS  H11A 1075   0.831   4.577   7.509 -0.0006  1.4737  1.1985
    9SAPS  H11B 1076   0.969   4.689   7.525  0.4550  4.0374 -0.8942
    9SAPS     P 1077   1.000   4.596   7.259  0.3294 -0.3391 -0.0969
    9SAPS   O13 1078   1.115   4.589   7.345 -0.0360  0.5503  0.1891
    9SAPS   O14 1079   0.940   4.471   7.204 -0.0427 -0.0634 -0.5466
    9SAPS   O12 1080   0.884   4.675   7.334 -0.0747  0.1324 -0.4629
    9SAPS   O11 1081   1.039   4.706   7.141 -0.2921  0.4416 -0.4657
    9SAPS    C1 1082   0.969   4.827   7.147  0.5320 -0.0180 -0.5452
    9SAPS    HA 1083   0.860   4.804   7.140  0.7575 -1.3105 -0.0241
    9SAPS    HB 1084   0.988   4.878   7.244 -1.6937  0.8827 -0.5212
    9SAPS    C2 1085   1.005   4.924   7.033  0.0205  0.4457  0.6279
    9SAPS    HS 1086   0.955   5.022   7.053 -1.1797 -0.2969  1.3751
    9SAPS   O21 1087   0.967   4.871   6.901 -0.1206 -0.2158 -0.0376
    9SAPS   C21 1088   0.836   4.878   6.878 -0.3345  0.8190  0.8592
    9SAPS   O22 1089   0.756   4.932   6.951 -0.0298  0.6047 -0.2889
    9SAPS   C22 1090   0.803   4.803   6.752  0.0559  0.3794 -0.9839
    9SAPS   H2R 1091   0.893   4.744   6.724  1.6153  2.4564 -0.5901
    9SAPS   H2S 1092   0.722   4.732   6.778  0.3762  0.3223 -0.1176
    9SAPS    C3 1093   1.162   4.935   7.038  0.1141 -0.1805  0.5219
    9SAPS    HX 1094   1.213   4.837   7.040 -0.3508 -0.4433  3.7638
    9SAPS    HY 1095   1.187   4.980   7.136  1.4815  1.9698 -0.7189
    9SAPS   O31 1096   1.217   5.022   6.928  0.2953  0.2979 -0.6323
    9SAPS   C31 1097   1.345   5.038   6.938 -0.1508 -0.5904  0.1884
    9SAPS   O32 1098   1.423   4.994   7.024 -0.0698 -0.0940 -0.2562
    9SAPS   C32 1099   1.381   5.123   6.824 -0.4211  0.3435  0.0810
    9SAPS   H2X 1100   1.490   5.140   6.817 -0.4798  1.5725  1.5866
    9SAPS   H2Y 1101   1.319   5.215   6.835  0.1316  0.4788  2.7510
    9SAPS   C23 1102   0.738   4.883   6.629  0.4013  0.9127  0.2685
    9SAPS   H3R 1103   0.638   4.930   6.645 -0.8507 -1.0201 -1.3238
    9SAPS   H3S 1104   0.717   4.813   6.545 -0.6396 -1.2834  2.2335
    9SAPS   C24 1105   0.833   4.994   6.590 -0.0103 -0.3935  0.2236
    9SAPS   H4R 1106   0.848   5.062   6.677  1.3880 -0.9678  0.4505
    9SAPS   H4S 1107   0.781   5.055   6.513  1.0469  0.7260  0.3667
    9SAPS   C25 1108   0.971   4.954   6.537  0.0331  0.2302  0.0013
    9SAPS   H5R 1109   1.034   4.911   6.617 -0.2281  2.6688  1.6000
    9SAPS   C26 1110   1.009   4.959   6.408  0.0527 -0.1137 -0.5323
    9SAPS   H6R 1111   1.112   4.937   6.377  0.4547 -1.0163  1.3049
    9SAPS   C27 1112   0.917   5.008   6.295  0.0958 -0.1604 -0.2034
    9SAPS   H7R 1113   0.979   5.035   6.207  0.8406 -1.5773 -0.1283
    9SAPS   H7S 1114   0.868   5.103   6.327 -1.1938 -0.8969  0.0569
    9SAPS   C28 1115   0.821   4.897   6.251 -0.6968  0.7075 -0.4334
    9SAPS   H8R 1116   0.720   4.898   6.294 -0.2872  2.3821  0.5923
    9SAPS   C29 1117   0.851   4.798   6.167 -0.0198 -0.1016 -0.2885
    9SAPS   H9R 1118   0.771   4.730   6.132 -0.3680 -0.4449  1.1097
    9SAPS  C210 1119   0.986   4.774   6.101 -0.0587  0.2434  0.1618
    9SAPS  H10R 1120   1.030   4.675   6.125  2.9304  1.7737  1.5792
    9SAPS  H10S 1121   1.061   4.831   6.159 -0.3250 -0.1084  0.8582
    9SAPS  C211 1122   0.988   4.834   5.965  0.0378  0.4575 -0.2188
    9SAPS  H11R 1123   0.989   4.944   5.973  0.7681  0.3722  1.2544
    9SAPS  C212 1124   1.000   4.768   5.849  0.2210  0.2382  0.5035
    9SAPS  H12R 1125   1.003   4.827   5.757  1.1226  0.4627  0.6686
    9SAPS  C213 1126   1.001   4.620   5.821 -0.2312 -1.3704  0.3191
    9SAPS  H13R 1127   0.930   4.594   5.740 -0.0779 -0.8689  0.0196
    9SAPS  H13S 1128   0.968   4.570   5.914 -1.1929  0.2336  0.8812
    9SAPS  C214 1129   1.137   4.559   5.780  0.3668 -0.4680  0.2084
    9SAPS  H14R 1130   1.196   4.498   5.850 -0.1671 -0.2055  0.8951
    9SAPS  C215 1131   1.171   4.541   5.654 -0.0815 -0.0391  0.1341
    9SAPS  H15R 1132   1.270   4.502   5.624 -0.4238  0.1707 -1.3285
    9SAPS  C216 1133   1.100   4.595   5.535  0.1988  0.8305  0.6629
    9SAPS  H16R 1134   1.184   4.623   5.467 -0.0104  0.7120  0.3534
    9SAPS  H16S 1135   1.057   4.693   5.564 -0.7239  0.1048  1.8534
    9SAPS  C217 1136   1.008   4.500   5.451 -0.4975  0.2782  0.1827
    9SAPS  H17R 1137   0.935   4.465   5.527  3.0284 -0.0395  3.7051
    9SAPS  H17S 1138   1.070   4.412   5.425 -2.4505 -0.6014 -1.8629
    9SAPS  C218 1139   0.960   4.564   5.325  0.9213 -0.4113 -0.1863
    9SAPS  H18R 1140   1.042   4.603   5.260  1.1320 -1.8188 -0.7934
    9SAPS  H18S 1141   0.897   4.655   5.338  1.7931  0.3456 -1.0382
    9SAPS  C219 1142   0.891   4.465   5.227  0.4694 -0.3910  0.5490
    9SAPS  H19R 1143   0.792   4.445   5.272  0.4221 -2.0166 -0.2065
    9SAPS  H19S 1144   0.949   4.371   5.216  1.8561  0.4582  0.3971
    9SAPS  C220 1145   0.866   4.525   5.083 -0.5799  0.4900 -0.1039
    9SAPS  H20R 1146   0.960   4.559   5.034 -0.6440 -0.3848 -0.8555
    9SAPS  H20S 1147   0.791   4.607   5.091 -1.5812 -0.3930 -0.2668
    9SAPS  H20T 1148   0.832   4.455   5.005 -0.8863  0.9687 -0.4012
    9SAPS   C33 1149   1.329   5.062   6.691  0.2334 -0.2730 -0.1418
    9SAPS   H3X 1150   1.335   5.147   6.620 -1.2588  0.7494  0.8988
    9SAPS   H3Y 1151   1.223   5.029   6.690  0.2035 -0.2355 -1.9096
    9SAPS   C34 1152   1.426   4.955   6.630 -0.5528  0.0347 -0.4000
    9SAPS   H4X 1153   1.447   4.868   6.696 -1.1548 -0.7744 -1.2469
    9SAPS   H4Y 1154   1.521   5.011   6.616 -0.5802  0.1770 -0.0047
    9SAPS   C35 1155   1.385   4.902   6.493 -0.0392  0.4147  0.5019
    9SAPS   H5X 1156   1.308   4.822   6.491 -1.0940  1.4411 -1.2788
    9SAPS   H5Y 1157   1.479   4.847   6.471  0.1536  0.7993  0.3588
    9SAPS   C36 1158   1.367   5.012   6.388 -0.2056  0.0173  0.8880
    9SAPS   H6X 1159   1.463   5.068   6.394 -0.2337 -0.0086  1.7337
    9SAPS   H6Y 1160   1.284   5.080   6.417 -0.6794 -0.1027 -0.1671
    9SAPS   C37 1161   1.352   4.962   6.243 -0.8820  0.1151 -0.3942
    9SAPS   H7X 1162   1.280   4.878   6.232  0.1292 -0.8538  0.1986
    9SAPS   H7Y 1163   1.446   4.926   6.196 -2.0356  0.2755 -2.9959
    9SAPS   C38 1164   1.309   5.082   6.153  0.0853  0.5645 -0.4939
    9SAPS   H8X 1165   1.381   5.164   6.176 -0.8031  1.0472  0.6384
    9SAPS   H8Y 1166   1.214   5.121   6.193 -0.4267 -0.0787 -1.0555
    9SAPS   C39 1167   1.319   5.054   5.995  0.5172  0.2442 -0.2814
    9SAPS   H9X 1168   1.245   4.975   5.968 -0.8320  1.2096  0.5156
    9SAPS   H9Y 1169   1.420   5.008   5.981  1.2842  1.6514  0.3608
    9SAPS  C310 1170   1.325   5.180   5.909 -0.3480  0.2143  0.3688
    9SAPS  H10X 1171   1.397   5.253   5.951 -0.8328  1.3923 -0.7406
    9SAPS  H10Y 1172   1.222   5.222   5.910 -0.0964  1.0733 -2.2675
    9SAPS  C311 1173   1.358   5.144   5.758  0.5114 -0.6441  0.3086
    9SAPS  H11X 1174   1.443   5.073   5.747  1.1143 -0.1145  1.3737
    9SAPS  H11Y 1175   1.396   5.226   5.694 -0.4484 -1.4190 -1.3256
    9SAPS  C312 1176   1.241   5.068   5.687 -0.6979 -0.6539 -0.9211
    9SAPS  H12X 1177   1.157   5.137   5.709  1.3220  1.9538 -0.8260
    9SAPS  H12Y 1178   1.228   4.969   5.736 -1.7189 -1.7404 -3.2285
    9SAPS  C313 1179   1.254   5.058   5.534 -0.6505  1.2805 -0.4345
    9SAPS  H13X 1180   1.327   4.977   5.516 -1.3359  0.6921 -0.6137
    9SAPS  H13Y 1181   1.301   5.155   5.505  1.2343  0.6317  0.2806
    9SAPS  C314 1182   1.121   5.056   5.455 -0.4776  0.2068 -0.3314
    9SAPS  H14X 1183   1.072   5.152   5.483 -1.7426 -0.7520  0.9214
    9SAPS  H14Y 1184   1.046   4.986   5.498  0.2486 -1.4794 -1.7075
    9SAPS  C315 1185   1.139   5.043   5.300  0.2742 -0.0664 -0.2032
    9SAPS  H15X 1186   1.231   4.980   5.292  0.0236 -0.5678  0.6769
    9SAPS  H15Y 1187   1.163   5.143   5.259  1.9469  0.3540  1.6449
    9SAPS  C316 1188   1.013   4.974   5.227 -0.3849 -0.0291 -0.3659
    9SAPS  H16X 1189   0.920   5.030   5.253  0.1371 -0.9630  4.5447
    9SAPS  H16Y 1190   0.992   4.872   5.266 -0.6581  0.0047 -0.4203
    9SAPS  C317 1191   1.036   4.967   5.076 -0.1538 -0.0970  0.3637
    9SAPS  H17X 1192   1.034   5.071   5.035  3.5000  0.4593  1.2661
    9SAPS  H17Y 1193   0.945   4.913   5.041 -0.1226 -0.1536  0.3712
    9SAPS  C318 1194   1.156   4.898   5.026 -0.6688  0.1926  0.2650
    9SAPS  H18X 1195   1.138   4.789   5.036 -3.9371  0.7044  1.4440
    9SAPS  H18Y 1196   1.250   4.936   5.071  0.8173 -0.8761 -1.7540
    9SAPS  H18Z 1197   1.163   4.924   4.918  1.8877 -2.6391 -0.3802
   10SAPS     N 1198   0.090   4.392   7.292 -0.6581 -0.1627 -0.0012
   10SAPS   HN1 1199   0.058   4.456   7.368  0.1203  1.9792 -1.3915
   10SAPS   HN2 1200   0.174   4.339   7.325 -0.6162 -0.2192 -0.1992
   10SAPS   HN3 1201   0.112   4.457   7.214  0.9890 -2.3800 -1.5125
   10SAPS   C12 1202  -0.022   4.312   7.247  0.2593  0.4753 -0.6194
   10SAPS  H12A 1203  -0.046   4.237   7.320  0.7643 -0.3808 -1.3231
   10SAPS   C13 1204  -0.150   4.401   7.226 -0.2443  0.0673  0.3936
   10SAPS  O13A 1205  -0.162   4.521   7.267  0.8273 -0.0847 -0.2809
   10SAPS  O13B 1206  -0.251   4.332   7.186 -0.3042 -0.8260 -0.4100
   10SAPS   C11 1207   0.006   4.248   7.111  0.2052 -0.3173  0.6134
   10SAPS  H11A 1208   0.007   4.330   7.037 -2.7750  0.1603  0.9996
   10SAPS  H11B 1209  -0.079   4.186   7.076  0.7064  0.3719 -2.0140
   10SAPS     P 1210   0.259   4.204   7.039  0.1059  0.2561 -0.1812
   10SAPS   O13 1211   0.271   4.347   6.994  0.0357  0.0446  0.0898
   10SAPS   O14 1212   0.358   4.165   7.146 -0.0138  0.0401 -0.1133
   10SAPS   O12 1213   0.126   4.177   7.109 -0.3502 -0.4887  0.4525
   10SAPS   O11 1214   0.261   4.114   6.919  0.0478  0.6367 -0.5657
   10SAPS    C1 1215   0.144   4.056   6.858 -0.6994 -0.2053  0.5459
   10SAPS    HA 1216   0.122   3.956   6.901  0.2033  0.4157  2.5915
   10SAPS    HB 1217   0.050   4.114   6.865 -1.1179 -0.9321  0.9853
   10SAPS    C2 1218   0.167   4.038   6.704 -0.1058  0.1156 -0.1688
   10SAPS    HS 1219   0.269   3.999   6.686 -1.1286 -1.6226 -2.7970
   10SAPS   O21 1220   0.154   4.168   6.640  0.6711 -0.0613  0.0464
   10SAPS   C21 1221   0.273   4.238   6.638  0.1425  0.3425  0.2038
   10SAPS   O22 1222   0.382   4.186   6.674  0.7064  0.0789 -0.1477
   10SAPS   C22 1223   0.255   4.374   6.583  0.0159  0.7400  0.1628
   10SAPS   H2R 1224   0.164   4.383   6.519 -0.8304 -0.1186  1.2168
   10SAPS   H2S 1225   0.221   4.436   6.669 -0.3999  0.2309  0.3726
   10SAPS    C3 1226   0.069   3.924   6.656 -0.9217 -0.0036 -0.9556
   10SAPS    HX 1227  -0.030   3.953   6.697 -0.0901  0.5896  0.7262
   10SAPS    HY 1228   0.100   3.823   6.688 -1.6085  0.2611  0.6188
   10SAPS   O31 1229   0.067   3.920   6.514  0.0784  0.3513 -0.2597
   10SAPS   C31 1230  -0.027   3.984   6.446 -0.1015  0.2212 -0.6655
   10SAPS   O32 1231  -0.127   4.035   6.493 -0.2927 -0.2901  0.7229
   10SAPS   C32 1232   0.015   3.994   6.298  0.1044 -0.4404  0.9536
   10SAPS   H2X 1233  -0.072   3.945   6.250  0.4641  1.3709 -1.7415
   10SAPS   H2Y 1234   0.101   3.929   6.271  0.5759  0.5179  0.0914
   10SAPS   C23 1235   0.390   4.436   6.539  0.0210  0.5949 -0.2765
   10SAPS   H3R 1236   0.475   4.383   6.586  0.2883 -0.2926 -1.7014
   10SAPS   H3S 1237   0.384   4.543   6.568 -0.8500  0.7125 -0.8294
   10SAPS   C24 1238   0.401   4.436   6.383  0.0319  0.1233 -0.0685
   10SAPS   H4R 1239   0.324   4.489   6.324 -0.4073 -1.3272 -0.8270
   10SAPS   H4S 1240   0.388   4.333   6.346  1.3893  0.2570 -1.0020
   10SAPS   C25 1241   0.543   4.472   6.355  0.5097 -0.0755 -0.9237
   10SAPS   H5R 1242   0.606   4.419   6.428 -0.0104 -2.3489 -2.0220
   10SAPS   C26 1243   0.587   4.559   6.266  0.3402  0.5117  0.5758
   10SAPS   H6R 1244   0.697   4.569   6.264  0.2843  1.2376 -1.8192
   10SAPS   C27 1245   0.506   4.631   6.157 -0.5356 -0.2840  0.1528
   10SAPS   H7R 1246   0.545   4.731   6.127 -0.8959 -0.6377 -1.5971
   10SAPS   H7S 1247   0.403   4.650   6.196 -0.6804 -2.1997  0.8187
   10SAPS   C28 1248   0.475   4.537   6.038 -0.7795  0.0819 -0.2482
   10SAPS   H8R 1249   0.467   4.434   6.076 -4.8436  0.8022  1.3448
   10SAPS   C29 1250   0.478   4.562   5.904  0.2834  0.2447 -0.1628
   10SAPS   H9R 1251   0.449   4.489   5.826 -0.4140  1.6253 -1.2436
   10SAPS  C210 1252   0.514   4.697   5.838  0.0478  0.5104 -0.4136
   10SAPS  H10R 1253   0.520   4.778   5.914  2.9205  0.1121 -0.1249
   10SAPS  H10S 1254   0.432   4.718   5.766  0.8639  1.8600 -0.9990
   10SAPS  C211 1255   0.644   4.678   5.776 -0.1836 -0.4370  0.0829
   10SAPS  H11R 1256   0.721   4.682   5.854  1.0768  2.5116 -1.1408
   10SAPS  C212 1257   0.673   4.646   5.646  0.5840 -0.0978 -0.2070
   10SAPS  H12R 1258   0.779   4.648   5.617  1.8103 -4.1649  3.1410
   10SAPS  C213 1259   0.576   4.630   5.530 -0.5198  0.7642  0.2795
   10SAPS  H13R 1260   0.609   4.687   5.440  0.9507  0.3067  0.4960
   10SAPS  H13S 1261   0.471   4.657   5.552 -1.1708 -1.7407  0.5416
   10SAPS  C214 1262   0.570   4.485   5.482 -0.1789 -0.3961  0.1722
   10SAPS  H14R 1263   0.642   4.421   5.534  2.6514  1.5548 -1.0945
   10SAPS  C215 1264   0.492   4.438   5.385  0.3283 -0.0476 -0.1466
   10SAPS  H15R 1265   0.500   4.333   5.355  1.8574 -0.7083  2.2811
   10SAPS  C216 1266   0.393   4.520   5.301  0.3025  0.3434 -0.5422
   10SAPS  H16R 1267   0.393   4.473   5.200  0.4147  0.7666 -0.7443
   10SAPS  H16S 1268   0.412   4.628   5.282 -2.2222  1.0354  0.4177
   10SAPS  C217 1269   0.252   4.514   5.352 -0.3664 -0.3456  0.4353
   10SAPS  H17R 1270   0.191   4.603   5.327 -2.0670 -1.3989  0.6490
   10SAPS  H17S 1271   0.249   4.516   5.463  2.0114 -1.8522  0.6107
   10SAPS  C218 1272   0.178   4.389   5.320 -0.1111  0.9852 -0.0784
   10SAPS  H18R 1273   0.227   4.297   5.359 -1.0068  0.3309 -0.4720
   10SAPS  H18S 1274   0.177   4.363   5.212  2.9759  1.0725 -0.2300
   10SAPS  C219 1275   0.032   4.397   5.366  0.2659  0.0125 -0.2423
   10SAPS  H19R 1276  -0.007   4.497   5.335  0.5494  0.2052  0.0183
   10SAPS  H19S 1277   0.031   4.400   5.477  0.2325 -1.0409 -0.2086
   10SAPS  C220 1278  -0.059   4.284   5.310  0.3039 -0.1310  0.6647
   10SAPS  H20R 1279  -0.013   4.185   5.332 -0.4691 -0.6845 -0.1577
   10SAPS  H20S 1280  -0.077   4.274   5.201 -1.1175  1.0240  0.7733
   10SAPS  H20T 1281  -0.154   4.295   5.366  0.3467  3.4312  0.2661
   10SAPS   C33 1282   0.029   4.142   6.257  0.1759 -0.1116 -0.3174
   10SAPS   H3X 1283   0.086   4.207   6.327  0.7762 -2.1225  1.1603
   10SAPS   H3Y 1284  -0.076   4.179   6.255 -0.2393 -1.2585 -0.9937
   10SAPS   C34 1285   0.089   4.144   6.117 -0.1900 -0.6237  0.3343
   10SAPS   H4X 1286   0.031   4.080   6.046 -0.6151 -2.3130  2.1044
   10SAPS   H4Y 1287   0.191   4.099   6.124 -0.0339 -0.7740 -2.1156
   10SAPS   C35 1288   0.114   4.286   6.058  0.6732 -0.5031  0.5260
   10SAPS   H5X 1289   0.171   4.279   5.964 -2.9507 -1.3515 -1.7966
   10SAPS   H5Y 1290   0.166   4.350   6.133  0.7171 -0.6814  0.6476
   10SAPS   C36 1291  -0.019   4.365   6.033  0.2077 -0.8178  0.0718
   10SAPS   H6X 1292  -0.064   4.358   6.134  0.6811 -0.9233  0.2762
   10SAPS   H6Y 1293  -0.077   4.322   5.948 -0.1635  1.3849 -0.8542
   10SAPS   C37 1294   0.007   4.516   6.001  0.4607 -0.3144 -0.5860
   10SAPS   H7X 1295   0.067   4.563   6.082  0.5526 -2.9048  0.9631
   10SAPS   H7Y 1296  -0.085   4.577   6.000  1.2633  0.9398 -0.1440
   10SAPS   C38 1297   0.073   4.534   5.859 -0.6477  0.4909 -0.6700
   10SAPS   H8X 1298   0.062   4.451   5.787  1.8036  0.1569 -0.7433
   10SAPS   H8Y 1299   0.183   4.539   5.872 -0.1214 -2.1660 -3.1152
   10SAPS   C39 1300   0.041   4.673   5.799 -0.2987  0.2782 -0.1027
   10SAPS   H9X 1301   0.094   4.747   5.863 -0.8754 -0.6912  1.5583
   10SAPS   H9Y 1302  -0.068   4.692   5.807  0.2475  3.2712  2.0390
   10SAPS  C310 1303   0.100   4.686   5.651 -0.3930 -0.1298 -1.2112
   10SAPS  H10X 1304   0.049   4.621   5.576 -0.8290 -1.3808  0.1221
   10SAPS  H10Y 1305   0.200   4.641   5.664 -1.0095 -0.6660  3.2212
   10SAPS  C311 1306   0.089   4.837   5.611 -0.6487  0.1160  0.4357
   10SAPS  H11X 1307   0.151   4.893   5.685  1.3564 -0.2363 -0.8844
   10SAPS  H11Y 1308  -0.018   4.864   5.612 -0.3150  1.5897 -0.4284
   10SAPS  C312 1309   0.158   4.872   5.471  0.0802  0.4063 -0.3769
   10SAPS  H12X 1310   0.239   4.800   5.447  0.1320  0.9864 -2.1157
   10SAPS  H12Y 1311   0.194   4.975   5.451  0.0987  0.0562 -2.3882
   10SAPS  C313 1312   0.064   4.844   5.356 -0.0446  0.0235  0.1042
   10SAPS  H13X 1313  -0.037   4.887   5.374 -1.1803 -0.8863 -3.3857
   10SAPS  H13Y 1314   0.034   4.737   5.352  1.4586 -0.5257  1.8523
   10SAPS  C314 1315   0.117   4.894   5.217  0.4720  0.8259 -0.1441
   10SAPS  H14X 1316   0.105   5.004   5.221  0.0839  0.7623  3.0441
   10SAPS  H14Y 1317   0.044   4.866   5.138  1.1322 -0.5650 -0.2959
   10SAPS  C315 1318   0.249   4.843   5.167 -0.1540  0.2044 -1.0140
   10SAPS  H15X 1319   0.237   4.732   5.167  1.3393 -0.0200  0.9153
   10SAPS  H15Y 1320   0.330   4.866   5.240 -0.4214  0.2316 -0.7238
   10SAPS  C316 1321   0.289   4.906   5.034  0.2700 -0.4698  0.0212
   10SAPS  H16X 1322   0.270   5.014   5.014  1.5977 -0.4255 -1.1035
   10SAPS  H16Y 1323   0.220   4.871   4.954  2.6776  0.3353 -2.5685
   10SAPS  C317 1324   0.433   4.868   4.994 -0.4637 -0.3315  0.0886
   10SAPS  H17X 1325   0.422   4.861   4.884  0.7505  1.7170 -0.2223
   10SAPS  H17Y 1326   0.462   4.773   5.043  1.9795 -0.5957 -1.6683
   10SAPS  C318 1327   0.533   4.975   5.045 -0.4224 -0.0881 -0.9861
   10SAPS  H18X 1328   0.637   4.941   5.027 -0.8657 -0.7843 -2.4713
   10SAPS  H18Y 1329   0.512   5.001   5.151 -1.6103 -0.0833 -1.2073
   10SAPS  H18Z 1330   0.536   5.065   4.980  2.2686  0.4984 -0.1843
   11SAPS     N 1331   1.097   2.321   2.573 -0.1972  0.3577  0.4489
   11SAPS   HN1 1332   1.035   2.403   2.557 -0.8518 -0.4100 -1.2177
   11SAPS   HN2 1333   1.051   2.255   2.639  0.8389  0.3042  1.1289
   11SAPS   HN3 1334   1.189   2.341   2.616  1.4243 -2.8228 -1.1762
   11SAPS   C12 1335   1.111   2.242   2.442 -0.1972 -0.3422  0.0336
   11SAPS  H12A 1336   1.018   2.244   2.387  1.1515  1.6583 -2.3849
   11SAPS   C13 1337   1.227   2.299   2.347  0.9191 -0.1926 -0.0119
   11SAPS  O13A 1338   1.299   2.394   2.389 -0.1506  0.0653  0.2932
   11SAPS  O13B 1339   1.229   2.261   2.227 -0.2815  0.1388 -0.6421
   11SAPS   C11 1340   1.144   2.095   2.478  0.1165 -0.6529  0.0815
   11SAPS  H11A 1341   1.224   2.106   2.554 -1.3680  0.1512  1.5940
   11SAPS  H11B 1342   1.181   2.045   2.386  0.0425  0.1613 -0.4061
   11SAPS     P 1343   0.978   2.004   2.667  0.1924  0.0339  0.3776
   11SAPS   O13 1344   0.964   2.134   2.730  0.3027 -0.6391 -0.2662
   11SAPS   O14 1345   0.856   1.919   2.663 -0.2764 -0.0494  0.0554
   11SAPS   O12 1346   1.027   2.029   2.524  0.1919  0.1946 -0.8807
   11SAPS   O11 1347   1.098   1.933   2.731  0.5436  0.6164  0.0533
   11SAPS    C1 1348   1.110   1.790   2.708 -0.4623  0.8529  0.1763
   11SAPS    HA 1349   1.089   1.760   2.603  2.1684 -0.5614 -0.0097
   11SAPS    HB 1350   1.219   1.773   2.709 -0.8317 -2.0142 -0.6001
   11SAPS    C2 1351   1.037   1.700   2.811  0.1217 -0.2275 -0.4646
   11SAPS    HS 1352   0.931   1.693   2.780  0.2524 -0.1863 -0.9404
   11SAPS   O21 1353   1.054   1.764   2.939 -0.1510  0.0428 -0.1319
   11SAPS   C21 1354   0.949   1.757   3.031 -0.4189 -0.2323  0.6079
   11SAPS   O22 1355   0.840   1.711   3.006  0.8665  0.1382  0.6290
   11SAPS   C22 1356   0.983   1.824   3.162 -0.6501 -0.0314  0.2310
   11SAPS   H2R 1357   1.084   1.871   3.161 -1.8114  3.0482  4.1704
   11SAPS   H2S 1358   0.914   1.912   3.162  0.6564  1.0331 -0.0447
   11SAPS    C3 1359   1.091   1.556   2.812  0.2194  0.7348  0.7342
   11SAPS    HX 1360   1.200   1.573   2.824  0.0654  1.4952  1.0829
   11SAPS    HY 1361   1.077   1.505   2.713  2.0377 -0.0974  0.8734
   11SAPS   O31 1362   1.044   1.487   2.928 -0.7968  0.6808  0.0116
   11SAPS   C31 1363   0.942   1.412   2.911  0.3513  0.3271  0.2195
   11SAPS   O32 1364   0.863   1.410   2.818  0.3040 -0.2591  0.2099
   11SAPS   C32 1365   0.940   1.315   3.034  0.6713 -0.1511  0.3306
   11SAPS   H2X 1366   0.879   1.360   3.114  1.5476 -0.8034  1.3906
   11SAPS   H2Y 1367   1.042   1.308   3.077  1.1501 -0.7353 -0.8416
   11SAPS   C23 1368   0.981   1.723   3.278 -0.6484 -0.0838  0.3568
   11SAPS   H3R 1369   0.884   1.669   3.272 -0.7601 -0.2594  2.8163
   11SAPS   H3S 1370   0.988   1.774   3.376 -3.2327  3.7480 -1.1952
   11SAPS   C24 1371   1.084   1.611   3.250 -0.3062 -0.6924 -0.2836
   11SAPS   H4R 1372   1.186   1.651   3.267  0.0926 -1.7694 -0.0235
   11SAPS   H4S 1373   1.075   1.586   3.142 -0.5740  0.3779 -0.5132
   11SAPS   C25 1374   1.067   1.482   3.322 -0.2620  0.3649 -0.7135
   11SAPS   H5R 1375   0.976   1.431   3.288 -0.9802  1.4056 -0.4184
   11SAPS   C26 1376   1.138   1.442   3.430 -0.0603  1.0942 -0.5429
   11SAPS   H6R 1377   1.135   1.344   3.479  1.6406  1.3815  0.2143
   11SAPS   C27 1378   1.256   1.524   3.481  0.6864  0.0144  0.3168
   11SAPS   H7R 1379   1.220   1.628   3.492 -1.4245 -0.5859 -0.3604
   11SAPS   H7S 1380   1.337   1.528   3.404  2.3722 -1.6120  1.9041
   11SAPS   C28 1381   1.295   1.508   3.628  0.0942  0.1686 -0.0603
   11SAPS   H8R 1382   1.222   1.454   3.691  0.9590 -0.1971  0.6590
   11SAPS   C29 1383   1.422   1.525   3.683  0.0433 -0.5875  0.0588
   11SAPS   H9R 1384   1.439   1.500   3.789  0.1449  2.0060  0.7184
   11SAPS  C210 1385   1.536   1.575   3.594 -0.4810 -0.9134  0.1180
   11SAPS  H10R 1386   1.546   1.516   3.500 -0.6609 -3.2180  1.4824
   11SAPS  H10S 1387   1.631   1.566   3.649  0.0805  0.5302 -0.5642
   11SAPS  C211 1388   1.533   1.722   3.571 -0.7483 -0.5738  0.1190
   11SAPS  H11R 1389   1.518   1.783   3.661  2.9752  0.3988  0.2607
   11SAPS  C212 1390   1.536   1.787   3.448 -0.3856 -0.6778  0.5787
   11SAPS  H12R 1391   1.542   1.896   3.454  1.7364 -0.6131 -1.4228
   11SAPS  C213 1392   1.551   1.735   3.311  0.3465 -0.0932 -0.3240
   11SAPS  H13R 1393   1.536   1.625   3.303  0.3078 -0.1539  0.4677
   11SAPS  H13S 1394   1.654   1.766   3.280  0.8915 -1.3568  0.1497
   11SAPS  C214 1395   1.444   1.810   3.232 -0.1546 -0.3641 -0.1105
   11SAPS  H14R 1396   1.347   1.809   3.284  0.1876 -0.7898  0.5345
   11SAPS  C215 1397   1.464   1.882   3.124  0.4991 -0.2897  0.0210
   11SAPS  H15R 1398   1.370   1.910   3.074  0.4398  1.9437  1.2462
   11SAPS  C216 1399   1.590   1.907   3.040  0.4617  1.1401 -0.0391
   11SAPS  H16R 1400   1.564   1.899   2.933 -1.2716 -1.0542  0.4610
   11SAPS  H16S 1401   1.665   1.830   3.069 -1.1610 -0.3826  0.3008
   11SAPS  C217 1402   1.651   2.049   3.053  0.4780  0.3293  0.0123
   11SAPS  H17R 1403   1.760   2.035   3.041  0.3780 -0.6154  0.1733
   11SAPS  H17S 1404   1.641   2.066   3.162  1.8305  2.0534 -0.0856
   11SAPS  C218 1405   1.581   2.159   2.972 -0.0954  0.6220  0.0609
   11SAPS  H18R 1406   1.481   2.177   3.016 -0.2194 -0.6910  0.3693
   11SAPS  H18S 1407   1.566   2.119   2.869 -2.4921  1.1822  0.1275
   11SAPS  C219 1408   1.669   2.285   2.975 -1.2075 -0.4388 -0.5377
   11SAPS  H19R 1409   1.764   2.254   2.927 -0.6807  1.2910 -0.6872
   11SAPS  H19S 1410   1.690   2.328   3.075 -1.8376 -2.1623  0.3770
   11SAPS  C220 1411   1.612   2.389   2.871  0.0310  0.4688 -0.5918
   11SAPS  H20R 1412   1.599   2.344   2.770 -0.2980  0.1721 -0.4225
   11SAPS  H20S 1413   1.679   2.476   2.853 -0.9031  1.2812 -0.2326
   11SAPS  H20T 1414   1.509   2.423   2.895 -0.3699 -0.5176 -0.8498
   11SAPS   C33 1415   0.893   1.172   3.013 -0.5647 -0.7032  0.4968
   11SAPS   H3X 1416   0.930   1.137   2.914  0.4606 -1.1733  1.0301
   11SAPS   H3Y 1417   0.784   1.156   3.028 -0.7447  0.1357  0.1650
   11SAPS   C34 1418   0.959   1.074   3.111 -0.2125 -0.0487  0.8033
   11SAPS   H4X 1419   1.069   1.083   3.106 -0.0737 -1.9372 -0.6253
   11SAPS   H4Y 1420   0.937   0.971   3.077  0.0764  0.8728 -2.4995
   11SAPS   C35 1421   0.907   1.096   3.251 -0.1118 -0.2874 -0.9253
   11SAPS   H5X 1422   0.866   1.198   3.268  1.0439  0.7104 -3.5880
   11SAPS   H5Y 1423   0.992   1.098   3.322 -0.8424 -1.7163  0.0324
   11SAPS   C36 1424   0.796   0.995   3.294 -1.0841 -0.3108  1.2018
   11SAPS   H6X 1425   0.818   0.905   3.233  2.6812  0.7217  0.8063
   11SAPS   H6Y 1426   0.698   1.032   3.257  0.0497 -0.1857 -1.9700
   11SAPS   C37 1427   0.794   0.949   3.450  0.2720 -1.3419  0.3390
   11SAPS   H7X 1428   0.697   0.894   3.457 -0.4089 -0.3995 -1.2219
   11SAPS   H7Y 1429   0.798   1.041   3.512 -2.2288 -0.6421 -0.4064
   11SAPS   C38 1430   0.908   0.863   3.490 -0.0087  0.1282 -0.4642
   11SAPS   H8X 1431   0.992   0.929   3.459  0.3328 -0.2863 -0.4374
   11SAPS   H8Y 1432   0.905   0.771   3.428 -2.0412  1.8607 -3.1947
   11SAPS   C39 1433   0.893   0.829   3.636 -0.2586 -0.0885  0.4193
   11SAPS   H9X 1434   0.864   0.920   3.694  2.6234  1.1091  0.1593
   11SAPS   H9Y 1435   0.989   0.786   3.673 -0.2648 -0.6445 -0.1874
   11SAPS  C310 1436   0.801   0.704   3.656  0.1302 -0.0716 -0.2282
   11SAPS  H10X 1437   0.783   0.629   3.576  0.6228 -0.1616 -0.2564
   11SAPS  H10Y 1438   0.704   0.753   3.678  1.0616  1.7450  0.0177
   11SAPS  C311 1439   0.836   0.632   3.792 -0.3345 -0.2618 -0.2376
   11SAPS  H11X 1440   0.932   0.577   3.778 -0.0717 -0.2015  1.2303
   11SAPS  H11Y 1441   0.762   0.552   3.809 -0.1880 -0.4325 -0.3936
   11SAPS  C312 1442   0.833   0.725   3.914 -0.0496  0.6457  0.5801
   11SAPS  H12X 1443   0.744   0.791   3.907  0.1031  0.6638 -2.5968
   11SAPS  H12Y 1444   0.919   0.795   3.908 -1.4380  2.3817 -0.0172
   11SAPS  C313 1445   0.814   0.649   4.039 -0.4814 -0.5631  0.3631
   11SAPS  H13X 1446   0.881   0.561   4.052  4.4827  3.0576  2.4010
   11SAPS  H13Y 1447   0.707   0.617   4.047 -0.7255  0.0154 -0.4401
   11SAPS  C314 1448   0.816   0.741   4.155 -0.2184  0.1666 -0.0030
   11SAPS  H14X 1449   0.720   0.797   4.149 -0.3484  0.3434  2.4736
   11SAPS  H14Y 1450   0.905   0.807   4.146 -0.4989  0.8200  1.6517
   11SAPS  C315 1451   0.815   0.671   4.294  0.4812 -0.0559  0.1584
   11SAPS  H15X 1452   0.915   0.626   4.313  1.5493  2.6865  1.6925
   11SAPS  H15Y 1453   0.736   0.595   4.309  1.8176 -1.5630 -0.1924
   11SAPS  C316 1454   0.794   0.778   4.400  0.1506  0.5970  0.8583
   11SAPS  H16X 1455   0.691   0.806   4.370  1.5950  2.9873 -2.5387
   11SAPS  H16Y 1456   0.859   0.862   4.367  0.4978  0.8753  2.1687
   11SAPS  C317 1457   0.813   0.743   4.546 -0.4833 -0.8781 -0.6062
   11SAPS  H17X 1458   0.922   0.744   4.570 -0.7839  0.3139  0.7937
   11SAPS  H17Y 1459   0.778   0.638   4.561 -1.2005 -0.4526  0.8507
   11SAPS  C318 1460   0.748   0.838   4.645  0.0533  0.3085  0.0197
   11SAPS  H18X 1461   0.776   0.818   4.751 -0.0783 -1.1865 -0.2082
   11SAPS  H18Y 1462   0.638   0.835   4.629  0.1236  1.5085 -0.7992
   11SAPS  H18Z 1463   0.783   0.940   4.618 -0.5317  1.7682  3.9791
   12SAPS     N 1464   1.498   2.211   2.187 -0.2588  0.0161 -0.1651
   12SAPS   HN1 1465   1.396   2.229   2.180  0.1632  2.6374 -0.6544
   12SAPS   HN2 1466   1.545   2.280   2.250 -1.3023  0.2717  0.3586
   12SAPS   HN3 1467   1.534   2.212   2.089 -0.3122 -1.0412 -0.2090
   12SAPS   C12 1468   1.525   2.070   2.239 -0.7074 -0.0153  0.0464
   12SAPS  H12A 1469   1.454   2.052   2.318 -2.0346 -1.6547 -1.4155
   12SAPS   C13 1470   1.488   1.953   2.146 -0.3841  0.7766  0.2884
   12SAPS  O13A 1471   1.442   1.987   2.035 -0.4178 -0.1534  0.9577
   12SAPS  O13B 1472   1.482   1.838   2.191 -0.0353  0.3922  0.1635
   12SAPS   C11 1473   1.667   2.049   2.298 -0.1336 -0.0544 -0.0351
   12SAPS  H11A 1474   1.744   2.044   2.218 -0.3326 -1.7773 -0.1698
   12SAPS  H11B 1475   1.680   1.950   2.348  1.2901  1.0510  1.9338
   12SAPS     P 1476   1.697   2.167   2.539  0.1133 -0.3355  0.0434
   12SAPS   O13 1477   1.810   2.251   2.595  0.3778 -0.0218  0.4029
   12SAPS   O14 1478   1.557   2.204   2.564 -0.1389 -0.5216 -0.2799
   12SAPS   O12 1479   1.713   2.153   2.381 -0.1443 -0.1684 -0.4992
   12SAPS   O11 1480   1.719   2.015   2.578 -0.4008 -0.6076  0.5005
   12SAPS    C1 1481   1.800   1.986   2.690  0.1043  0.2488 -0.3809
   12SAPS    HA 1482   1.896   2.042   2.687  0.4508 -0.3624 -1.9375
   12SAPS    HB 1483   1.742   1.995   2.784  3.5263 -1.3284  2.1074
   12SAPS    C2 1484   1.817   1.835   2.696  0.0980  0.2769  0.1536
   12SAPS    HS 1485   1.861   1.795   2.602  2.3408 -1.7312  1.9180
   12SAPS   O21 1486   1.689   1.768   2.727  0.2108 -0.6454  0.0657
   12SAPS   C21 1487   1.678   1.637   2.728  0.8728 -0.0954 -1.0041
   12SAPS   O22 1488   1.767   1.561   2.694 -0.3782  0.0588  0.7014
   12SAPS   C22 1489   1.541   1.588   2.781 -0.2880 -0.1565 -0.1457
   12SAPS   H2R 1490   1.522   1.648   2.873 -1.3196  0.7825 -0.9345
   12SAPS   H2S 1491   1.471   1.609   2.697 -0.5162 -0.9260 -0.1544
   12SAPS    C3 1492   1.914   1.810   2.819 -1.0922 -0.0746 -0.2212
   12SAPS    HX 1493   1.924   1.700   2.827  1.0075  0.0604 -0.5964
   12SAPS    HY 1494   1.873   1.863   2.908  0.1715  1.0779 -0.2981
   12SAPS   O31 1495   2.042   1.866   2.790  0.1261  0.1894  0.6090
   12SAPS   C31 1496   2.134   1.845   2.878 -0.1197 -0.6823 -1.0237
   12SAPS   O32 1497   2.115   1.779   2.979 -0.3878 -0.0538 -0.2349
   12SAPS   C32 1498   2.265   1.911   2.840  0.1117  0.9070 -0.0494
   12SAPS   H2X 1499   2.275   1.950   2.736  0.6120  1.7514  0.3107
   12SAPS   H2Y 1500   2.336   1.828   2.861  0.1598  0.6248 -1.2390
   12SAPS   C23 1501   1.536   1.438   2.809 -0.4340 -0.1249 -0.9198
   12SAPS   H3R 1502   1.619   1.414   2.878 -0.1644  1.3895 -0.6896
   12SAPS   H3S 1503   1.542   1.390   2.709 -2.3304  2.8556 -2.6113
   12SAPS   C24 1504   1.409   1.386   2.877  0.1597 -0.5355  0.3403
   12SAPS   H4R 1505   1.416   1.275   2.884 -1.4765 -0.7612 -0.9132
   12SAPS   H4S 1506   1.327   1.402   2.804 -1.5272  0.7166  2.4098
   12SAPS   C25 1507   1.387   1.455   3.007 -0.2286 -1.0846 -0.1922
   12SAPS   H5R 1508   1.396   1.565   3.007  1.7452 -1.2025  0.7833
   12SAPS   C26 1509   1.365   1.394   3.121 -0.0366  0.7349  0.3884
   12SAPS   H6R 1510   1.348   1.452   3.212 -0.6267  1.1710  0.0067
   12SAPS   C27 1511   1.324   1.247   3.127 -1.0066 -0.6048  0.0843
   12SAPS   H7R 1512   1.275   1.218   3.032 -0.8064  0.8876 -0.4958
   12SAPS   H7S 1513   1.250   1.239   3.210 -1.2147 -2.0233 -0.2105
   12SAPS   C28 1514   1.439   1.155   3.147 -0.3679  0.2797 -0.2133
   12SAPS   H8R 1515   1.474   1.102   3.057  1.4290 -0.8586  1.0780
   12SAPS   C29 1516   1.498   1.109   3.265 -0.9501 -0.0820 -0.5971
   12SAPS   H9R 1517   1.571   1.027   3.263 -1.1084 -0.2774  0.9463
   12SAPS  C210 1518   1.469   1.155   3.404 -0.3027  0.5067 -0.4251
   12SAPS  H10R 1519   1.467   1.266   3.408  0.3122  0.5873 -1.6741
   12SAPS  H10S 1520   1.551   1.116   3.469  0.7810  0.8454 -1.5353
   12SAPS  C211 1521   1.337   1.091   3.447 -0.4375  0.3025 -0.0695
   12SAPS  H11R 1522   1.262   1.055   3.376 -1.2031 -0.7403  1.2206
   12SAPS  C212 1523   1.316   1.066   3.577 -0.4061 -0.0645  0.4749
   12SAPS  H12R 1524   1.219   1.017   3.597 -0.5636 -1.5044 -3.1004
   12SAPS  C213 1525   1.397   1.112   3.696  0.0902  0.2150 -0.1527
   12SAPS  H13R 1526   1.467   1.193   3.666  4.1024 -3.1659 -0.9074
   12SAPS  H13S 1527   1.466   1.034   3.734 -0.4506 -0.5092 -0.6360
   12SAPS  C214 1528   1.312   1.169   3.811 -0.5204 -0.6908 -0.7034
   12SAPS  H14R 1529   1.218   1.219   3.783 -0.3788  0.0048  0.0320
   12SAPS  C215 1530   1.357   1.190   3.939  0.3567  0.2738  0.6127
   12SAPS  H15R 1531   1.282   1.213   4.016 -0.2025  0.2432  0.0842
   12SAPS  C216 1532   1.487   1.127   3.993  0.0921 -0.6901  0.4151
   12SAPS  H16R 1533   1.530   1.207   4.056 -0.5937  0.1218 -0.1284
   12SAPS  H16S 1534   1.555   1.116   3.905  0.3279 -1.7773  0.7148
   12SAPS  C217 1535   1.476   1.000   4.069 -0.0026  0.5114 -0.0852
   12SAPS  H17R 1536   1.579   0.961   4.076  0.0842  0.6779 -0.4065
   12SAPS  H17S 1537   1.416   0.935   4.001 -0.2488  1.0186 -0.3636
   12SAPS  C218 1538   1.425   1.002   4.221  0.0707 -0.4082  0.5704
   12SAPS  H18R 1539   1.502   1.063   4.274 -0.9314  1.9792 -0.5756
   12SAPS  H18S 1540   1.418   0.896   4.254 -1.4332 -0.3057  0.6139
   12SAPS  C219 1541   1.283   1.039   4.246 -0.8388 -0.0888 -0.2579
   12SAPS  H19R 1542   1.223   0.994   4.164 -1.2293 -0.3233  0.1541
   12SAPS  H19S 1543   1.261   1.148   4.241 -0.2199 -0.0072 -1.9973
   12SAPS  C220 1544   1.232   1.002   4.386  0.0379 -0.2708 -0.3796
   12SAPS  H20R 1545   1.236   0.891   4.396 -0.8970 -0.0973  3.8624
   12SAPS  H20S 1546   1.126   1.034   4.395 -0.0805 -1.0464  1.5839
   12SAPS  H20T 1547   1.298   1.048   4.462 -2.6566  0.8389  1.4510
   12SAPS   C33 1548   2.278   2.051   2.920  0.0460  0.7302  0.4192
   12SAPS   H3X 1549   2.179   2.091   2.948  0.0334  0.9502  0.0624
   12SAPS   H3Y 1550   2.347   2.123   2.871  1.4987  1.0571  2.7432
   12SAPS   C34 1551   2.356   2.028   3.047 -0.3435 -0.5944 -0.9128
   12SAPS   H4X 1552   2.458   1.987   3.031  0.7125  1.4460  0.1692
   12SAPS   H4Y 1553   2.307   1.959   3.120  0.6331  1.2040  1.5901
   12SAPS   C35 1554   2.373   2.158   3.122 -0.9264  0.0620 -0.0275
   12SAPS   H5X 1555   2.273   2.188   3.161 -0.1086  4.6848 -0.8534
   12SAPS   H5Y 1556   2.411   2.237   3.053  0.0264 -1.4020 -1.2488
   12SAPS   C36 1557   2.469   2.126   3.242 -0.2444 -0.2856 -0.3586
   12SAPS   H6X 1558   2.564   2.085   3.204 -0.9149 -2.0942 -0.2062
   12SAPS   H6Y 1559   2.425   2.048   3.308  1.2597 -0.4171  0.5314
   12SAPS   C37 1560   2.490   2.244   3.330 -0.0099 -0.5161  0.0167
   12SAPS   H7X 1561   2.565   2.217   3.407 -0.7120 -2.6634  0.0105
   12SAPS   H7Y 1562   2.393   2.272   3.375  0.2400  2.8342 -1.2641
   12SAPS   C38 1563   2.546   2.370   3.248 -0.2152  0.1438 -0.4785
   12SAPS   H8X 1564   2.468   2.395   3.174 -3.0602 -1.4616  1.7468
   12SAPS   H8Y 1565   2.642   2.340   3.201 -0.1906 -1.0457  0.2682
   12SAPS   C39 1566   2.571   2.487   3.340  0.8011  0.4655 -0.2771
   12SAPS   H9X 1567   2.475   2.536   3.367 -0.2816 -1.2418 -0.8800
   12SAPS   H9Y 1568   2.632   2.560   3.283  1.9387 -0.5908 -0.4482
   12SAPS  C310 1569   2.643   2.463   3.472 -0.2375  0.8351 -0.2703
   12SAPS  H10X 1570   2.716   2.381   3.455 -1.5044 -0.2753 -0.5010
   12SAPS  H10Y 1571   2.568   2.423   3.543  1.9223  0.1036  1.7476
   12SAPS  C311 1572   2.699   2.596   3.525  0.2957  0.4390 -0.3051
   12SAPS  H11X 1573   2.616   2.668   3.510 -0.4893 -0.4405 -0.3276
   12SAPS  H11Y 1574   2.793   2.628   3.476  1.7946 -1.3285  1.2368
   12SAPS  C312 1575   2.738   2.589   3.676  0.3681  0.5266  0.1775
   12SAPS  H12X 1576   2.782   2.489   3.697 -0.7210  0.3094  1.5627
   12SAPS  H12Y 1577   2.646   2.586   3.738  0.1984  0.3764 -0.0808
   12SAPS  C313 1578   2.828   2.699   3.724 -0.0954 -0.9495 -0.4994
   12SAPS  H13X 1579   2.808   2.789   3.663 -1.8750 -0.5510  0.5834
   12SAPS  H13Y 1580   2.929   2.666   3.693  0.6797  1.2624 -0.4606
   12SAPS  C314 1581   2.824   2.727   3.873  0.6076 -0.0248  0.2537
   12SAPS  H14X 1582   2.843   2.637   3.936  1.6519  0.6844  0.9722
   12SAPS  H14Y 1583   2.721   2.759   3.899  0.9800  0.9296  0.5754
   12SAPS  C315 1584   2.929   2.827   3.925  0.2846  0.0133  0.7890
   12SAPS  H15X 1585   2.911   2.918   3.864 -3.0287  0.6443  2.4906
   12SAPS  H15Y 1586   3.027   2.783   3.895 -0.7057 -2.6130  1.1131
   12SAPS  C316 1587   2.911   2.864   4.075  0.2663 -0.2913 -0.0255
   12SAPS  H16X 1588   2.938   2.771   4.130  0.4290 -0.8157 -0.9774
   12SAPS  H16Y 1589   2.803   2.882   4.092  0.1604 -1.3529  0.5210
   12SAPS  C317 1590   2.997   2.978   4.129 -0.8009  0.8073 -0.3496
   12SAPS  H17X 1591   2.976   3.075   4.080 -0.8959  0.8484 -0.2269
   12SAPS  H17Y 1592   3.101   2.954   4.097 -0.9430 -0.3784  0.0326
   12SAPS  C318 1593   2.987   2.980   4.282 -0.1591  0.4784  0.0847
   12SAPS  H18X 1594   3.081   3.015   4.330  0.2333  0.4733 -0.6615
   12SAPS  H18Y 1595   2.967   2.876   4.318 -2.6326  0.1193 -2.0240
   12SAPS  H18Z 1596   2.897   3.028   4.324 -0.4233 -0.9586  1.2631
   13SAPS     N 1597   3.670   6.166   1.966 -0.4939 -0.2288 -0.1736
   13SAPS   HN1 1598   3.589   6.231   1.966  1.2788  2.1639  0.2424
   13SAPS   HN2 1599   3.756   6.216   1.933 -1.2570  0.3856 -1.3057
   13SAPS   HN3 1600   3.660   6.080   1.908  1.1134  0.6159 -1.8245
   13SAPS   C12 1601   3.675   6.115   2.103 -0.8047 -0.3480 -0.8584
   13SAPS  H12A 1602   3.709   6.200   2.160 -0.0130 -1.8419  0.9767
   13SAPS   C13 1603   3.544   6.073   2.171 -0.0043  0.2707 -0.3703
   13SAPS  O13A 1604   3.447   6.057   2.097  0.0468  0.1228 -0.2332
   13SAPS  O13B 1605   3.542   6.033   2.288 -0.0107  0.7039 -0.7369
   13SAPS   C11 1606   3.793   6.009   2.123  0.0926 -0.4218  0.2761
   13SAPS  H11A 1607   3.778   5.940   2.037  1.9755 -0.7729  0.1924
   13SAPS  H11B 1608   3.779   5.954   2.218  1.6689 -0.3737  0.5622
   13SAPS     P 1609   3.986   6.116   2.247 -0.1633  0.0853 -0.3719
   13SAPS   O13 1610   3.994   5.993   2.331  0.5770 -0.5774  0.1004
   13SAPS   O14 1611   4.114   6.191   2.219 -0.1196  0.2200  0.3150
   13SAPS   O12 1612   3.920   6.073   2.109  0.1679 -0.1950 -0.3365
   13SAPS   O11 1613   3.890   6.217   2.310 -0.3829 -0.2017  0.4417
   13SAPS    C1 1614   3.788   6.181   2.402  1.0088 -0.1353 -0.0251
   13SAPS    HA 1615   3.689   6.208   2.360  2.0643  3.7280 -0.4057
   13SAPS    HB 1616   3.789   6.072   2.421  1.4687 -0.4120 -1.5197
   13SAPS    C2 1617   3.813   6.251   2.537 -0.3203 -0.8265  1.0571
   13SAPS    HS 1618   3.771   6.187   2.618 -0.6224 -0.2392  1.3754
   13SAPS   O21 1619   3.746   6.379   2.550 -0.4840 -0.4797 -0.0225
   13SAPS   C21 1620   3.615   6.389   2.555 -0.2992 -0.5149  0.1099
   13SAPS   O22 1621   3.538   6.297   2.565  0.2399 -0.5477  0.1582
   13SAPS   C22 1622   3.571   6.529   2.541 -0.3988  0.1766  0.4487
   13SAPS   H2R 1623   3.619   6.580   2.627  1.3942 -0.8465  0.1111
   13SAPS   H2S 1624   3.625   6.575   2.455  0.2464 -1.0775  0.1554
   13SAPS    C3 1625   3.964   6.267   2.566 -0.2688  1.1076  0.0031
   13SAPS    HX 1626   4.002   6.358   2.514 -3.4520  2.8710  0.5400
   13SAPS    HY 1627   4.014   6.180   2.518 -0.2564 -0.5018  2.7575
   13SAPS   O31 1628   3.997   6.272   2.708  0.4299 -0.4765 -0.6124
   13SAPS   C31 1629   4.120   6.304   2.730  0.1244  0.0307 -1.1942
   13SAPS   O32 1630   4.203   6.351   2.658  0.1110  0.6931  0.0026
   13SAPS   C32 1631   4.141   6.269   2.888  0.5766 -0.4469  0.4607
   13SAPS   H2X 1632   4.089   6.173   2.906  2.4764 -1.2803  1.8764
   13SAPS   H2Y 1633   4.093   6.358   2.933  1.8787  1.5757 -1.8810
   13SAPS   C23 1634   3.420   6.563   2.545  0.6769  1.4369  0.2455
   13SAPS   H3R 1635   3.381   6.482   2.610 -1.2253 -0.3202 -2.8443
   13SAPS   H3S 1636   3.374   6.549   2.445 -3.3146  0.3436  2.0655
   13SAPS   C24 1637   3.393   6.709   2.581 -0.6122 -0.4721 -0.6186
   13SAPS   H4R 1638   3.284   6.718   2.563 -0.5987 -2.2403 -1.8321
   13SAPS   H4S 1639   3.443   6.776   2.509 -0.9339  0.3056 -0.1239
   13SAPS   C25 1640   3.442   6.759   2.720  0.2181 -0.3552  0.4321
   13SAPS   H5R 1641   3.550   6.764   2.738  0.1945 -0.3811  0.5846
   13SAPS   C26 1642   3.364   6.797   2.821 -0.1149 -0.0002 -0.0336
   13SAPS   H6R 1643   3.402   6.828   2.919 -0.8687 -0.1082  0.3005
   13SAPS   C27 1644   3.213   6.817   2.815 -0.8289 -0.2076 -0.5157
   13SAPS   H7R 1645   3.163   6.724   2.849  0.6346 -1.2792 -1.1363
   13SAPS   H7S 1646   3.169   6.822   2.713  0.8613 -1.9182 -1.4062
   13SAPS   C28 1647   3.165   6.937   2.896 -0.1822 -0.5785  0.8806
   13SAPS   H8R 1648   3.139   7.026   2.837  1.4187  0.4615  1.6745
   13SAPS   C29 1649   3.145   6.934   3.032 -0.3000 -0.0745  0.4596
   13SAPS   H9R 1650   3.137   7.031   3.085  1.5833  1.4092 -1.7742
   13SAPS  C210 1651   3.175   6.815   3.112 -0.2381 -0.4866  0.2749
   13SAPS  H10R 1652   3.285   6.799   3.113  0.0005  1.0161  1.0116
   13SAPS  H10S 1653   3.137   6.718   3.074 -3.7308  0.8232  0.0650
   13SAPS  C211 1654   3.133   6.819   3.255  0.5944 -0.9520  0.9911
   13SAPS  H11R 1655   3.026   6.797   3.271  0.2258 -0.0075 -0.0434
   13SAPS  C212 1656   3.206   6.833   3.375  1.1684  0.0438  0.7339
   13SAPS  H12R 1657   3.147   6.862   3.463  1.2912 -1.0923  1.2069
   13SAPS  C213 1658   3.357   6.845   3.384  0.3093 -0.0009  0.1147
   13SAPS  H13R 1659   3.392   6.943   3.347  0.4523 -0.1700 -0.2043
   13SAPS  H13S 1660   3.404   6.774   3.312  1.2649  1.5347 -0.8227
   13SAPS  C214 1661   3.407   6.823   3.526  0.0101 -0.5965 -0.1196
   13SAPS  H14R 1662   3.372   6.887   3.608  0.8190  0.8657 -0.8587
   13SAPS  C215 1663   3.486   6.726   3.565 -0.2460 -0.1887  0.1690
   13SAPS  H15R 1664   3.526   6.730   3.667  1.2723 -1.2710 -0.3655
   13SAPS  C216 1665   3.542   6.624   3.470  0.8617  0.0679  0.4990
   13SAPS  H16R 1666   3.469   6.579   3.399 -1.4406 -0.1993  2.8972
   13SAPS  H16S 1667   3.573   6.536   3.530 -0.6157 -0.1874  0.9332
   13SAPS  C217 1668   3.669   6.673   3.395 -0.0352  0.1574 -0.4734
   13SAPS  H17R 1669   3.742   6.692   3.476  0.3243 -0.0237 -0.7536
   13SAPS  H17S 1670   3.640   6.759   3.331  0.2791  0.6735  0.0693
   13SAPS  C218 1671   3.734   6.562   3.310 -0.2796 -0.4050 -0.0901
   13SAPS  H18R 1672   3.820   6.604   3.254 -1.2704  0.1649 -1.2215
   13SAPS  H18S 1673   3.672   6.522   3.228  0.0672  0.8670 -0.9894
   13SAPS  C219 1674   3.771   6.442   3.402  0.5562  0.4011  0.6578
   13SAPS  H19R 1675   3.683   6.374   3.407  2.1500 -2.1811 -2.2553
   13SAPS  H19S 1676   3.798   6.485   3.501  1.7322  0.3438  0.3703
   13SAPS  C220 1677   3.893   6.363   3.349 -0.5226 -0.1043 -0.0195
   13SAPS  H20R 1678   3.923   6.275   3.411  0.7853 -0.3929 -1.0208
   13SAPS  H20S 1679   3.981   6.430   3.342 -0.1742 -0.4013  1.2020
   13SAPS  H20T 1680   3.865   6.338   3.245 -0.8020  1.1805 -0.2691
   13SAPS   C33 1681   4.284   6.234   2.945 -0.7601  0.1277  0.6297
   13SAPS   H3X 1682   4.351   6.301   2.887  0.2114 -2.5116 -1.4798
   13SAPS   H3Y 1683   4.328   6.140   2.906 -0.2439  0.1637  1.1064
   13SAPS   C34 1684   4.288   6.244   3.093  0.5970 -0.1593 -0.7472
   13SAPS   H4X 1685   4.226   6.330   3.129  0.7120  0.1738 -1.3424
   13SAPS   H4Y 1686   4.387   6.243   3.142  0.4647  0.3156 -0.4604
   13SAPS   C35 1687   4.218   6.118   3.162  0.0593 -0.7019  0.9651
   13SAPS   H5X 1688   4.258   6.023   3.120  0.2487 -0.8435  1.4602
   13SAPS   H5Y 1689   4.110   6.109   3.137  0.4664 -0.5397 -0.9845
   13SAPS   C36 1690   4.234   6.109   3.311 -0.1329 -0.2020  0.0506
   13SAPS   H6X 1691   4.191   6.193   3.369  1.9240  1.5301 -0.8112
   13SAPS   H6Y 1692   4.342   6.113   3.338 -0.3601 -0.4478  1.0238
   13SAPS   C37 1693   4.169   5.981   3.373  0.4541  0.2247  0.2712
   13SAPS   H7X 1694   4.203   5.889   3.322 -0.5838 -1.3024  2.2204
   13SAPS   H7Y 1695   4.058   5.989   3.365  0.5398  3.1268  0.8854
   13SAPS   C38 1696   4.175   5.954   3.524  0.4543 -0.0150 -0.6102
   13SAPS   H8X 1697   4.278   5.940   3.563  0.0099  2.1172  1.6398
   13SAPS   H8Y 1698   4.097   5.878   3.547 -2.0806  1.7559 -2.6841
   13SAPS   C39 1699   4.128   6.080   3.599  0.7425  0.3616  0.1981
   13SAPS   H9X 1700   4.049   6.131   3.541 -0.0754 -1.2138 -0.1286
   13SAPS   H9Y 1701   4.213   6.152   3.611 -0.3604  1.5267  1.3590
   13SAPS  C310 1702   4.078   6.050   3.739  0.5336  0.6462  0.2756
   13SAPS  H10X 1703   4.151   5.981   3.787  0.8992  1.2848  0.6386
   13SAPS  H10Y 1704   3.989   5.982   3.735  0.9890  0.0982 -1.5430
   13SAPS  C311 1705   4.047   6.170   3.821 -0.3568 -0.5914 -0.8741
   13SAPS  H11X 1706   3.976   6.249   3.789  0.2728 -1.2645 -4.3163
   13SAPS  H11Y 1707   4.145   6.223   3.814  0.9036 -2.6255  0.4294
   13SAPS  C312 1708   4.032   6.130   3.971  0.3135  0.3403 -0.6593
   13SAPS  H12X 1709   4.102   6.049   4.002 -0.6310 -0.7660 -1.3189
   13SAPS  H12Y 1710   3.931   6.083   3.972  0.7057 -0.5302 -0.1453
   13SAPS  C313 1711   4.013   6.255   4.060  0.0195 -0.2878 -0.1668
   13SAPS  H13X 1712   3.921   6.314   4.038  0.9950  1.1466 -0.5285
   13SAPS  H13Y 1713   4.098   6.320   4.028  0.3877 -1.4397 -1.6448
   13SAPS  C314 1714   4.008   6.209   4.206  0.2738 -0.6449  0.5223
   13SAPS  H14X 1715   4.043   6.105   4.224 -2.4289 -1.3598  2.4212
   13SAPS  H14Y 1716   3.897   6.204   4.212  0.2824 -3.2646 -0.2673
   13SAPS  C315 1717   4.065   6.316   4.303  0.0326  0.6962  0.4582
   13SAPS  H15X 1718   4.171   6.337   4.279  0.3915 -1.3852  0.0875
   13SAPS  H15Y 1719   4.071   6.270   4.404  0.7248 -2.1685 -0.7790
   13SAPS  C316 1720   3.967   6.436   4.312  0.2652  0.0994  0.2034
   13SAPS  H16X 1721   3.864   6.401   4.334  0.6967 -0.5932  1.1856
   13SAPS  H16Y 1722   3.963   6.488   4.214  0.9791  1.3489  0.8057
   13SAPS  C317 1723   3.990   6.536   4.422  0.2452 -0.1546  0.1540
   13SAPS  H17X 1724   4.019   6.492   4.520 -1.9037 -0.9091  0.5139
   13SAPS  H17Y 1725   3.905   6.604   4.443  0.7709  1.3109 -2.1488
   13SAPS  C318 1726   4.107   6.614   4.389  0.3743  0.1747  0.0590
   13SAPS  H18X 1727   4.083   6.674   4.299 -0.2989 -0.9956 -0.5659
   13SAPS  H18Y 1728   4.190   6.545   4.364  0.0392  0.4482 -1.9999
   13SAPS  H18Z 1729   4.141   6.694   4.459 -1.7691  2.1164 -0.9776
   14SAPS     N 1730   1.818   6.413   2.314 -0.0593 -0.3323  0.0944
   14SAPS   HN1 1731   1.778   6.336   2.257 -0.0997  1.7208 -2.8932
   14SAPS   HN2 1732   1.846   6.385   2.410 -2.5633 -0.0766  0.9605
   14SAPS   HN3 1733   1.734   6.472   2.329  0.7365  0.8694 -0.0104
   14SAPS   C12 1734   1.927   6.484   2.247 -0.3721  0.6997  0.5640
   14SAPS  H12A 1735   2.021   6.436   2.268 -0.0552  1.4138  0.7898
   14SAPS   C13 1736   1.924   6.491   2.088  0.2806  0.8120  0.5722
   14SAPS  O13A 1737   1.815   6.468   2.031 -0.2456 -0.0867  0.2209
   14SAPS  O13B 1738   2.029   6.523   2.028 -0.9411  0.2190  0.1886
   14SAPS   C11 1739   1.940   6.630   2.300  0.1402 -0.1173  0.5350
   14SAPS  H11A 1740   1.838   6.674   2.312  0.5281  0.6488  1.0880
   14SAPS  H11B 1741   2.007   6.684   2.230  1.8473 -2.2257  0.4420
   14SAPS     P 1742   2.017   6.748   2.514  0.5039 -0.4954  0.2313
   14SAPS   O13 1743   2.094   6.692   2.628 -0.4024  0.5089  0.6264
   14SAPS   O14 1744   2.074   6.862   2.435  0.2868 -0.2993 -0.0788
   14SAPS   O12 1745   1.999   6.628   2.428 -0.0336 -0.3842 -0.0320
   14SAPS   O11 1746   1.871   6.775   2.554 -0.3567  0.1043 -0.4040
   14SAPS    C1 1747   1.780   6.676   2.605 -0.2018 -0.0215  0.4013
   14SAPS    HA 1748   1.703   6.651   2.530 -1.5117  3.0534  0.5725
   14SAPS    HB 1749   1.831   6.581   2.630 -0.2471  0.0482  0.7725
   14SAPS    C2 1750   1.719   6.722   2.743 -0.3703  0.3247  0.2531
   14SAPS    HS 1751   1.658   6.638   2.784 -1.1662  0.6162 -0.3010
   14SAPS   O21 1752   1.629   6.829   2.719  0.1465 -0.0039  0.3480
   14SAPS   C21 1753   1.540   6.844   2.814 -0.0613 -0.1504  0.1972
   14SAPS   O22 1754   1.534   6.779   2.918 -0.0577  0.1293  0.0149
   14SAPS   C22 1755   1.453   6.968   2.778  0.0991 -0.0506  0.2717
   14SAPS   H2R 1756   1.453   6.965   2.667  0.2857  2.2525  0.1537
   14SAPS   H2S 1757   1.352   6.955   2.822 -0.4865  3.1315  0.1320
   14SAPS    C3 1758   1.839   6.765   2.834 -0.3650 -0.2209 -0.2890
   14SAPS    HX 1759   1.888   6.856   2.793  0.6416 -0.4303  0.4446
   14SAPS    HY 1760   1.921   6.692   2.820  1.6083  1.8967 -0.3715
   14SAPS   O31 1761   1.805   6.787   2.975 -0.1661  0.2491 -0.5397
   14SAPS   C31 1762   1.818   6.677   3.047 -0.7948  0.1521 -0.8152
   14SAPS   O32 1763   1.866   6.574   3.005 -0.0765 -0.3882  0.7649
   14SAPS   C32 1764   1.770   6.713   3.187  0.2605 -0.5433  0.0283
   14SAPS   H2X 1765   1.659   6.718   3.189  0.1989 -1.5942 -0.1780
   14SAPS   H2Y 1766   1.817   6.810   3.213 -2.0917  1.2073 -1.8181
   14SAPS   C23 1767   1.513   7.111   2.801 -0.8762  0.2452 -1.0203
   14SAPS   H3R 1768   1.432   7.184   2.779  0.6637  1.4735 -2.8968
   14SAPS   H3S 1769   1.598   7.138   2.735  0.4298  0.6743  0.7324
   14SAPS   C24 1770   1.563   7.142   2.949  0.6072 -0.5807  0.4839
   14SAPS   H4R 1771   1.494   7.095   3.022  0.8308 -2.7767 -0.6317
   14SAPS   H4S 1772   1.559   7.252   2.966 -1.4775 -0.5030 -0.1551
   14SAPS   C25 1773   1.699   7.097   2.982 -0.5718 -0.1089 -0.7230
   14SAPS   H5R 1774   1.770   7.092   2.898  0.2694 -2.2780  0.0390
   14SAPS   C26 1775   1.746   7.095   3.109  0.2207 -0.2805 -0.1553
   14SAPS   H6R 1776   1.849   7.056   3.117  0.3658  0.4166  2.0232
   14SAPS   C27 1777   1.666   7.105   3.229  0.1391 -0.0239  0.3142
   14SAPS   H7R 1778   1.654   6.997   3.252  1.0715 -0.4103 -0.9063
   14SAPS   H7S 1779   1.563   7.142   3.211  0.8704  1.1112 -1.8870
   14SAPS   C28 1780   1.727   7.186   3.345 -0.0711 -0.2034  0.2256
   14SAPS   H8R 1781   1.802   7.260   3.312 -1.2783  0.9649  0.0364
   14SAPS   C29 1782   1.687   7.173   3.472  0.4791  0.0180  0.0253
   14SAPS   H9R 1783   1.732   7.232   3.554 -0.8606 -0.0796  0.8762
   14SAPS  C210 1784   1.594   7.068   3.522 -0.1625 -0.2057  0.2361
   14SAPS  H10R 1785   1.630   6.963   3.526 -1.7625 -0.7509  1.3201
   14SAPS  H10S 1786   1.523   7.043   3.441  0.8523 -1.6858 -0.2360
   14SAPS  C211 1787   1.511   7.096   3.649 -0.1632 -0.2564 -0.8030
   14SAPS  H11R 1788   1.474   7.200   3.655  0.9937  0.0960  0.7953
   14SAPS  C212 1789   1.498   7.023   3.765 -0.4321 -0.2375 -0.6866
   14SAPS  H12R 1790   1.423   7.056   3.838 -1.1846 -1.8045 -0.7219
   14SAPS  C213 1791   1.558   6.889   3.795  0.8838  0.1936  0.5347
   14SAPS  H13R 1792   1.571   6.880   3.905  1.7058  2.8663  0.7224
   14SAPS  H13S 1793   1.662   6.865   3.766 -0.4978 -2.9560 -2.5670
   14SAPS  C214 1794   1.463   6.789   3.737 -0.1287  0.0391  0.1434
   14SAPS  H14R 1795   1.460   6.806   3.629  1.9576 -0.5551 -0.0621
   14SAPS  C215 1796   1.390   6.696   3.803  0.4172  0.4851 -0.6237
   14SAPS  H15R 1797   1.319   6.632   3.748  0.8929  0.4670 -1.2291
   14SAPS  C216 1798   1.382   6.676   3.960 -0.2456  0.3337  0.0958
   14SAPS  H16R 1799   1.484   6.649   3.995  0.3552  2.2843 -0.0029
   14SAPS  H16S 1800   1.313   6.594   3.987  0.2124 -0.1691 -0.2267
   14SAPS  C217 1801   1.328   6.788   4.054 -0.0544 -0.7309 -0.2705
   14SAPS  H17R 1802   1.224   6.807   4.019  0.2356 -0.7258 -1.1544
   14SAPS  H17S 1803   1.385   6.881   4.033  3.3962 -2.3027  1.2259
   14SAPS  C218 1804   1.338   6.757   4.198 -0.4177  0.4045  0.6703
   14SAPS  H18R 1805   1.445   6.736   4.217 -0.4432  1.4008  2.0904
   14SAPS  H18S 1806   1.280   6.667   4.228  0.9479 -1.2541 -1.4159
   14SAPS  C219 1807   1.301   6.873   4.294 -0.1802  0.4910  0.2200
   14SAPS  H19R 1808   1.290   6.827   4.394 -1.6908 -1.7929 -0.9183
   14SAPS  H19S 1809   1.204   6.912   4.258 -1.1288 -2.2663 -0.3824
   14SAPS  C220 1810   1.397   6.995   4.301  0.0831  0.2833 -0.1401
   14SAPS  H20R 1811   1.490   6.960   4.351  0.6864 -0.3253 -1.6151
   14SAPS  H20S 1812   1.355   7.088   4.345  1.5742  0.2129  1.5646
   14SAPS  H20T 1813   1.435   7.018   4.199 -0.6419 -3.1240 -1.3056
   14SAPS   C33 1814   1.822   6.615   3.296 -0.2165 -0.2024  0.1925
   14SAPS   H3X 1815   1.929   6.602   3.267 -0.7584 -2.7984 -0.9394
   14SAPS   H3Y 1816   1.782   6.513   3.279  3.6933 -1.7071 -1.3475
   14SAPS   C34 1817   1.800   6.655   3.446 -0.4622 -0.3633  0.3752
   14SAPS   H4X 1818   1.692   6.673   3.464 -0.1566  1.4802  0.5669
   14SAPS   H4Y 1819   1.846   6.755   3.462 -1.6790  0.3699 -0.5237
   14SAPS   C35 1820   1.864   6.554   3.540 -0.9531 -0.0512 -0.6404
   14SAPS   H5X 1821   1.973   6.562   3.520 -0.9206 -1.1075 -0.9594
   14SAPS   H5Y 1822   1.834   6.451   3.510 -2.0659  0.7658 -2.5805
   14SAPS   C36 1823   1.843   6.582   3.691  0.0297 -0.1193  0.5737
   14SAPS   H6X 1824   1.832   6.484   3.742  0.9530 -0.9839 -0.8125
   14SAPS   H6Y 1825   1.746   6.635   3.703  0.4401  1.1210 -1.0880
   14SAPS   C37 1826   1.959   6.658   3.750  0.3919 -0.2804  0.8708
   14SAPS   H7X 1827   1.969   6.759   3.704  2.4733 -0.1597  1.4785
   14SAPS   H7Y 1828   2.047   6.600   3.717 -0.3882 -0.5408 -0.8625
   14SAPS   C38 1829   1.945   6.675   3.900 -0.0499 -0.3482 -0.1831
   14SAPS   H8X 1830   1.844   6.718   3.913  0.6857  1.7114 -0.9066
   14SAPS   H8Y 1831   2.018   6.750   3.939  0.0020 -1.0103  1.0688
   14SAPS   C39 1832   1.959   6.553   3.988 -0.4223  0.3192 -1.2129
   14SAPS   H9X 1833   2.050   6.497   3.958 -0.2639 -0.4501  0.5882
   14SAPS   H9Y 1834   1.877   6.480   3.969 -0.6567  0.2439  0.0210
   14SAPS  C310 1835   1.971   6.574   4.140  0.4439 -0.3343 -0.0050
   14SAPS  H10X 1836   2.069   6.624   4.150 -0.5255  1.4275  1.3764
   14SAPS  H10Y 1837   1.976   6.473   4.186 -0.4151  0.3894  1.7836
   14SAPS  C311 1838   1.861   6.667   4.207  0.8994 -0.1119  0.3111
   14SAPS  H11X 1839   1.760   6.654   4.164  0.9470  0.2709  0.0733
   14SAPS  H11Y 1840   1.883   6.775   4.187 -1.1758  0.4249  0.7197
   14SAPS  C312 1841   1.863   6.656   4.361 -0.1764  0.9492  0.2045
   14SAPS  H12X 1842   1.971   6.666   4.387  0.4727 -1.4683 -1.2700
   14SAPS  H12Y 1843   1.821   6.559   4.394  0.8811  1.1144  2.1733
   14SAPS  C313 1844   1.795   6.775   4.433  0.0136  0.2378 -0.3557
   14SAPS  H13X 1845   1.693   6.771   4.389  0.6174 -0.6132 -1.7314
   14SAPS  H13Y 1846   1.837   6.872   4.397 -0.4840  0.3320 -0.6982
   14SAPS  C314 1847   1.788   6.772   4.582 -0.6617  0.7108  0.4071
   14SAPS  H14X 1848   1.876   6.716   4.620 -1.9686 -1.2071  0.7506
   14SAPS  H14Y 1849   1.697   6.718   4.618 -0.6422  1.9451  2.4873
   14SAPS  C315 1850   1.776   6.908   4.658  0.1783 -0.2463  0.5505
   14SAPS  H15X 1851   1.864   6.958   4.612 -0.2218  0.8782  0.9853
   14SAPS  H15Y 1852   1.781   6.902   4.769  3.2691  0.2419  0.5101
   14SAPS  C316 1853   1.657   6.986   4.604 -0.2472  0.3869  0.2446
   14SAPS  H16X 1854   1.666   7.009   4.496 -0.1175  2.5858  0.6822
   14SAPS  H16Y 1855   1.655   7.085   4.654 -0.7762  1.0152 -1.0043
   14SAPS  C317 1856   1.516   6.930   4.630  0.2761 -0.3046  0.0859
   14SAPS  H17X 1857   1.493   6.831   4.586  0.2289 -1.6545  2.8757
   14SAPS  H17Y 1858   1.450   7.001   4.577  0.6522  1.0260  1.3450
   14SAPS  C318 1859   1.478   6.927   4.772 -0.4901 -0.2950  0.1747
   14SAPS  H18X 1860   1.369   6.916   4.793 -0.3590 -0.3466  0.8534
   14SAPS  H18Y 1861   1.510   7.019   4.826  0.6778 -0.2978 -0.4707
   14SAPS  H18Z 1862   1.527   6.838   4.817  3.3012 -1.2385 -4.8890
   15SAPS     N 1863   1.347   1.415   2.059  0.5725 -0.4218 -0.0784
   15SAPS   HN1 1864   1.412   1.495   2.045  1.2605 -0.5066  2.1432
   15SAPS   HN2 1865   1.392   1.328   2.094  0.5966 -0.3492  0.0741
   15SAPS   HN3 1866   1.296   1.403   1.970  0.2267 -0.0911  0.0760
   15SAPS   C12 1867   1.245   1.457   2.157  0.5442  0.6738  0.9876
   15SAPS  H12A 1868   1.297   1.461   2.252 -0.1118 -1.9640  1.5371
   15SAPS   C13 1869   1.174   1.587   2.133 -0.6876  0.5095  0.6568
   15SAPS  O13A 1870   1.206   1.649   2.029 -0.5351  0.3745  0.0578
   15SAPS  O13B 1871   1.069   1.613   2.203 -0.4099 -0.3160 -0.1994
   15SAPS   C11 1872   1.130   1.336   2.172 -0.5401 -0.8458 -0.1483
   15SAPS  H11A 1873   1.074   1.340   2.076 -2.1469 -1.5757  0.7313
   15SAPS  H11B 1874   1.072   1.363   2.262  0.5477 -0.1038  0.3600
   15SAPS     P 1875   1.086   1.082   2.207  0.0302  0.1599 -0.0752
   15SAPS   O13 1876   0.964   1.112   2.131 -0.2446  0.0962 -0.2877
   15SAPS   O14 1877   1.163   0.959   2.183  0.3334  0.1842  0.0519
   15SAPS   O12 1878   1.186   1.202   2.183 -0.2750 -0.7081  0.3189
   15SAPS   O11 1879   1.059   1.101   2.368  0.3188  0.5755  0.0111
   15SAPS    C1 1880   1.152   1.124   2.464  0.0966 -0.2523  0.1575
   15SAPS    HA 1881   1.253   1.155   2.430 -0.7860  1.9713 -0.6847
   15SAPS    HB 1882   1.121   1.217   2.517 -2.8694 -1.3955  0.5783
   15SAPS    C2 1883   1.145   1.017   2.572 -0.4078 -0.4745 -0.3829
   15SAPS    HS 1884   1.200   0.928   2.534  1.6494  0.6036 -0.1035
   15SAPS   O21 1885   1.012   0.986   2.618  0.0070  0.4932  0.4621
   15SAPS   C21 1886   1.013   0.870   2.675  0.0859  0.0547 -0.2793
   15SAPS   O22 1887   1.103   0.788   2.677  0.3347  0.4057  0.0026
   15SAPS   C22 1888   0.875   0.851   2.739  0.4786  0.5565 -0.0805
   15SAPS   H2R 1889   0.829   0.948   2.768 -0.2607 -0.1308  1.1373
   15SAPS   H2S 1890   0.807   0.806   2.664 -1.0608  0.5509  1.2690
   15SAPS    C3 1891   1.232   1.075   2.694 -0.0749  0.0401  0.2242
   15SAPS    HX 1892   1.182   1.167   2.729  0.4005  0.2238  0.4286
   15SAPS    HY 1893   1.329   1.106   2.651 -0.6881  0.9169 -0.5820
   15SAPS   O31 1894   1.245   0.986   2.811  0.6557 -0.1288  0.0591
   15SAPS   C31 1895   1.354   0.911   2.809 -0.1841 -0.4037  0.6792
   15SAPS   O32 1896   1.438   0.922   2.720  0.0966  0.0311 -0.8678
   15SAPS   C32 1897   1.357   0.807   2.918  0.6675 -0.0257 -0.9912
   15SAPS   H2X 1898   1.270   0.740   2.900  0.1996  0.5586 -0.9218
   15SAPS   H2Y 1899   1.336   0.856   3.016  1.9730 -0.1694 -0.6208
   15SAPS   C23 1900   0.870   0.740   2.851  0.0721 -0.2851 -0.3127
   15SAPS   H3R 1901   0.903   0.782   2.949 -1.4338  2.5426 -0.9060
   15SAPS   H3S 1902   0.933   0.653   2.823  1.2021  0.4702 -0.1473
   15SAPS   C24 1903   0.732   0.678   2.881  0.6461  0.4047  0.2105
   15SAPS   H4R 1904   0.749   0.585   2.939  0.0044 -2.4174 -3.7160
   15SAPS   H4S 1905   0.672   0.654   2.790  1.6347  0.1985 -0.4063
   15SAPS   C25 1906   0.655   0.783   2.950 -0.1878 -0.4697 -0.5595
   15SAPS   H5R 1907   0.646   0.879   2.898 -0.2861  0.6979  1.5192
   15SAPS   C26 1908   0.616   0.776   3.081  0.6870  0.6854  0.0063
   15SAPS   H6R 1909   0.562   0.865   3.118 -0.0769  0.6190 -0.9159
   15SAPS   C27 1910   0.620   0.659   3.177 -0.1185  0.4192 -0.4590
   15SAPS   H7R 1911   0.724   0.619   3.185  0.0423  0.9413  0.1640
   15SAPS   H7S 1912   0.551   0.580   3.143  0.3898  0.2019 -1.0008
   15SAPS   C28 1913   0.566   0.700   3.315 -0.3397 -0.1571 -0.3894
   15SAPS   H8R 1914   0.569   0.809   3.335 -1.5923  0.0246 -1.1142
   15SAPS   C29 1915   0.529   0.623   3.424 -0.2688  0.6412 -0.4539
   15SAPS   H9R 1916   0.490   0.675   3.513  0.1181 -0.4169  0.3469
   15SAPS  C210 1917   0.523   0.472   3.435  0.1978 -0.4571  0.2765
   15SAPS  H10R 1918   0.452   0.443   3.355  0.9768 -0.2803 -0.4990
   15SAPS  H10S 1919   0.488   0.446   3.536 -0.6689  0.1355  0.1359
   15SAPS  C211 1920   0.655   0.408   3.400 -0.0496  0.0515  0.1535
   15SAPS  H11R 1921   0.725   0.475   3.349 -0.1451  0.2089  0.2290
   15SAPS  C212 1922   0.682   0.280   3.422  0.0770  0.2334  0.5114
   15SAPS  H12R 1923   0.778   0.233   3.393  0.0181  0.5519 -0.2469
   15SAPS  C213 1924   0.580   0.179   3.482  0.2938  0.2085  0.0163
   15SAPS  H13R 1925   0.561   0.084   3.427  0.6327  0.2785 -0.2211
   15SAPS  H13S 1926   0.484   0.236   3.486  1.1877  1.9252 -1.5329
   15SAPS  C214 1927   0.618   0.145   3.625 -0.0061  0.2884 -0.3915
   15SAPS  H14R 1928   0.681   0.218   3.679  1.2952 -2.1158  1.5802
   15SAPS  C215 1929   0.593   0.028   3.695  0.0830  0.6377  0.6690
   15SAPS  H15R 1930   0.640   0.017   3.794  1.3428 -0.8950 -0.0480
   15SAPS  C216 1931   0.528  -0.099   3.633 -0.0949 -0.4257 -0.1562
   15SAPS  H16R 1932   0.611  -0.145   3.576 -0.2740 -1.6968  0.5743
   15SAPS  H16S 1933   0.466  -0.077   3.544 -0.1194  1.2555  0.2448
   15SAPS  C217 1934   0.441  -0.191   3.718  0.3666  0.3923 -0.7253
   15SAPS  H17R 1935   0.503  -0.223   3.804 -0.6697  2.1138  0.7261
   15SAPS  H17S 1936   0.406  -0.277   3.657 -0.3062 -0.8295  1.2670
   15SAPS  C218 1937   0.314  -0.124   3.782  0.1346  0.5682 -0.1127
   15SAPS  H18R 1938   0.245  -0.086   3.703 -0.6019 -0.1393  0.1753
   15SAPS  H18S 1939   0.353  -0.037   3.839  1.8957 -0.7119  0.7035
   15SAPS  C219 1940   0.244  -0.228   3.857 -0.0132 -0.1385 -0.2266
   15SAPS  H19R 1941   0.308  -0.261   3.942 -0.6376 -0.7985 -0.0033
   15SAPS  H19S 1942   0.232  -0.321   3.797  0.8482 -0.1231 -0.4338
   15SAPS  C220 1943   0.109  -0.194   3.923  0.1425 -0.4880 -0.0948
   15SAPS  H20R 1944   0.107  -0.105   3.989 -2.0793  0.5833 -1.4844
   15SAPS  H20S 1945   0.078  -0.282   3.983  0.8740 -1.2800 -0.8575
   15SAPS  H20T 1946   0.031  -0.182   3.845 -2.1713 -1.3500  1.9344
   15SAPS   C33 1947   1.487   0.726   2.921  0.5052  0.8916 -0.0377
   15SAPS   H3X 1948   1.574   0.784   2.883 -1.3034  1.8955 -2.9954
   15SAPS   H3Y 1949   1.474   0.650   2.842  0.5602  1.4336 -0.5754
   15SAPS   C34 1950   1.509   0.649   3.045  0.6364  0.3044 -0.3066
   15SAPS   H4X 1951   1.601   0.587   3.042  1.0000  0.8430 -2.5159
   15SAPS   H4Y 1952   1.433   0.573   3.073  0.8312  0.1507 -0.1973
   15SAPS   C35 1953   1.550   0.749   3.156  0.6418 -0.2729 -0.1776
   15SAPS   H5X 1954   1.465   0.816   3.178  0.9171  1.8261 -4.4227
   15SAPS   H5Y 1955   1.617   0.825   3.111 -0.2368 -0.7144 -2.3494
   15SAPS   C36 1956   1.596   0.687   3.289 -0.4107 -0.0942  0.1643
   15SAPS   H6X 1957   1.692   0.632   3.272  1.0255  2.6164 -1.1545
   15SAPS   H6Y 1958   1.518   0.613   3.316 -1.3104  0.7716 -0.0489
   15SAPS   C37 1959   1.617   0.797   3.394 -0.5491 -0.9212 -0.0428
   15SAPS   H7X 1960   1.527   0.860   3.406  0.6380  0.7007  0.6120
   15SAPS   H7Y 1961   1.695   0.871   3.363 -1.4386  0.2670  0.4911
   15SAPS   C38 1962   1.662   0.729   3.515 -0.2986 -0.6604  0.2797
   15SAPS   H8X 1963   1.747   0.659   3.498  0.7004  0.3320  1.0379
   15SAPS   H8Y 1964   1.577   0.666   3.550  0.0948 -1.8200 -0.7679
   15SAPS   C39 1965   1.709   0.840   3.615 -0.7772  0.1654  1.4464
   15SAPS   H9X 1966   1.624   0.907   3.638 -0.6350  1.1925 -0.7239
   15SAPS   H9Y 1967   1.784   0.908   3.568 -0.2421 -0.5877  1.1894
   15SAPS  C310 1968   1.781   0.774   3.741  0.3431  0.1879 -0.0187
   15SAPS  H10X 1969   1.814   0.860   3.804  1.0930 -0.2374  0.1659
   15SAPS  H10Y 1970   1.857   0.699   3.714 -0.3307  0.2839 -2.4708
   15SAPS  C311 1971   1.678   0.698   3.823  0.1603  0.9621 -0.1842
   15SAPS  H11X 1972   1.642   0.630   3.743  1.6237  1.1242 -1.0257
   15SAPS  H11Y 1973   1.597   0.765   3.858 -0.1057 -0.0124  1.1537
   15SAPS  C312 1974   1.740   0.626   3.949  0.6395 -0.1952  0.1461
   15SAPS  H12X 1975   1.810   0.548   3.912  0.1075 -0.2623 -0.7629
   15SAPS  H12Y 1976   1.660   0.578   4.008 -0.6504 -0.3860 -1.6528
   15SAPS  C313 1977   1.830   0.722   4.033  0.3768 -0.0133  0.0883
   15SAPS  H13X 1978   1.757   0.788   4.085 -0.9014 -0.3952 -1.1808
   15SAPS  H13Y 1979   1.902   0.790   3.983  1.6795 -1.5188 -0.1620
   15SAPS  C314 1980   1.915   0.647   4.141  0.8900 -0.3433 -0.0910
   15SAPS  H14X 1981   2.000   0.603   4.084 -0.8902 -1.8006 -1.7633
   15SAPS  H14Y 1982   1.842   0.576   4.185 -4.2792  3.6857 -1.1512
   15SAPS  C315 1983   1.978   0.740   4.253  0.2404  0.4948 -0.2278
   15SAPS  H15X 1984   2.049   0.688   4.320  1.2825 -0.4236 -1.9598
   15SAPS  H15Y 1985   1.894   0.780   4.314 -0.8076  1.6124 -2.2758
   15SAPS  C316 1986   2.037   0.872   4.205 -0.1726  0.0680 -0.2072
   15SAPS  H16X 1987   1.966   0.940   4.153 -0.2948  0.6994  0.7702
   15SAPS  H16Y 1988   2.115   0.850   4.129 -0.8829 -3.2465 -0.1170
   15SAPS  C317 1989   2.102   0.963   4.313  0.0675 -0.9895  0.1196
   15SAPS  H17X 1990   2.189   0.908   4.354  2.4980  1.2547 -1.6102
   15SAPS  H17Y 1991   2.027   0.998   4.386 -1.0760  1.3311 -2.0034
   15SAPS  C318 1992   2.154   1.088   4.239  0.4353  0.4096 -0.3991
   15SAPS  H18X 1993   2.203   1.160   4.308  0.6904 -0.8139  0.7279
   15SAPS  H18Y 1994   2.074   1.149   4.192 -1.0581 -0.7210  0.6052
   15SAPS  H18Z 1995   2.225   1.065   4.157  1.4088  2.8440 -0.3464
   16SAPS     N 1996   1.871   1.518   2.424 -0.6374  0.6717  0.0992
   16SAPS   HN1 1997   1.794   1.509   2.493 -1.0021  0.9575 -0.2610
   16SAPS   HN2 1998   1.958   1.538   2.476 -0.3320  0.0295 -0.1460
   16SAPS   HN3 1999   1.851   1.603   2.367 -2.5622  0.1561 -0.0664
   16SAPS   C12 2000   1.880   1.401   2.334 -0.5203  0.2234  0.0043
   16SAPS  H12A 2001   1.885   1.317   2.402  0.3058 -0.5502 -0.9791
   16SAPS   C13 2002   1.755   1.374   2.240 -0.0286 -0.0901  0.5584
   16SAPS  O13A 2003   1.657   1.457   2.229 -0.0218  0.2924 -0.3713
   16SAPS  O13B 2004   1.753   1.268   2.167  0.3061  0.1436 -0.0101
   16SAPS   C11 2005   2.011   1.413   2.253 -0.3031 -0.6217 -0.4776
   16SAPS  H11A 2006   1.994   1.504   2.190 -1.6788  1.5474  2.7655
   16SAPS  H11B 2007   2.008   1.325   2.185 -1.2874 -0.7246 -0.3092
   16SAPS     P 2008   2.268   1.464   2.298  0.2118  0.1872 -0.1895
   16SAPS   O13 2009   2.276   1.462   2.155  0.0901  0.5093  0.2824
   16SAPS   O14 2010   2.289   1.589   2.371  0.0677 -0.1407  0.9204
   16SAPS   O12 2011   2.125   1.408   2.330  0.3775 -0.2234  0.0942
   16SAPS   O11 2012   2.356   1.353   2.365  0.4404  0.4176 -0.2704
   16SAPS    C1 2013   2.304   1.226   2.419 -0.3039 -0.8455 -0.5136
   16SAPS    HA 2014   2.228   1.186   2.348 -0.1351 -0.8304 -0.7024
   16SAPS    HB 2015   2.390   1.156   2.413 -0.2909 -0.9279  0.4328
   16SAPS    C2 2016   2.262   1.242   2.569  0.0625  0.5333 -0.3630
   16SAPS    HS 2017   2.196   1.331   2.568  1.2663  1.5085  1.6205
   16SAPS   O21 2018   2.383   1.236   2.655  0.5564 -0.8873 -0.7039
   16SAPS   C21 2019   2.373   1.333   2.749 -0.1494 -0.1349  0.4070
   16SAPS   O22 2020   2.273   1.402   2.772 -0.1003  0.0616 -0.5942
   16SAPS   C22 2021   2.492   1.322   2.841 -0.2963 -0.2551  0.0796
   16SAPS   H2R 2022   2.582   1.306   2.777 -0.8089 -2.9764 -0.0757
   16SAPS   H2S 2023   2.505   1.417   2.896  3.3261  0.1233 -1.1618
   16SAPS    C3 2024   2.172   1.118   2.607  0.3992 -0.1661 -0.6518
   16SAPS    HX 2025   2.247   1.036   2.616  0.8101  0.1889 -0.7983
   16SAPS    HY 2026   2.103   1.094   2.523 -0.0191 -1.7465  0.1063
   16SAPS   O31 2027   2.106   1.135   2.733  0.2408 -0.0543 -0.1008
   16SAPS   C31 2028   1.994   1.212   2.733 -1.5648 -0.1135 -0.0217
   16SAPS   O32 2029   1.946   1.265   2.634  0.1623  0.1383  0.1037
   16SAPS   C32 2030   1.941   1.234   2.873  0.1829 -0.5910  0.4325
   16SAPS   H2X 2031   1.997   1.160   2.934  1.9411 -1.2644 -1.8579
   16SAPS   H2Y 2032   1.830   1.222   2.876  0.0110 -0.3447 -2.0525
   16SAPS   C23 2033   2.478   1.203   2.935  0.8642  0.4223 -0.5363
   16SAPS   H3R 2034   2.573   1.185   2.990  0.6753 -2.6901 -1.0343
   16SAPS   H3S 2035   2.452   1.116   2.870  1.7529 -0.7112  0.5771
   16SAPS   C24 2036   2.363   1.228   3.043 -0.8422 -0.5342 -0.4846
   16SAPS   H4R 2037   2.299   1.315   3.016  0.3522 -0.2123 -2.4060
   16SAPS   H4S 2038   2.428   1.265   3.125 -2.0567 -0.3768  0.4538
   16SAPS   C25 2039   2.278   1.112   3.071  0.1926  0.4647  0.3333
   16SAPS   H5R 2040   2.268   1.040   2.989  0.2737 -2.1806  2.4919
   16SAPS   C26 2041   2.236   1.083   3.197 -0.4817  0.0711 -0.5069
   16SAPS   H6R 2042   2.171   0.995   3.208  0.6186 -0.7629 -0.6048
   16SAPS   C27 2043   2.271   1.162   3.325 -0.1661  0.5104 -0.0716
   16SAPS   H7R 2044   2.311   1.264   3.309  1.5461 -0.3082 -1.2966
   16SAPS   H7S 2045   2.358   1.109   3.368  1.4005  1.2629 -2.1885
   16SAPS   C28 2046   2.158   1.171   3.415 -0.1172  0.5518 -0.6892
   16SAPS   H8R 2047   2.060   1.171   3.365 -0.7135 -0.1901  0.4407
   16SAPS   C29 2048   2.159   1.156   3.550  0.2356  0.8656 -0.3399
   16SAPS   H9R 2049   2.062   1.158   3.601 -0.1454 -1.1915 -0.8767
   16SAPS  C210 2050   2.284   1.147   3.634  0.3612 -0.1619  0.2476
   16SAPS  H10R 2051   2.297   1.250   3.672 -2.9949  0.9174 -1.1868
   16SAPS  H10S 2052   2.375   1.117   3.578  0.2821 -1.6488  0.8618
   16SAPS  C211 2053   2.274   1.046   3.749  0.2666 -0.2850  0.2773
   16SAPS  H11R 2054   2.342   0.961   3.736  0.7197  0.1566 -0.3166
   16SAPS  C212 2055   2.201   1.043   3.864  0.1093 -0.4467  0.1794
   16SAPS  H12R 2056   2.218   0.958   3.932  1.8211 -0.3197 -0.0516
   16SAPS  C213 2057   2.101   1.155   3.895 -0.1168 -0.0485 -0.2402
   16SAPS  H13R 2058   2.117   1.245   3.832 -1.2979 -1.6058 -2.9610
   16SAPS  H13S 2059   2.119   1.198   3.996 -0.3767 -0.4187 -0.0331
   16SAPS  C214 2060   1.967   1.092   3.877  0.5236  0.0625  0.3551
   16SAPS  H14R 2061   1.963   0.983   3.890  0.1421  0.0435  0.1113
   16SAPS  C215 2062   1.856   1.141   3.827 -0.8414 -0.5336  0.2286
   16SAPS  H15R 2063   1.765   1.079   3.831  0.3911 -2.5295 -0.8294
   16SAPS  C216 2064   1.812   1.281   3.789 -0.1877  0.1991 -0.6838
   16SAPS  H16R 2065   1.706   1.303   3.815  0.0357  2.0295 -1.1695
   16SAPS  H16S 2066   1.826   1.293   3.679  2.9391 -3.6735 -0.9406
   16SAPS  C217 2067   1.883   1.409   3.858  0.2031 -0.3145 -0.4160
   16SAPS  H17R 2068   1.863   1.504   3.804  0.3403  0.2474  0.4953
   16SAPS  H17S 2069   1.993   1.402   3.845  0.4762  1.9328  0.2886
   16SAPS  C218 2070   1.866   1.423   4.008 -0.3498  0.3953  0.4676
   16SAPS  H18R 2071   1.959   1.476   4.039 -0.3969 -0.3788  2.0737
   16SAPS  H18S 2072   1.876   1.318   4.044  1.2574  0.0431 -0.8726
   16SAPS  C219 2073   1.737   1.484   4.048  0.0520  0.1564  0.3133
   16SAPS  H19R 2074   1.724   1.510   4.155  0.9490  2.9431 -0.1798
   16SAPS  H19S 2075   1.653   1.413   4.026 -0.8369  1.0452  0.7789
   16SAPS  C220 2076   1.710   1.614   3.972  0.0098 -0.3394 -0.0043
   16SAPS  H20R 2077   1.616   1.664   4.005  0.7623  2.1271 -1.3988
   16SAPS  H20S 2078   1.692   1.598   3.864 -1.3383 -0.1804  0.1678
   16SAPS  H20T 2079   1.789   1.689   3.992  0.0922 -0.3147 -0.4186
   16SAPS   C33 2080   1.973   1.375   2.911  0.4109 -0.4565 -0.2646
   16SAPS   H3X 2081   1.909   1.457   2.872  0.2653 -0.5692 -0.2632
   16SAPS   H3Y 2082   2.080   1.399   2.895  0.1041  1.0539 -0.1871
   16SAPS   C34 2083   1.954   1.378   3.067 -0.8515 -0.5264  0.4977
   16SAPS   H4X 2084   2.018   1.303   3.118 -3.0986 -2.2458  0.9775
   16SAPS   H4Y 2085   1.847   1.353   3.082 -1.0931  0.2339  0.0830
   16SAPS   C35 2086   1.999   1.507   3.138 -0.7085  0.0468  0.0196
   16SAPS   H5X 2087   1.954   1.599   3.096 -2.0048 -0.6597 -0.1872
   16SAPS   H5Y 2088   2.104   1.521   3.104 -0.6666  1.2683  0.6008
   16SAPS   C36 2089   1.992   1.491   3.294 -0.2643  0.5358  0.6810
   16SAPS   H6X 2090   2.032   1.390   3.317  3.9933  1.8782  0.0203
   16SAPS   H6Y 2091   1.882   1.489   3.313 -0.6338  1.0997 -1.1194
   16SAPS   C37 2092   2.082   1.583   3.375  0.0656 -1.0592  0.1250
   16SAPS   H7X 2093   2.186   1.551   3.351  1.3932  1.2987  2.2615
   16SAPS   H7Y 2094   2.067   1.571   3.484 -0.2779  2.4128  0.5623
   16SAPS   C38 2095   2.058   1.726   3.339 -0.0059  0.0519  0.0369
   16SAPS   H8X 2096   2.073   1.731   3.229  0.4240  0.4716  0.1118
   16SAPS   H8Y 2097   2.144   1.780   3.382  1.8506 -3.2197  0.7161
   16SAPS   C39 2098   1.924   1.787   3.380  0.1523 -0.4481  0.2277
   16SAPS   H9X 2099   1.928   1.778   3.491  0.6897 -2.1525  0.1018
   16SAPS   H9Y 2100   1.848   1.717   3.340  0.1058  0.0201 -0.5321
   16SAPS  C310 2101   1.913   1.924   3.318  0.0696 -0.3980  0.2742
   16SAPS  H10X 2102   1.820   1.979   3.343 -0.4306 -0.8081 -0.6146
   16SAPS  H10Y 2103   1.900   1.925   3.208 -1.7571  1.0350  0.4562
   16SAPS  C311 2104   2.024   2.031   3.336 -0.0141  0.9457  0.0476
   16SAPS  H11X 2105   1.990   2.133   3.310  0.3921  0.8258 -1.0068
   16SAPS  H11Y 2106   2.113   2.009   3.272  0.6570  0.0017  1.2450
   16SAPS  C312 2107   2.060   2.047   3.487 -1.0009  0.7583 -0.8531
   16SAPS  H12X 2108   2.151   1.983   3.492 -2.6220 -1.4870  2.4144
   16SAPS  H12Y 2109   1.989   2.003   3.560 -0.7572 -0.8246 -1.5339
   16SAPS  C313 2110   2.110   2.184   3.528 -0.7817  0.1084 -0.6688
   16SAPS  H13X 2111   2.016   2.231   3.563 -0.3974 -0.2171  0.8928
   16SAPS  H13Y 2112   2.148   2.241   3.440  0.6565  0.5853  0.2188
   16SAPS  C314 2113   2.219   2.179   3.633 -0.0536 -0.4783 -0.1349
   16SAPS  H14X 2114   2.302   2.124   3.584 -1.2214 -0.6875 -1.9567
   16SAPS  H14Y 2115   2.195   2.134   3.732  1.0243  0.8977  0.8064
   16SAPS  C315 2116   2.273   2.323   3.658  0.4448  0.2417 -0.6143
   16SAPS  H15X 2117   2.248   2.390   3.572  2.9155  1.2869 -0.5896
   16SAPS  H15Y 2118   2.384   2.326   3.661  0.5202 -0.9278 -1.4965
   16SAPS  C316 2119   2.221   2.383   3.784  0.0577 -0.2342  1.0026
   16SAPS  H16X 2120   2.224   2.316   3.872  0.8861  0.2879  1.3833
   16SAPS  H16Y 2121   2.126   2.430   3.751  0.6428  0.0263 -0.3539
   16SAPS  C317 2122   2.323   2.493   3.830  0.2158 -0.3216 -0.2200
   16SAPS  H17X 2123   2.291   2.588   3.781 -3.0122  0.0699  2.2893
   16SAPS  H17Y 2124   2.424   2.465   3.794  0.1854 -0.3165 -0.3110
   16SAPS  C318 2125   2.320   2.519   3.979  0.1414 -0.2239 -0.6688
   16SAPS  H18X 2126   2.220   2.558   4.008 -0.1006 -0.5878 -1.0036
   16SAPS  H18Y 2127   2.387   2.603   4.007 -0.3997  0.0567 -0.1783
   16SAPS  H18Z 2128   2.344   2.436   4.050 -1.3391  0.1038  0.2755
   17SAPS     N 2129   6.235   3.221   2.393  0.5605  0.3955 -0.4542
   17SAPS   HN1 2130   6.208   3.140   2.452 -2.2825 -0.7171 -3.0780
   17SAPS   HN2 2131   6.338   3.213   2.379  0.9557  0.2018  2.0388
   17SAPS   HN3 2132   6.212   3.301   2.456  1.8297 -0.3300  1.0211
   17SAPS   C12 2133   6.157   3.234   2.262 -0.3048 -0.3193 -0.3920
   17SAPS  H12A 2134   6.222   3.298   2.203  0.7852  0.5029  1.5946
   17SAPS   C13 2135   6.129   3.100   2.185  0.6215 -0.3996  0.2075
   17SAPS  O13A 2136   6.166   2.990   2.222 -0.2550  0.1977  0.8509
   17SAPS  O13B 2137   6.059   3.113   2.075 -0.0332  0.5121  0.3967
   17SAPS   C11 2138   6.014   3.287   2.296 -0.3284 -0.9372 -0.0903
   17SAPS  H11A 2139   5.975   3.204   2.358 -0.5867 -0.5995  0.1980
   17SAPS  H11B 2140   5.962   3.298   2.198  1.0903  0.5300 -0.7326
   17SAPS     P 2141   5.890   3.474   2.423 -0.7552  0.2095 -0.2338
   17SAPS   O13 2142   5.927   3.547   2.547  0.5819  1.0669  0.1914
   17SAPS   O14 2143   5.829   3.553   2.317  0.0995  0.6401 -0.1509
   17SAPS   O12 2144   6.027   3.413   2.373 -0.3716  0.5313 -0.1236
   17SAPS   O11 2145   5.807   3.340   2.452  0.3119 -0.1506 -0.2989
   17SAPS    C1 2146   5.668   3.351   2.478  0.2727  0.9407 -0.5570
   17SAPS    HA 2147   5.631   3.455   2.465  0.3881  0.8190 -2.0054
   17SAPS    HB 2148   5.608   3.296   2.402 -1.0777  0.9951  0.4333
   17SAPS    C2 2149   5.617   3.296   2.615 -0.3741 -0.0164  0.0183
   17SAPS    HS 2150   5.509   3.317   2.634 -0.0541  0.6866  1.1858
   17SAPS   O21 2151   5.701   3.349   2.723 -0.3310  0.1084  0.2482
   17SAPS   C21 2152   5.668   3.476   2.754  0.5358 -0.1278 -0.1248
   17SAPS   O22 2153   5.574   3.538   2.707 -0.5943 -0.3803 -0.4602
   17SAPS   C22 2154   5.759   3.539   2.856  0.0456  1.0571  0.1713
   17SAPS   H2R 2155   5.779   3.467   2.938  0.2715  0.5204 -0.3363
   17SAPS   H2S 2156   5.855   3.562   2.804  0.4474 -0.4729  0.1786
   17SAPS    C3 2157   5.632   3.140   2.609  0.3331 -0.4193 -0.3558
   17SAPS    HX 2158   5.741   3.122   2.596  0.2722 -1.4170  0.4338
   17SAPS    HY 2159   5.589   3.098   2.516 -1.4973 -1.9138  1.0733
   17SAPS   O31 2160   5.585   3.070   2.729  0.1313 -0.3769 -0.0275
   17SAPS   C31 2161   5.453   3.048   2.732 -0.1300  0.0228 -0.1770
   17SAPS   O32 2162   5.373   3.090   2.647 -0.2414  0.5820 -0.1457
   17SAPS   C32 2163   5.423   2.946   2.839  0.2576 -0.2547 -0.2474
   17SAPS   H2X 2164   5.497   2.951   2.922 -0.8136 -1.0845  0.7899
   17SAPS   H2Y 2165   5.432   2.852   2.781 -0.7371  0.0598 -0.9371
   17SAPS   C23 2166   5.713   3.668   2.931  0.1367  0.0798 -0.5255
   17SAPS   H3R 2167   5.628   3.638   2.995  1.0825 -2.0588 -0.1918
   17SAPS   H3S 2168   5.691   3.752   2.861  0.2167  1.4995  1.0825
   17SAPS   C24 2169   5.831   3.724   3.019 -0.8373 -0.2545  0.1278
   17SAPS   H4R 2170   5.912   3.760   2.953  1.7564 -1.5590  2.3704
   17SAPS   H4S 2171   5.884   3.636   3.063  0.5208 -0.3204 -1.5658
   17SAPS   C25 2172   5.786   3.823   3.121 -0.4382 -0.5617 -0.0517
   17SAPS   H5R 2173   5.725   3.903   3.077  2.2468  2.8123  1.8995
   17SAPS   C26 2174   5.812   3.823   3.256  0.4627  0.1298  0.1247
   17SAPS   H6R 2175   5.780   3.911   3.313 -2.8524 -0.1009 -1.1445
   17SAPS   C27 2176   5.884   3.719   3.342 -0.0777 -0.5095  0.0517
   17SAPS   H7R 2177   5.960   3.662   3.285  1.1970  1.4657 -0.3324
   17SAPS   H7S 2178   5.816   3.641   3.381 -1.1739  0.3799 -0.0267
   17SAPS   C28 2179   5.953   3.793   3.452  0.3036  0.4971  0.6219
   17SAPS   H8R 2180   6.058   3.825   3.441  0.2675 -0.0704 -2.5875
   17SAPS   C29 2181   5.905   3.800   3.579  0.1438 -0.4497 -0.5888
   17SAPS   H9R 2182   5.957   3.855   3.659 -0.3138  0.0505 -0.6266
   17SAPS  C210 2183   5.773   3.743   3.629  0.0783 -0.6499 -0.9186
   17SAPS  H10R 2184   5.765   3.633   3.629 -0.3901 -0.6165 -1.2011
   17SAPS  H10S 2185   5.684   3.788   3.580 -0.8588 -0.1699  1.1046
   17SAPS  C211 2186   5.752   3.786   3.776 -0.4524  0.2325  0.5553
   17SAPS  H11R 2187   5.674   3.861   3.797  0.3457  0.2410  4.1136
   17SAPS  C212 2188   5.820   3.732   3.877 -0.1919 -0.1488  0.5257
   17SAPS  H12R 2189   5.785   3.765   3.976 -0.1255  0.3118  0.3998
   17SAPS  C213 2190   5.919   3.621   3.875 -0.3506 -0.2741 -0.4822
   17SAPS  H13R 2191   5.977   3.634   3.969  2.2260  0.8661 -2.1389
   17SAPS  H13S 2192   5.990   3.620   3.790  0.6433  0.3423  0.3255
   17SAPS  C214 2193   5.842   3.495   3.890  0.4721  0.2940  0.2087
   17SAPS  H14R 2194   5.765   3.474   3.813  1.7565 -0.7211 -0.8440
   17SAPS  C215 2195   5.846   3.416   3.999  0.0904  0.3946  0.2680
   17SAPS  H15R 2196   5.768   3.339   4.012 -0.4157  0.7992 -0.3272
   17SAPS  C216 2197   5.924   3.433   4.125  0.1463  0.5042 -0.4202
   17SAPS  H16R 2198   5.948   3.537   4.156  0.5123  0.7501 -1.4798
   17SAPS  H16S 2199   6.023   3.384   4.116 -0.6441 -2.0310  2.6255
   17SAPS  C217 2200   5.847   3.385   4.247  0.3076  0.4433 -0.5091
   17SAPS  H17R 2201   5.913   3.360   4.333 -1.6843 -0.0091  0.9725
   17SAPS  H17S 2202   5.785   3.293   4.236 -0.2964  0.3456  2.5686
   17SAPS  C218 2203   5.748   3.493   4.307  0.1854 -0.2770  0.9374
   17SAPS  H18R 2204   5.800   3.590   4.320  0.5129 -0.4077  0.6263
   17SAPS  H18S 2205   5.720   3.453   4.407 -0.0030 -1.3135  0.4849
   17SAPS  C219 2206   5.615   3.509   4.234 -0.0227  0.0951 -0.2082
   17SAPS  H19R 2207   5.580   3.404   4.225 -0.9692  0.3964 -0.1654
   17SAPS  H19S 2208   5.635   3.551   4.133  0.0822 -0.3159 -0.3611
   17SAPS  C220 2209   5.502   3.586   4.309 -0.3597 -0.2685  0.2495
   17SAPS  H20R 2210   5.512   3.696   4.304  1.7290 -0.3581  1.2918
   17SAPS  H20S 2211   5.506   3.573   4.420 -0.4580  1.3081  0.4530
   17SAPS  H20T 2212   5.405   3.537   4.285 -1.0880 -0.0750  2.5511
   17SAPS   C33 2213   5.268   2.945   2.878  0.0081  0.3162  0.2294
   17SAPS   H3X 2214   5.240   2.849   2.926  0.0515 -0.8235 -1.8665
   17SAPS   H3Y 2215   5.211   2.938   2.782  0.0204 -1.2588  0.3021
   17SAPS   C34 2216   5.229   3.065   2.964 -0.0193 -0.1825 -0.1360
   17SAPS   H4X 2217   5.119   3.051   2.955 -0.3248  2.4635 -1.4196
   17SAPS   H4Y 2218   5.267   3.157   2.914  0.5794 -0.2468  0.1834
   17SAPS   C35 2219   5.259   3.055   3.113  0.1664  0.5716  0.1639
   17SAPS   H5X 2220   5.370   3.067   3.118  0.4399 -0.9536 -1.2764
   17SAPS   H5Y 2221   5.237   2.959   3.164  0.2125  1.0086  1.0096
   17SAPS   C36 2222   5.202   3.173   3.190 -0.1700  0.5642 -0.1742
   17SAPS   H6X 2223   5.092   3.165   3.178 -0.5285  2.1095  1.5717
   17SAPS   H6Y 2224   5.224   3.273   3.146 -1.2336  0.3148 -1.3390
   17SAPS   C37 2225   5.220   3.186   3.342 -0.2808  0.0107  0.6908
   17SAPS   H7X 2226   5.317   3.233   3.368  0.4926 -0.7140 -0.7538
   17SAPS   H7Y 2227   5.224   3.085   3.390 -1.9364 -0.9650 -1.0661
   17SAPS   C38 2228   5.106   3.261   3.417 -0.5250  0.0334  0.6076
   17SAPS   H8X 2229   5.010   3.207   3.426 -0.4745 -0.1256  0.2251
   17SAPS   H8Y 2230   5.080   3.355   3.363  0.3269 -0.1447 -0.1345
   17SAPS   C39 2231   5.149   3.299   3.564  0.1768 -0.4257  0.0836
   17SAPS   H9X 2232   5.062   3.363   3.590  0.3790 -0.2092  0.2357
   17SAPS   H9Y 2233   5.241   3.362   3.557  0.0090  0.0018  1.3890
   17SAPS  C310 2234   5.162   3.181   3.668 -0.2169 -1.2017  0.3952
   17SAPS  H10X 2235   5.232   3.103   3.633  1.5166  0.0615  0.8888
   17SAPS  H10Y 2236   5.065   3.129   3.687 -0.0933 -1.0357  1.6256
   17SAPS  C311 2237   5.215   3.224   3.804 -0.6897  0.8383 -0.4410
   17SAPS  H11X 2238   5.151   3.299   3.855  0.7510  0.8288  1.4982
   17SAPS  H11Y 2239   5.302   3.292   3.800 -1.6050  2.0475 -0.3962
   17SAPS  C312 2240   5.240   3.093   3.888  0.9809  0.4328  0.4505
   17SAPS  H12X 2241   5.324   3.037   3.840  1.4442  1.2499  0.2776
   17SAPS  H12Y 2242   5.152   3.026   3.879  0.9365  0.5904 -0.4421
   17SAPS  C313 2243   5.270   3.113   4.031  0.5830 -0.4316 -0.2653
   17SAPS  H13X 2244   5.187   3.166   4.084  0.1668  0.0925 -1.3984
   17SAPS  H13Y 2245   5.362   3.171   4.051 -0.1482  0.2465  1.3138
   17SAPS  C314 2246   5.274   2.980   4.107 -0.3031  0.0732 -1.0667
   17SAPS  H14X 2247   5.370   2.931   4.077  0.0655 -0.7141  1.2347
   17SAPS  H14Y 2248   5.198   2.906   4.074 -0.0536  1.1482 -4.4710
   17SAPS  C315 2249   5.280   2.984   4.262 -0.0478  0.8196  0.1514
   17SAPS  H15X 2250   5.250   2.891   4.314  0.0548  1.9005  2.2599
   17SAPS  H15Y 2251   5.216   3.063   4.308  1.5160  1.1150  1.9558
   17SAPS  C316 2252   5.428   3.020   4.308  0.0654 -0.8338 -0.2979
   17SAPS  H16X 2253   5.473   3.110   4.262  2.0386 -1.4028  0.4024
   17SAPS  H16Y 2254   5.485   2.930   4.274 -0.3610 -0.5134 -1.9256
   17SAPS  C317 2255   5.444   3.050   4.459 -0.4340 -0.0662 -0.1278
   17SAPS  H17X 2256   5.554   3.070   4.459 -0.1298 -1.3348 -2.4748
   17SAPS  H17Y 2257   5.424   2.956   4.515 -2.0936  0.8003  0.7961
   17SAPS  C318 2258   5.367   3.169   4.507 -0.1497  0.7122 -0.1466
   17SAPS  H18X 2259   5.259   3.165   4.483 -0.4364 -1.5978  1.1952
   17SAPS  H18Y 2260   5.412   3.260   4.462 -0.2789  0.1918 -1.3387
   17SAPS  H18Z 2261   5.378   3.172   4.618  2.2074  3.3776 -0.3275
   18SAPS     N 2262   1.170   3.525   7.344 -0.0878  0.4322 -0.3384
   18SAPS   HN1 2263   1.172   3.509   7.447  0.8168 -0.4234 -0.4749
   18SAPS   HN2 2264   1.260   3.573   7.326  0.4525 -0.5397 -0.3322
   18SAPS   HN3 2265   1.085   3.578   7.316  1.1626  0.9630 -3.5246
   18SAPS   C12 2266   1.172   3.389   7.285 -0.1036 -0.4356  0.0609
   18SAPS  H12A 2267   1.242   3.334   7.346  0.2379  0.5964  0.6067
   18SAPS   C13 2268   1.040   3.322   7.296  0.6506 -0.4766  0.5030
   18SAPS  O13A 2269   0.937   3.374   7.340 -0.2229  0.3308 -0.1464
   18SAPS  O13B 2270   1.040   3.203   7.254 -0.5778  0.0853 -0.2807
   18SAPS   C11 2271   1.211   3.412   7.133 -0.6383 -0.0539  0.5959
   18SAPS  H11A 2272   1.133   3.475   7.086 -0.9033  0.4667  1.7105
   18SAPS  H11B 2273   1.208   3.313   7.082  0.5338 -0.8670  2.0367
   18SAPS     P 2274   1.373   3.592   7.024 -0.0620  0.0368 -0.1188
   18SAPS   O13 2275   1.334   3.714   7.091 -0.8276  0.0870  0.1516
   18SAPS   O14 2276   1.515   3.593   6.983  0.2308 -0.5836 -0.0375
   18SAPS   O12 2277   1.341   3.471   7.116 -0.3926  0.1638 -0.0617
   18SAPS   O11 2278   1.291   3.571   6.899  0.1733  0.1045  0.8645
   18SAPS    C1 2279   1.306   3.472   6.798 -0.4145 -0.0354  0.1245
   18SAPS    HA 2280   1.411   3.457   6.767 -0.1968 -2.3680  1.7569
   18SAPS    HB 2281   1.290   3.372   6.843  1.2202  0.3650  1.7035
   18SAPS    C2 2282   1.220   3.497   6.671 -0.2640  0.2921 -0.3984
   18SAPS    HS 2283   1.269   3.435   6.592 -0.1566 -0.2668  0.0957
   18SAPS   O21 2284   1.227   3.637   6.636 -0.4532 -0.2849  0.0007
   18SAPS   C21 2285   1.353   3.685   6.614  0.4932  0.0197  0.7265
   18SAPS   O22 2286   1.451   3.616   6.587 -0.1581 -0.2990 -0.2969
   18SAPS   C22 2287   1.348   3.838   6.611 -0.0526 -0.1154  0.1961
   18SAPS   H2R 2288   1.355   3.878   6.715 -0.6543 -1.2966  0.7088
   18SAPS   H2S 2289   1.434   3.868   6.548 -0.9034 -0.5821 -1.2244
   18SAPS    C3 2290   1.074   3.448   6.691  0.0770  0.1493  0.1787
   18SAPS    HX 2291   1.029   3.536   6.743  2.4300  1.0713  0.7776
   18SAPS    HY 2292   1.075   3.365   6.764 -0.2887 -0.4205 -0.4613
   18SAPS   O31 2293   1.015   3.416   6.561 -0.5095  0.4183  0.4774
   18SAPS   C31 2294   0.951   3.513   6.500 -0.5149 -0.4385  0.3502
   18SAPS   O32 2295   0.939   3.630   6.543  0.3611  0.8314  0.4232
   18SAPS   C32 2296   0.880   3.459   6.369  0.0839 -0.3287 -0.2024
   18SAPS   H2X 2297   0.794   3.393   6.393  1.2521 -0.9927  2.5382
   18SAPS   H2Y 2298   0.959   3.399   6.318 -0.1374 -2.4021  1.7195
   18SAPS   C23 2299   1.215   3.881   6.549  0.6284  0.1978 -0.2251
   18SAPS   H3R 2300   1.208   3.992   6.541 -0.4474  0.0960 -0.8511
   18SAPS   H3S 2301   1.125   3.847   6.604 -0.0513 -2.2149 -2.6386
   18SAPS   C24 2302   1.184   3.825   6.407  0.4049 -0.2115 -0.3095
   18SAPS   H4R 2303   1.079   3.854   6.390  1.3495  2.6208 -1.8564
   18SAPS   H4S 2304   1.192   3.714   6.404  1.7160 -0.1230 -0.7643
   18SAPS   C25 2305   1.270   3.884   6.298  0.3689  0.1093  0.6812
   18SAPS   H5R 2306   1.235   3.983   6.265 -1.5712 -0.4502  0.9185
   18SAPS   C26 2307   1.367   3.825   6.230  0.2287 -0.7150  0.4456
   18SAPS   H6R 2308   1.423   3.881   6.154  0.2938  0.5086  1.3573
   18SAPS   C27 2309   1.417   3.685   6.258 -0.0387  0.0699  0.1724
   18SAPS   H7R 2310   1.342   3.610   6.225  0.8701 -0.0430 -1.7599
   18SAPS   H7S 2311   1.427   3.668   6.368 -0.2503 -2.7899 -0.1816
   18SAPS   C28 2312   1.545   3.645   6.188 -0.8043  0.0163 -0.4881
   18SAPS   H8R 2313   1.529   3.637   6.080 -1.7841  2.1046 -0.5503
   18SAPS   C29 2314   1.669   3.635   6.246  0.1879  0.3236 -0.0321
   18SAPS   H9R 2315   1.756   3.633   6.179  0.1630 -1.9057 -0.0728
   18SAPS  C210 2316   1.705   3.645   6.395  0.5609 -0.3893  0.0725
   18SAPS  H10R 2317   1.678   3.548   6.441 -0.4040  0.5825  1.6399
   18SAPS  H10S 2318   1.652   3.725   6.452 -2.0516 -2.0750  0.1399
   18SAPS  C211 2319   1.854   3.646   6.413 -0.1537 -0.1077 -0.4002
   18SAPS  H11R 2320   1.887   3.749   6.436 -0.0889 -0.2806  0.2921
   18SAPS  C212 2321   1.946   3.550   6.411  0.5090  0.4729  0.1589
   18SAPS  H12R 2322   2.053   3.575   6.415  0.6097  1.1408 -3.6861
   18SAPS  C213 2323   1.915   3.399   6.421  0.7562 -0.1016 -0.2016
   18SAPS  H13R 2324   1.873   3.375   6.321  1.8326 -0.2402 -0.6354
   18SAPS  H13S 2325   1.825   3.378   6.483  0.7926  0.0789 -0.0856
   18SAPS  C214 2326   2.023   3.322   6.479 -0.4925 -0.2580 -0.4909
   18SAPS  H14R 2327   2.042   3.337   6.586  1.1710 -0.2433 -0.7639
   18SAPS  C215 2328   2.104   3.235   6.416  0.0176  0.0112  0.2418
   18SAPS  H15R 2329   2.197   3.195   6.458 -1.0911 -2.2400  0.7037
   18SAPS  C216 2330   2.081   3.182   6.277 -0.1122  0.4909 -0.3301
   18SAPS  H16R 2331   2.022   3.249   6.210 -1.5311 -1.5072 -1.1650
   18SAPS  H16S 2332   2.025   3.087   6.289  3.2506 -1.5066  0.5376
   18SAPS  C217 2333   2.207   3.128   6.210 -0.0246  0.2823  0.5524
   18SAPS  H17R 2334   2.260   3.060   6.279  0.6533  1.4689  1.2356
   18SAPS  H17S 2335   2.280   3.212   6.213  0.2576  0.0971 -0.6772
   18SAPS  C218 2336   2.182   3.064   6.076  0.8154  0.5180  0.7299
   18SAPS  H18R 2337   2.116   3.133   6.019  1.0458 -1.6695 -2.4076
   18SAPS  H18S 2338   2.131   2.968   6.097  1.9110 -0.4128 -0.7171
   18SAPS  C219 2339   2.315   3.057   6.003 -0.5803 -0.2908 -0.3181
   18SAPS  H19R 2340   2.387   2.997   6.063  0.1345 -0.0159 -0.8921
   18SAPS  H19S 2341   2.349   3.163   5.993  0.2131 -0.3621  1.2623
   18SAPS  C220 2342   2.319   2.997   5.862  0.3616  0.1328 -0.6154
   18SAPS  H20R 2343   2.263   2.901   5.858 -1.9197  1.3305  0.6176
   18SAPS  H20S 2344   2.421   2.969   5.828  0.2871  0.3121 -0.9949
   18SAPS  H20T 2345   2.272   3.067   5.790 -0.6387  0.8594  0.6970
   18SAPS   C33 2346   0.813   3.578   6.293  0.2843 -0.0443  0.0913
   18SAPS   H3X 2347   0.747   3.643   6.354 -0.0628  0.6103 -0.9518
   18SAPS   H3Y 2348   0.751   3.533   6.212  1.4604  0.4646 -1.1274
   18SAPS   C34 2349   0.914   3.654   6.205 -0.6871 -0.5086  0.1466
   18SAPS   H4X 2350   0.984   3.704   6.275 -0.1623  0.5218 -1.0826
   18SAPS   H4Y 2351   0.840   3.720   6.155  0.0561 -0.8486 -1.4936
   18SAPS   C35 2352   0.976   3.589   6.089  0.1426  0.6068  0.1254
   18SAPS   H5X 2353   0.897   3.528   6.041  0.5881 -0.4698  0.6969
   18SAPS   H5Y 2354   1.063   3.526   6.119 -0.1316  1.3626  2.7979
   18SAPS   C36 2355   1.033   3.690   5.988  0.0839 -0.4274  0.4167
   18SAPS   H6X 2356   1.106   3.751   6.046  1.4448 -0.1154 -1.5048
   18SAPS   H6Y 2357   0.950   3.754   5.954 -1.8786 -1.3332  3.1415
   18SAPS   C37 2358   1.097   3.621   5.862  0.3479  0.9675  0.0244
   18SAPS   H7X 2359   1.010   3.584   5.804 -1.5743  0.7797  2.8125
   18SAPS   H7Y 2360   1.157   3.533   5.895 -0.5230  0.4146  0.1806
   18SAPS   C38 2361   1.176   3.718   5.774  0.0533  0.2861  0.3494
   18SAPS   H8X 2362   1.268   3.748   5.828 -0.2938  1.6947  0.1832
   18SAPS   H8Y 2363   1.116   3.803   5.735 -0.1267 -0.3982 -0.9055
   18SAPS   C39 2364   1.196   3.664   5.637 -0.4766  0.5488  0.1302
   18SAPS   H9X 2365   1.095   3.642   5.597  0.4465  0.3842 -2.2589
   18SAPS   H9Y 2366   1.238   3.561   5.646 -1.9867 -0.0017  1.4446
   18SAPS  C310 2367   1.270   3.753   5.540 -0.5398 -0.3188 -0.1503
   18SAPS  H10X 2368   1.366   3.698   5.526 -1.7050 -2.0697 -1.8639
   18SAPS  H10Y 2369   1.289   3.855   5.579 -0.1316 -0.1592 -0.7362
   18SAPS  C311 2370   1.190   3.752   5.412 -0.1955  0.0942  0.2517
   18SAPS  H11X 2371   1.084   3.780   5.430  0.3545  1.6850  1.1953
   18SAPS  H11Y 2372   1.199   3.651   5.366 -0.6545 -0.3836  1.1928
   18SAPS  C312 2373   1.223   3.859   5.302  1.2723 -0.5140 -0.0394
   18SAPS  H12X 2374   1.331   3.836   5.290  1.4300 -0.3824  1.0290
   18SAPS  H12Y 2375   1.205   3.965   5.333 -1.1330 -0.8666 -0.0178
   18SAPS  C313 2376   1.162   3.825   5.171 -0.1359 -0.0025  0.0523
   18SAPS  H13X 2377   1.053   3.846   5.174  0.4617  3.6654  1.3264
   18SAPS  H13Y 2378   1.190   3.720   5.146  1.3319  0.3947 -0.1065
   18SAPS  C314 2379   1.224   3.903   5.052 -0.1895 -0.4586 -0.0437
   18SAPS  H14X 2380   1.212   3.838   4.963  2.2103 -0.1123 -0.6693
   18SAPS  H14Y 2381   1.331   3.918   5.080 -1.0535 -0.1519  3.6465
   18SAPS  C315 2382   1.157   4.038   5.028  0.0009  0.1027  0.8121
   18SAPS  H15X 2383   1.139   4.089   5.126 -2.3010  0.4884  0.2416
   18SAPS  H15Y 2384   1.062   4.010   4.979  0.9718 -1.4251 -0.2788
   18SAPS  C316 2385   1.226   4.129   4.931 -0.3277  0.9195 -0.3672
   18SAPS  H16X 2386   1.253   4.076   4.837  1.5358 -0.8770  1.0814
   18SAPS  H16Y 2387   1.324   4.164   4.969 -0.6767 -2.9294  5.2855
   18SAPS  C317 2388   1.154   4.262   4.902  0.2948  0.0821 -0.2700
   18SAPS  H17X 2389   1.211   4.336   4.841 -1.5568  1.8129 -0.0204
   18SAPS  H17Y 2390   1.146   4.311   5.001 -1.3615 -2.8135  1.1419
   18SAPS  C318 2391   1.017   4.247   4.837 -0.3372  0.1733 -0.4957
   18SAPS  H18X 2392   0.973   4.348   4.825  0.6609  0.5728 -0.8929
   18SAPS  H18Y 2393   0.954   4.186   4.905  0.5368  1.9587  2.0338
   18SAPS  H18Z 2394   1.015   4.198   4.737 -2.4155 -1.0183  0.0638
   19SAPS     N 2395   1.478   5.937   2.396  0.0129  0.0354  0.1932
   19SAPS   HN1 2396   1.421   5.939   2.310 -2.7625 -1.4765  1.8351
   19SAPS   HN2 2397   1.508   5.843   2.430  1.6235  0.4649  0.0316
   19SAPS   HN3 2398   1.423   5.980   2.473  1.0740  1.6769  0.0937
   19SAPS   C12 2399   1.610   6.013   2.387 -0.6089 -0.3649  0.0101
   19SAPS  H12A 2400   1.687   5.938   2.377 -2.3890 -2.2383 -0.4114
   19SAPS   C13 2401   1.630   6.096   2.255  0.7297  0.0617  0.7659
   19SAPS  O13A 2402   1.546   6.089   2.158  0.0812  0.1778  0.6072
   19SAPS  O13B 2403   1.732   6.165   2.236  0.0206 -0.1498 -0.9654
   19SAPS   C11 2404   1.628   6.114   2.509 -0.1505  0.3525  0.7192
   19SAPS  H11A 2405   1.546   6.188   2.502 -0.6430 -0.0786  1.7193
   19SAPS  H11B 2406   1.727   6.163   2.497  0.0198 -0.4001 -1.3956
   19SAPS     P 2407   1.511   6.015   2.731  0.0282 -0.0687 -0.2605
   19SAPS   O13 2408   1.390   6.054   2.654  0.1283  0.1147  0.2914
   19SAPS   O14 2409   1.517   5.878   2.783 -0.5817 -0.6859  0.0636
   19SAPS   O12 2410   1.630   6.052   2.638 -0.7051 -0.1573  0.4365
   19SAPS   O11 2411   1.527   6.113   2.852  0.3330 -0.2137 -0.1687
   19SAPS    C1 2412   1.616   6.225   2.847 -1.0331 -0.7739  1.0657
   19SAPS    HA 2413   1.723   6.198   2.835 -0.6720  0.5581  1.0454
   19SAPS    HB 2414   1.597   6.302   2.769 -0.9193 -0.8947  0.9206
   19SAPS    C2 2415   1.603   6.311   2.977  0.0439  0.2039 -0.0505
   19SAPS    HS 2416   1.684   6.386   2.976 -0.2353  0.5419  1.3973
   19SAPS   O21 2417   1.627   6.227   3.094  0.4416  0.0534 -0.2787
   19SAPS   C21 2418   1.756   6.188   3.109  0.5228 -0.0727  0.6421
   19SAPS   O22 2419   1.845   6.210   3.032 -0.4069  0.1016  0.4556
   19SAPS   C22 2420   1.760   6.119   3.252  0.2906  0.1705  0.0554
   19SAPS   H2R 2421   1.700   6.187   3.315  1.2823  2.5799 -1.4523
   19SAPS   H2S 2422   1.707   6.023   3.234 -1.9324  1.1916  0.8013
   19SAPS    C3 2423   1.469   6.382   2.989 -0.0084  0.5603  0.0430
   19SAPS    HX 2424   1.389   6.308   3.013  0.5951 -0.3565 -0.7103
   19SAPS    HY 2425   1.440   6.422   2.890 -1.5806 -1.5305 -0.4092
   19SAPS   O31 2426   1.471   6.496   3.088  0.0924  0.2874  0.4287
   19SAPS   C31 2427   1.354   6.557   3.079  0.4505 -0.0153 -0.4980
   19SAPS   O32 2428   1.257   6.511   3.025 -0.7032  0.7394 -0.6572
   19SAPS   C32 2429   1.364   6.686   3.151 -0.2150 -0.5024 -0.1321
   19SAPS   H2X 2430   1.337   6.774   3.088 -0.8503 -0.5149  0.1156
   19SAPS   H2Y 2431   1.469   6.701   3.184  0.1259 -3.5824  0.4677
   19SAPS   C23 2432   1.901   6.112   3.320 -0.0531 -0.2632  0.5322
   19SAPS   H3R 2433   1.924   6.220   3.335 -1.8763  0.3933 -1.0452
   19SAPS   H3S 2434   1.983   6.063   3.263 -0.3271  1.6728 -1.6669
   19SAPS   C24 2435   1.889   6.039   3.453 -0.8780 -0.2824 -0.2056
   19SAPS   H4R 2436   1.990   6.012   3.490 -1.3471 -0.5021  0.9369
   19SAPS   H4S 2437   1.841   5.940   3.438 -1.5548 -0.1288  0.8091
   19SAPS   C25 2438   1.804   6.121   3.555 -0.5611 -0.1570  0.1236
   19SAPS   H5R 2439   1.697   6.126   3.529 -0.5465  2.7814  0.2579
   19SAPS   C26 2440   1.844   6.182   3.670  0.1434  0.2876  0.0032
   19SAPS   H6R 2441   1.774   6.241   3.730  0.6187 -1.0243  1.9211
   19SAPS   C27 2442   1.985   6.180   3.730  0.5002 -0.1651  0.4661
   19SAPS   H7R 2443   2.010   6.276   3.779  0.8437  1.0815 -1.9825
   19SAPS   H7S 2444   2.053   6.173   3.642 -2.6868 -0.6604 -2.1189
   19SAPS   C28 2445   2.019   6.061   3.815 -0.6783  0.0232  0.3757
   19SAPS   H8R 2446   2.073   5.985   3.757  0.2907 -1.4680  3.0831
   19SAPS   C29 2447   2.019   6.054   3.951  0.2730 -0.0839  0.1041
   19SAPS   H9R 2448   2.046   5.954   3.987  0.2125 -0.4175 -0.7427
   19SAPS  C210 2449   1.951   6.156   4.045  0.0232 -0.0657  0.1912
   19SAPS  H10R 2450   1.844   6.125   4.043  0.4828 -1.7062 -2.0108
   19SAPS  H10S 2451   1.957   6.260   4.008 -0.4276  0.1673  0.7575
   19SAPS  C211 2452   2.007   6.148   4.183 -0.0259 -0.8827 -1.0138
   19SAPS  H11R 2453   2.116   6.160   4.184 -0.0669 -0.3046  0.5759
   19SAPS  C212 2454   1.945   6.140   4.305 -0.4060  0.4179 -0.4161
   19SAPS  H12R 2455   2.005   6.145   4.397 -0.4785 -3.1617 -0.0693
   19SAPS  C213 2456   1.787   6.119   4.318 -0.0016 -0.2166 -0.7638
   19SAPS  H13R 2457   1.733   6.139   4.223 -0.9635 -0.1978 -0.2185
   19SAPS  H13S 2458   1.749   6.195   4.390  1.0483 -0.0266 -0.3793
   19SAPS  C214 2459   1.756   5.988   4.379  0.0010  1.0462 -0.0987
   19SAPS  H14R 2460   1.809   5.970   4.473  2.4640  2.0173 -1.2035
   19SAPS  C215 2461   1.698   5.880   4.320  0.3193 -0.3646 -0.1826
   19SAPS  H15R 2462   1.666   5.795   4.382  0.2888 -0.7170 -0.6816
   19SAPS  C216 2463   1.638   5.884   4.182  0.3608  0.4773  0.4633
   19SAPS  H16R 2464   1.615   5.988   4.149  0.4695  1.2249  2.5928
   19SAPS  H16S 2465   1.543   5.826   4.189  0.6087  0.2441  2.7782
   19SAPS  C217 2466   1.725   5.812   4.078 -0.0097 -0.0646  0.3302
   19SAPS  H17R 2467   1.757   5.718   4.128 -0.1585 -0.9030 -1.0882
   19SAPS  H17S 2468   1.817   5.868   4.052  0.8001 -1.4381  0.1143
   19SAPS  C218 2469   1.649   5.787   3.943 -0.0129 -0.3393 -0.6037
   19SAPS  H18R 2470   1.583   5.872   3.917 -1.1359 -1.2179 -0.6837
   19SAPS  H18S 2471   1.580   5.702   3.960 -1.6534  1.2164  0.9260
   19SAPS  C219 2472   1.753   5.773   3.829 -0.0808  0.0278  0.3227
   19SAPS  H19R 2473   1.824   5.690   3.848  0.8902  0.4703 -1.2070
   19SAPS  H19S 2474   1.806   5.869   3.813  1.0222 -0.9350 -2.2764
   19SAPS  C220 2475   1.678   5.741   3.700  0.2234  0.2626  0.9271
   19SAPS  H20R 2476   1.744   5.737   3.611 -1.4456 -0.3323 -0.3325
   19SAPS  H20S 2477   1.597   5.814   3.680  2.0735  1.6930 -2.0889
   19SAPS  H20T 2478   1.616   5.649   3.708  1.9770 -1.0348  0.3929
   19SAPS   C33 2479   1.276   6.676   3.279 -0.7111 -1.0451 -0.4748
   19SAPS   H3X 2480   1.303   6.593   3.347  0.3803 -0.2955  0.0348
   19SAPS   H3Y 2481   1.170   6.664   3.248 -0.8790  1.0604 -0.8824
   19SAPS   C34 2482   1.274   6.806   3.365  0.2194 -0.3933 -0.1047
   19SAPS   H4X 2483   1.377   6.845   3.353  0.6399 -1.6138 -0.6820
   19SAPS   H4Y 2484   1.253   6.770   3.468 -1.6011  0.0429 -0.2727
   19SAPS   C35 2485   1.164   6.908   3.322 -0.2788  0.3911 -0.2033
   19SAPS   H5X 2486   1.065   6.858   3.321 -0.0914 -0.0452  0.9547
   19SAPS   H5Y 2487   1.194   6.946   3.222  0.5849  1.2606  0.3698
   19SAPS   C36 2488   1.174   7.042   3.401 -0.0481  0.0016  0.0250
   19SAPS   H6X 2489   1.093   7.103   3.355 -1.6856 -0.5082  2.0567
   19SAPS   H6Y 2490   1.275   7.079   3.374 -0.6309  0.4512 -1.6397
   19SAPS   C37 2491   1.164   7.024   3.556  0.0207  0.4799  0.0762
   19SAPS   H7X 2492   1.209   7.117   3.595 -0.3130  0.1958  1.1575
   19SAPS   H7Y 2493   1.217   6.936   3.600 -0.1583  0.8881  1.1283
   19SAPS   C38 2494   1.021   7.001   3.615 -0.8003 -0.0883 -0.1496
   19SAPS   H8X 2495   0.970   6.914   3.567 -1.3195  0.8861 -1.4183
   19SAPS   H8Y 2496   0.979   7.100   3.589  1.8748  1.8725  2.3269
   19SAPS   C39 2497   1.017   6.971   3.769  0.3980 -0.6619  0.5790
   19SAPS   H9X 2498   1.089   6.889   3.793  1.4735 -0.2795 -1.1763
   19SAPS   H9Y 2499   0.915   6.943   3.803 -1.2536  2.2941 -1.5169
   19SAPS  C310 2500   1.069   7.099   3.843 -0.1987  0.4318 -0.0102
   19SAPS  H10X 2501   1.026   7.188   3.793  1.9022  1.3112 -0.3855
   19SAPS  H10Y 2502   1.178   7.106   3.823  0.2347 -1.1300  1.5372
   19SAPS  C311 2503   1.049   7.097   3.996 -0.6808  0.2336 -0.0072
   19SAPS  H11X 2504   1.087   7.188   4.046 -1.5784  0.1302  0.8994
   19SAPS  H11Y 2505   1.114   7.023   4.047  0.3081  1.2076  0.1737
   19SAPS  C312 2506   0.899   7.071   4.047  0.2841  0.5141  0.2972
   19SAPS  H12X 2507   0.870   6.970   4.011  0.5298 -0.0769  1.7007
   19SAPS  H12Y 2508   0.841   7.149   3.994  0.8486  0.6791 -0.0878
   19SAPS  C313 2509   0.888   7.063   4.197 -0.2386 -0.4681 -0.1545
   19SAPS  H13X 2510   0.954   6.980   4.231  0.5530  0.9258  1.8979
   19SAPS  H13Y 2511   0.783   7.036   4.222 -0.8468  2.7502  1.1813
   19SAPS  C314 2512   0.909   7.202   4.265  0.2512 -0.5066 -0.1028
   19SAPS  H14X 2513   0.846   7.287   4.231  0.4435 -0.2525  0.1635
   19SAPS  H14Y 2514   1.018   7.218   4.255  0.5226 -2.6434 -0.9850
   19SAPS  C315 2515   0.878   7.193   4.421 -0.2035 -0.3414 -0.0594
   19SAPS  H15X 2516   0.782   7.140   4.435 -0.2702 -0.5072 -1.1165
   19SAPS  H15Y 2517   0.866   7.298   4.455  0.9969 -0.0814 -0.3636
   19SAPS  C316 2518   0.985   7.125   4.517  1.1817 -0.2186 -0.3674
   19SAPS  H16X 2519   1.084   7.171   4.495  0.5517  1.1391 -0.4456
   19SAPS  H16Y 2520   0.981   7.014   4.519 -1.4209 -0.1667  0.3365
   19SAPS  C317 2521   0.963   7.147   4.670 -0.2452  0.1578  0.1130
   19SAPS  H17X 2522   0.859   7.117   4.692 -0.4487  0.7744  0.0099
   19SAPS  H17Y 2523   0.971   7.256   4.691  0.3643  0.2122 -0.3544
   19SAPS  C318 2524   1.070   7.064   4.748  0.2380  0.0852 -1.2458
   19SAPS  H18X 2525   1.174   7.092   4.722  0.8708 -0.3444  0.6456
   19SAPS  H18Y 2526   1.057   6.953   4.749 -1.5974  0.2731 -0.7495
   19SAPS  H18Z 2527   1.061   7.094   4.854 -2.2860 -0.0720 -1.3616
   20SAPS     N 2528   1.585   5.626   2.771  1.3680 -0.2964  0.3758
   20SAPS   HN1 2529   1.680   5.636   2.731  0.8849  1.8032 -0.4025
   20SAPS   HN2 2530   1.548   5.723   2.782 -0.6588 -0.7822 -1.5006
   20SAPS   HN3 2531   1.579   5.588   2.868 -2.7567  1.3922  1.0194
   20SAPS   C12 2532   1.479   5.554   2.683  0.3451  0.0610 -1.2824
   20SAPS  H12A 2533   1.385   5.583   2.728  1.2752 -1.7421  2.2081
   20SAPS   C13 2534   1.496   5.608   2.539 -0.7731  0.3505  0.3737
   20SAPS  O13A 2535   1.566   5.712   2.511 -0.1828 -0.5078 -0.4986
   20SAPS  O13B 2536   1.416   5.567   2.451 -0.3741  0.1202  0.1810
   20SAPS   C11 2537   1.496   5.404   2.680 -0.8586  0.6073 -0.7860
   20SAPS  H11A 2538   1.606   5.399   2.667 -0.2104  0.9451  3.3550
   20SAPS  H11B 2539   1.440   5.352   2.599 -0.1783 -1.4597 -0.0068
   20SAPS     P 2540   1.481   5.199   2.835 -0.2791  0.0078 -0.1116
   20SAPS   O13 2541   1.355   5.124   2.810  0.2114  0.5659  0.6283
   20SAPS   O14 2542   1.603   5.147   2.769 -0.6976 -0.7382  0.1103
   20SAPS   O12 2543   1.465   5.350   2.809 -0.3855  0.6705  0.1001
   20SAPS   O11 2544   1.502   5.192   2.984 -0.0421 -0.1324  0.6131
   20SAPS    C1 2545   1.443   5.287   3.078 -0.1023  0.2989 -0.5342
   20SAPS    HA 2546   1.429   5.390   3.039  1.4639  0.5017 -0.5972
   20SAPS    HB 2547   1.341   5.248   3.102 -0.0063  0.4934  0.2179
   20SAPS    C2 2548   1.524   5.300   3.217  0.0903  0.5269  0.7125
   20SAPS    HS 2549   1.481   5.235   3.297  0.4457  0.7229  1.0634
   20SAPS   O21 2550   1.535   5.437   3.254  0.0399 -0.9800 -0.6495
   20SAPS   C21 2551   1.430   5.487   3.322 -0.6173  0.0953 -0.1293
   20SAPS   O22 2552   1.344   5.415   3.361  0.3316  0.0840 -0.4501
   20SAPS   C22 2553   1.430   5.636   3.350 -0.3025 -0.8457  0.4496
   20SAPS   H2R 2554   1.519   5.662   3.412 -0.7181  3.6959 -0.4907
   20SAPS   H2S 2555   1.441   5.691   3.254  2.4623 -1.4953  0.3023
   20SAPS    C3 2556   1.675   5.253   3.181  0.0102  0.0421 -0.5110
   20SAPS    HX 2557   1.710   5.330   3.109  1.5962  0.2913  0.4980
   20SAPS    HY 2558   1.669   5.155   3.129  2.5641 -1.2268  1.3901
   20SAPS   O31 2559   1.756   5.258   3.297  0.4593  0.1143  0.6355
   20SAPS   C31 2560   1.819   5.366   3.337 -0.3839 -0.6619 -0.3674
   20SAPS   O32 2561   1.822   5.471   3.276 -0.1023  0.0388 -0.2265
   20SAPS   C32 2562   1.874   5.346   3.479 -0.0925  0.6215 -1.0856
   20SAPS   H2X 2563   1.786   5.301   3.531  0.9846  1.5001  1.6760
   20SAPS   H2Y 2564   1.893   5.444   3.529  1.2793 -1.3346  2.6194
   20SAPS   C23 2565   1.302   5.695   3.423 -0.3795 -0.1990  0.1773
   20SAPS   H3R 2566   1.282   5.641   3.518 -0.2728 -1.9393 -0.7574
   20SAPS   H3S 2567   1.213   5.680   3.358  1.5258 -2.0785 -2.1687
   20SAPS   C24 2568   1.316   5.842   3.475  0.4835  0.0234 -0.5703
   20SAPS   H4R 2569   1.360   5.908   3.398  1.7480 -0.9526 -0.7092
   20SAPS   H4S 2570   1.380   5.842   3.566 -1.4682  1.6283  0.8950
   20SAPS   C25 2571   1.176   5.888   3.511 -0.0909 -0.1522 -0.3054
   20SAPS   H5R 2572   1.107   5.898   3.426 -0.5341 -0.3077  0.0358
   20SAPS   C26 2573   1.126   5.929   3.626  0.2195  0.5046 -0.5345
   20SAPS   H6R 2574   1.029   5.980   3.625 -1.6853 -2.7889 -0.2081
   20SAPS   C27 2575   1.189   5.911   3.766  0.1055 -0.1912  0.2113
   20SAPS   H7R 2576   1.252   6.000   3.786  1.3336 -0.8446 -0.6012
   20SAPS   H7S 2577   1.250   5.818   3.761 -1.8761 -1.6522  1.5763
   20SAPS   C28 2578   1.097   5.891   3.888 -0.0938 -0.2868 -0.1644
   20SAPS   H8R 2579   0.999   5.937   3.870  0.6582  1.4850  0.0736
   20SAPS   C29 2580   1.114   5.814   4.003  0.2209 -0.2616  0.7964
   20SAPS   H9R 2581   1.029   5.802   4.071 -1.4765 -0.9120 -1.2999
   20SAPS  C210 2582   1.251   5.766   4.037  0.1112 -0.1057 -0.0573
   20SAPS  H10R 2583   1.288   5.828   4.121 -2.1722  2.0775 -0.5356
   20SAPS  H10S 2584   1.328   5.777   3.958  0.5088 -1.4747  0.1142
   20SAPS  C211 2585   1.259   5.620   4.053 -0.1786  0.2835 -0.4202
   20SAPS  H11R 2586   1.287   5.566   3.962  0.9958  0.0803  0.0398
   20SAPS  C212 2587   1.274   5.563   4.176  0.2411  0.2969  0.4122
   20SAPS  H12R 2588   1.284   5.454   4.184 -0.9695  0.0811 -0.6939
   20SAPS  C213 2589   1.247   5.636   4.311 -0.4144 -0.2685  0.5072
   20SAPS  H13R 2590   1.161   5.706   4.305 -0.9311 -0.9944 -0.7668
   20SAPS  H13S 2591   1.335   5.697   4.344 -0.5288 -0.2150  0.7173
   20SAPS  C214 2592   1.233   5.534   4.419  0.3840 -0.2450  0.1925
   20SAPS  H14R 2593   1.134   5.500   4.453  0.7114 -0.7693  0.6189
   20SAPS  C215 2594   1.331   5.473   4.488 -0.1875  0.3603 -0.1789
   20SAPS  H15R 2595   1.304   5.414   4.578 -3.2139  0.5256 -0.8868
   20SAPS  C216 2596   1.478   5.499   4.472 -0.2371  0.5347 -0.1374
   20SAPS  H16R 2597   1.508   5.527   4.369  1.4500 -2.6832 -0.6521
   20SAPS  H16S 2598   1.526   5.405   4.507 -1.8134  0.9872  3.7341
   20SAPS  C217 2599   1.519   5.591   4.580  0.5307 -0.1680 -0.2879
   20SAPS  H17R 2600   1.467   5.689   4.570  0.9150  0.4936  3.1272
   20SAPS  H17S 2601   1.627   5.615   4.567  0.2897  1.0427 -0.1527
   20SAPS  C218 2602   1.507   5.547   4.727  0.1430  0.3161 -0.1184
   20SAPS  H18R 2603   1.540   5.441   4.735  1.5394  0.8063  1.1433
   20SAPS  H18S 2604   1.399   5.550   4.749 -0.0316 -0.2131 -0.8698
   20SAPS  C219 2605   1.585   5.635   4.822 -0.1556 -0.7441 -0.8073
   20SAPS  H19R 2606   1.538   5.734   4.802 -0.0722 -0.3089  0.9795
   20SAPS  H19S 2607   1.694   5.645   4.803 -0.2645 -1.2773 -1.7745
   20SAPS  C220 2608   1.565   5.596   4.966 -0.0822  0.5544  0.0666
   20SAPS  H20R 2609   1.608   5.672   5.035 -1.3308 -0.2204  1.7820
   20SAPS  H20S 2610   1.625   5.505   4.986  0.5399  1.3447  2.1475
   20SAPS  H20T 2611   1.459   5.583   4.999 -0.1167 -0.8877 -0.5604
   20SAPS   C33 2612   1.998   5.260   3.464  0.3119  0.2894 -0.0723
   20SAPS   H3X 2613   2.076   5.304   3.398  0.8278 -1.0406 -0.3998
   20SAPS   H3Y 2614   1.968   5.166   3.414 -0.4464 -0.1330  1.1279
   20SAPS   C34 2615   2.059   5.217   3.599 -0.5252 -0.9918 -0.1370
   20SAPS   H4X 2616   1.980   5.165   3.657  0.1244 -0.6967  1.0366
   20SAPS   H4Y 2617   2.091   5.303   3.662 -1.2948 -1.2197  0.5960
   20SAPS   C35 2618   2.187   5.146   3.579  0.4144  0.4497 -0.1381
   20SAPS   H5X 2619   2.254   5.222   3.534  1.1546 -0.1503 -0.0820
   20SAPS   H5Y 2620   2.174   5.057   3.515 -5.2220  1.6845 -1.2622
   20SAPS   C36 2621   2.250   5.107   3.709 -0.8674  0.0539  0.0068
   20SAPS   H6X 2622   2.200   5.021   3.759 -0.9061  0.3673  0.5200
   20SAPS   H6Y 2623   2.246   5.199   3.771  0.6813  0.2578 -0.1561
   20SAPS   C37 2624   2.400   5.071   3.694  0.0823 -0.5214  0.4749
   20SAPS   H7X 2625   2.416   4.981   3.629  0.4371 -0.7310  0.8488
   20SAPS   H7Y 2626   2.437   5.059   3.798 -0.2661 -0.2808  0.6284
   20SAPS   C38 2627   2.480   5.184   3.624  0.2702  0.1879 -0.1549
   20SAPS   H8X 2628   2.416   5.275   3.634 -0.2424 -0.1929  0.0484
   20SAPS   H8Y 2629   2.483   5.159   3.516 -0.8358  1.6232 -0.5500
   20SAPS   C39 2630   2.615   5.206   3.691 -0.2094  0.1290  0.1625
   20SAPS   H9X 2631   2.594   5.264   3.784  2.2821  2.0272 -0.3770
   20SAPS   H9Y 2632   2.684   5.256   3.620 -0.6169 -1.5119 -1.4600
   20SAPS  C310 2633   2.701   5.082   3.727  0.0389 -0.0326  0.3431
   20SAPS  H10X 2634   2.739   5.034   3.634  0.5448 -1.4148  1.2410
   20SAPS  H10Y 2635   2.654   5.002   3.787  2.3993  0.3957  2.9632
   20SAPS  C311 2636   2.812   5.133   3.817 -0.4512  0.3248  0.0941
   20SAPS  H11X 2637   2.803   5.244   3.822 -1.0599  0.2549  0.8850
   20SAPS  H11Y 2638   2.916   5.106   3.789  0.0287  1.3353  0.8276
   20SAPS  C312 2639   2.796   5.076   3.953  0.2568 -0.6960  0.0867
   20SAPS  H12X 2640   2.798   4.965   3.950 -1.0797 -0.7571  0.7381
   20SAPS  H12Y 2641   2.703   5.112   4.002 -0.2363 -3.1579  1.1043
   20SAPS  C313 2642   2.915   5.133   4.043  0.3685 -0.0069 -0.6604
   20SAPS  H13X 2643   2.930   5.243   4.031  0.7040  0.2804  1.9193
   20SAPS  H13Y 2644   3.008   5.084   4.006  1.9545  0.6743  2.1694
   20SAPS  C314 2645   2.898   5.109   4.190 -0.0789 -0.4837 -0.8493
   20SAPS  H14X 2646   2.897   5.001   4.217  3.5879  0.2847  3.6169
   20SAPS  H14Y 2647   2.792   5.134   4.214  0.5027 -0.7456  2.4094
   20SAPS  C315 2648   3.011   5.168   4.276  0.3696 -0.2586 -0.7383
   20SAPS  H15X 2649   3.005   5.278   4.258  0.1258 -0.1143  0.1935
   20SAPS  H15Y 2650   3.117   5.147   4.249  0.4151 -0.8730 -0.0976
   20SAPS  C316 2651   3.009   5.146   4.432  0.4174 -0.9160  0.2486
   20SAPS  H16X 2652   2.905   5.175   4.457 -0.3448 -1.2050 -2.3398
   20SAPS  H16Y 2653   3.084   5.212   4.483  1.5468 -0.7309 -1.5525
   20SAPS  C317 2654   3.030   4.998   4.470 -0.5307  0.1737 -0.6955
   20SAPS  H17X 2655   2.967   4.925   4.415 -2.7593 -0.5932  2.5512
   20SAPS  H17Y 2656   2.996   4.982   4.575  0.9892 -0.7318 -0.3119
   20SAPS  C318 2657   3.183   4.970   4.478  0.0139  0.6540 -0.8131
   20SAPS  H18X 2658   3.237   4.995   4.384  1.4854 -0.7661 -0.3854
   20SAPS  H18Y 2659   3.208   4.863   4.498  0.8126  1.0710  0.5127
   20SAPS  H18Z 2660   3.239   5.021   4.559  1.3736 -1.2921 -0.4488
   21CHL1    C3 2661   5.900   3.661   6.040  0.2216 -0.2160 -0.0508
   21CHL1    H3 2662   5.819   3.595   6.003 -0.4483  0.1750  0.6755
   21CHL1    O3 2663   5.892   3.680   6.181  0.3256  0.0769 -0.2030
   21CHL1   H3' 2664   5.893   3.593   6.222 -3.1886 -0.4908 -0.9795
   21CHL1    C4 2665   6.039   3.610   5.991 -0.6660  0.1350 -0.0226
   21CHL1   H4A 2666   6.122   3.671   6.034  0.3698 -1.2451  0.0050
   21CHL1   H4B 2667   6.046   3.510   6.039 -0.2849  0.4378  0.5684
   21CHL1    C5 2668   6.053   3.601   5.845  0.5787 -0.0557 -0.7571
   21CHL1    C6 2669   6.077   3.483   5.789 -0.1099 -0.2088  0.1495
   21CHL1    H6 2670   6.115   3.402   5.851  1.9516  0.9976  0.5425
   21CHL1    C7 2671   6.076   3.482   5.636 -0.1431  0.2957 -0.4567
   21CHL1   H7A 2672   6.155   3.409   5.610 -1.3600 -1.7551  1.2470
   21CHL1   H7B 2673   5.973   3.447   5.610 -0.0928  0.0576 -0.3406
   21CHL1    C8 2674   6.091   3.613   5.560 -0.0199 -0.7070  0.9981
   21CHL1    H8 2675   6.196   3.645   5.575 -0.2731  0.1526  1.0049
   21CHL1   C14 2676   6.062   3.598   5.410 -0.4442 -0.1271  0.0157
   21CHL1   H14 2677   5.952   3.581   5.406 -0.7102  1.5382 -3.0370
   21CHL1   C15 2678   6.127   3.486   5.335 -0.8376  0.2818 -0.0701
   21CHL1  H15A 2679   6.238   3.484   5.346 -0.7159 -0.9791 -1.2529
   21CHL1  H15B 2680   6.093   3.383   5.359 -1.5325 -0.0387 -2.2195
   21CHL1   C16 2681   6.090   3.518   5.184  0.7695 -0.1732  0.6419
   21CHL1  H16A 2682   6.181   3.503   5.121  0.4895 -0.0940  0.2134
   21CHL1  H16B 2683   6.015   3.442   5.153 -0.8106  1.2288  0.8635
   21CHL1   C17 2684   6.025   3.654   5.177  0.6639  0.0801 -0.4414
   21CHL1   H17 2685   5.915   3.647   5.189  0.3495  0.9877 -2.4698
   21CHL1   C13 2686   6.074   3.718   5.319  0.3140 -0.0441  0.6912
   21CHL1   C18 2687   6.220   3.757   5.312 -0.5090  0.1085  0.5576
   21CHL1  H18A 2688   6.230   3.862   5.277 -0.8366 -0.1229 -0.2685
   21CHL1  H18B 2689   6.261   3.768   5.414  1.5674  1.1138 -0.3324
   21CHL1  H18C 2690   6.286   3.691   5.252 -3.2984 -0.8137 -1.7333
   21CHL1   C12 2691   5.986   3.825   5.381  0.4091  0.0072 -0.2129
   21CHL1  H12A 2692   6.003   3.920   5.326  2.9054 -0.8846 -1.1299
   21CHL1  H12B 2693   5.880   3.798   5.363  0.0217  1.4217 -0.1362
   21CHL1   C11 2694   6.011   3.852   5.531  0.2596  0.1710 -0.3871
   21CHL1  H11A 2695   6.117   3.883   5.546  0.8227  0.5409 -4.0477
   21CHL1  H11B 2696   5.944   3.932   5.567  1.2981  0.4435  0.9901
   21CHL1    C9 2697   5.996   3.715   5.613 -0.2706 -0.6619  0.3835
   21CHL1    H9 2698   5.891   3.685   5.595 -0.4106 -0.7333  1.3119
   21CHL1   C10 2699   6.010   3.737   5.764  0.1912 -0.1025 -0.2097
   21CHL1   C19 2700   6.126   3.831   5.789  0.5459  0.4285 -0.1013
   21CHL1  H19A 2701   6.166   3.829   5.893 -1.2450  0.7591  0.6254
   21CHL1  H19B 2702   6.213   3.803   5.726  0.4139 -0.5679  0.1513
   21CHL1  H19C 2703   6.090   3.934   5.766 -0.7270 -0.0741 -0.4116
   21CHL1    C1 2704   5.877   3.793   5.825  0.0057  0.2893  0.6742
   21CHL1   H1A 2705   5.872   3.898   5.788 -1.8009 -0.0831 -0.2558
   21CHL1   H1B 2706   5.797   3.726   5.787  0.9180 -1.5861  1.9382
   21CHL1    C2 2707   5.870   3.792   5.973 -0.0946 -0.6188 -0.1162
   21CHL1   H2A 2708   5.772   3.828   6.013 -0.6276  0.6809 -2.3478
   21CHL1   H2B 2709   5.949   3.858   6.014 -0.9977 -0.1600  0.9649
   21CHL1   C20 2710   6.050   3.727   5.044 -0.6825  0.6804  0.0890
   21CHL1   H20 2711   6.160   3.722   5.030 -0.6219  2.2927 -0.1763
   21CHL1   C21 2712   5.996   3.866   5.031  0.0130 -0.1099  0.3802
   21CHL1  H21A 2713   5.886   3.868   5.048 -0.1358 -0.4027 -0.4593
   21CHL1  H21B 2714   6.029   3.902   4.931  1.8908 -2.5145  0.0461
   21CHL1  H21C 2715   6.048   3.927   5.107 -1.1844  1.0874  0.2880
   21CHL1   C22 2716   6.024   3.639   4.920  0.9346  0.0429 -0.0626
   21CHL1  H22A 2717   6.067   3.680   4.826  1.5773 -0.3186  0.0666
   21CHL1  H22B 2718   6.073   3.542   4.941 -1.2613 -0.8126  1.5045
   21CHL1   C23 2719   5.876   3.612   4.895  0.1713 -0.2729  0.7689
   21CHL1  H23A 2720   5.834   3.588   4.995  1.4951 -2.5714  0.8417
   21CHL1  H23B 2721   5.827   3.704   4.855 -0.6287 -0.7212  0.6842
   21CHL1   C24 2722   5.838   3.506   4.793  0.6243 -0.2590 -0.4892
   21CHL1  H24A 2723   5.868   3.545   4.693 -0.6155 -0.2551 -0.8717
   21CHL1  H24B 2724   5.902   3.416   4.809  0.0624 -0.4561  0.8369
   21CHL1   C25 2725   5.684   3.468   4.813 -0.5499  0.0031 -0.0376
   21CHL1   H25 2726   5.675   3.442   4.921  2.8754  1.7018  0.7987
   21CHL1   C26 2727   5.597   3.595   4.790  0.0394 -0.5160  1.0299
   21CHL1  H26A 2728   5.492   3.561   4.799  1.1249 -4.0007  2.0802
   21CHL1  H26B 2729   5.609   3.668   4.872 -0.8052 -0.8436  1.4564
   21CHL1  H26C 2730   5.624   3.632   4.689 -0.9136  0.7788  1.2312
   21CHL1   C27 2731   5.646   3.346   4.730 -0.3138 -0.4297  0.8281
   21CHL1  H27A 2732   5.662   3.379   4.625  1.4799 -1.2166  0.8228
   21CHL1  H27B 2733   5.713   3.264   4.761 -1.5344 -1.2021  1.4872
   21CHL1  H27C 2734   5.544   3.307   4.750 -1.0682  0.4883 -0.9422
   22CHL1    C3 2735   0.848   2.832   6.087  0.5589 -0.3352  0.6582
   22CHL1    H3 2736   0.849   2.942   6.071  1.2827 -0.4511 -0.1281
   22CHL1    O3 2737   0.865   2.809   6.222  0.3806  0.1919  0.1943
   22CHL1   H3' 2738   0.948   2.851   6.244 -0.3631  1.5333  0.5378
   22CHL1    C4 2739   0.716   2.777   6.040  0.5387 -0.2061  0.2249
   22CHL1   H4A 2740   0.721   2.667   6.048  1.8679 -0.0921  1.3084
   22CHL1   H4B 2741   0.629   2.809   6.100 -0.4863  0.0673 -1.3459
   22CHL1    C5 2742   0.691   2.819   5.894 -0.3393 -0.7150  0.1974
   22CHL1    C6 2743   0.581   2.890   5.853 -0.6421 -0.8764  0.0861
   22CHL1    H6 2744   0.508   2.921   5.930  0.8692  1.2182  0.7430
   22CHL1    C7 2745   0.554   2.928   5.712 -1.0439  0.8874  0.2664
   22CHL1   H7A 2746   0.446   2.915   5.690 -1.3480  2.9009  0.4214
   22CHL1   H7B 2747   0.588   3.033   5.700 -0.0181  0.4406 -0.8949
   22CHL1    C8 2748   0.651   2.849   5.611  1.0021  0.2392 -0.0147
   22CHL1    H8 2749   0.618   2.745   5.590  1.4585  0.3896 -1.6260
   22CHL1   C14 2750   0.638   2.928   5.483 -0.1578 -0.4382 -0.5149
   22CHL1   H14 2751   0.686   3.024   5.511  0.3650 -0.6417 -0.7164
   22CHL1   C15 2752   0.498   2.959   5.415 -0.2999  0.4061 -0.5038
   22CHL1  H15A 2753   0.430   2.872   5.424 -1.6638  1.4111 -0.6845
   22CHL1  H15B 2754   0.465   3.038   5.486  3.7644  1.0964  0.9304
   22CHL1   C16 2755   0.535   2.997   5.274 -0.7900 -0.3775  0.3837
   22CHL1  H16A 2756   0.481   2.951   5.188 -0.5185  2.3619 -1.3545
   22CHL1  H16B 2757   0.532   3.106   5.257  2.4789 -0.5845 -2.6590
   22CHL1   C17 2758   0.690   2.971   5.262 -0.4434  0.0140 -0.0428
   22CHL1   H17 2759   0.734   3.065   5.299  1.7397  0.1493 -2.7019
   22CHL1   C13 2760   0.726   2.866   5.370  0.6880  0.2817 -0.2435
   22CHL1   C18 2761   0.690   2.725   5.311  0.6655 -0.3547  0.1753
   22CHL1  H18A 2762   0.583   2.718   5.284  0.5031 -1.7712  1.1104
   22CHL1  H18B 2763   0.765   2.696   5.234 -1.4832  0.1007 -2.2390
   22CHL1  H18C 2764   0.707   2.643   5.384 -2.1640  0.3218  1.7538
   22CHL1   C12 2765   0.875   2.864   5.419  0.5352  0.0785 -0.3199
   22CHL1  H12A 2766   0.929   2.812   5.336 -1.5364 -0.3940 -1.4276
   22CHL1  H12B 2767   0.899   2.972   5.430  0.7255 -0.0850  0.9941
   22CHL1   C11 2768   0.889   2.795   5.558 -0.4478  0.5173 -0.6988
   22CHL1  H11A 2769   0.872   2.688   5.533  1.8639 -0.4536  1.4859
   22CHL1  H11B 2770   0.996   2.805   5.585 -0.6267 -1.0200  0.6891
   22CHL1    C9 2771   0.790   2.839   5.661 -0.1841 -0.5175 -0.5376
   22CHL1    H9 2772   0.822   2.945   5.672  0.1830 -0.6202 -0.6040
   22CHL1   C10 2773   0.800   2.769   5.796 -0.3197  0.0505  0.2677
   22CHL1   C19 2774   0.786   2.614   5.778 -0.0796  0.3072  0.2959
   22CHL1  H19A 2775   0.788   2.560   5.876 -0.4483  2.2367  1.4149
   22CHL1  H19B 2776   0.687   2.591   5.735  0.0822  0.6825 -0.2822
   22CHL1  H19C 2777   0.870   2.574   5.717  0.2147  0.6199  0.4893
   22CHL1    C1 2778   0.941   2.804   5.854  0.3296  0.2009 -0.3418
   22CHL1   H1A 2779   1.015   2.753   5.788  0.0751  0.1680 -0.6009
   22CHL1   H1B 2780   0.956   2.913   5.838  0.5496  0.2779  0.3305
   22CHL1    C2 2781   0.967   2.779   6.006 -0.2632 -0.6848 -0.2145
   22CHL1   H2A 2782   1.064   2.820   6.041 -0.5636 -0.9237  0.9341
   22CHL1   H2B 2783   0.988   2.671   6.020  0.1175 -0.4701  0.9051
   22CHL1   C20 2784   0.754   2.953   5.122  0.7937  0.2352 -0.0743
   22CHL1   H20 2785   0.857   2.911   5.117  1.4724  1.5568  1.7251
   22CHL1   C21 2786   0.772   3.092   5.062  0.1344  0.3499  0.2880
   22CHL1  H21A 2787   0.823   3.160   5.133 -1.6564  1.7617  0.3035
   22CHL1  H21B 2788   0.671   3.136   5.045 -0.1972 -0.5905 -0.2371
   22CHL1  H21C 2789   0.838   3.083   4.973  1.8910 -1.5495  1.7109
   22CHL1   C22 2790   0.669   2.866   5.029 -0.3144  0.1345  0.4081
   22CHL1  H22A 2791   0.638   2.768   5.071 -1.0840 -0.1160 -0.7088
   22CHL1  H22B 2792   0.566   2.901   5.006 -0.0229  0.7299 -0.0028
   22CHL1   C23 2793   0.740   2.838   4.897  0.8621  0.3444  0.5731
   22CHL1  H23A 2794   0.738   2.927   4.832  0.3424  1.3776  1.9421
   22CHL1  H23B 2795   0.843   2.797   4.897  0.2713 -1.2347 -0.3654
   22CHL1   C24 2796   0.652   2.738   4.813  0.0852  0.1868 -0.7965
   22CHL1  H24A 2797   0.630   2.649   4.876 -0.5530  0.9365  0.0818
   22CHL1  H24B 2798   0.555   2.791   4.807  0.5176  0.9472 -1.1960
   22CHL1   C25 2799   0.698   2.687   4.675 -0.1835  0.3143  0.4031
   22CHL1   H25 2800   0.610   2.631   4.637  0.1318  0.5857 -0.7844
   22CHL1   C26 2801   0.719   2.793   4.566  0.0938 -0.1857  0.0933
   22CHL1  H26A 2802   0.768   2.751   4.476 -1.0615 -0.7077 -0.3108
   22CHL1  H26B 2803   0.619   2.836   4.544  0.5806 -0.6786 -3.6434
   22CHL1  H26C 2804   0.768   2.884   4.607 -1.4082  1.6986 -2.0484
   22CHL1   C27 2805   0.815   2.592   4.688  0.4724  0.1132 -0.3304
   22CHL1  H27A 2806   0.865   2.564   4.593  0.1257  2.3105 -1.2207
   22CHL1  H27B 2807   0.895   2.637   4.751  0.4530  1.2131 -1.0804
   22CHL1  H27C 2808   0.779   2.496   4.731  0.8282  0.1720  0.1014
   23CHL1    C3 2809   5.135   3.044   6.374 -0.4093 -0.5535 -0.1321
   23CHL1    H3 2810   5.092   2.942   6.380 -0.2208 -0.5396  2.8554
   23CHL1    O3 2811   5.127   3.098   6.500  0.4087  0.0454 -0.0927
   23CHL1   H3' 2812   5.097   3.187   6.481 -1.5261 -0.4048  0.6018
   23CHL1    C4 2813   5.276   3.044   6.322 -0.1139  0.2659 -0.4434
   23CHL1   H4A 2814   5.317   3.147   6.332 -0.2576  0.1813  1.5560
   23CHL1   H4B 2815   5.336   2.982   6.392 -0.0626 -0.1328 -0.8411
   23CHL1    C5 2816   5.291   3.008   6.179  0.3255  0.5249  0.1316
   23CHL1    C6 2817   5.376   2.911   6.157 -0.5165 -0.8797  0.3040
   23CHL1    H6 2818   5.426   2.863   6.243  1.2770 -0.8649 -0.6856
   23CHL1    C7 2819   5.415   2.869   6.020 -0.9877 -0.3505 -0.1973
   23CHL1   H7A 2820   5.525   2.856   6.018 -1.2025 -2.5920 -0.4209
   23CHL1   H7B 2821   5.349   2.786   5.987  0.0452 -1.8326  1.2748
   23CHL1    C8 2822   5.369   2.979   5.913 -0.6200  0.0758  0.6957
   23CHL1    H8 2823   5.426   3.075   5.917 -0.5601  0.2347 -2.1862
   23CHL1   C14 2824   5.370   2.914   5.767  0.1804 -0.0622 -0.6757
   23CHL1   H14 2825   5.295   2.832   5.770  0.7949 -0.7141  3.5212
   23CHL1   C15 2826   5.499   2.843   5.732  0.1874 -0.9785  0.5527
   23CHL1  H15A 2827   5.580   2.910   5.768  0.1223 -0.3630 -0.4078
   23CHL1  H15B 2828   5.499   2.748   5.789  1.6649  0.0133  2.3177
   23CHL1   C16 2829   5.488   2.832   5.572 -0.5111  0.1866 -0.3689
   23CHL1  H16A 2830   5.584   2.877   5.539 -1.3386  1.1241 -1.6028
   23CHL1  H16B 2831   5.479   2.729   5.532 -0.0007  0.1785 -0.4756
   23CHL1   C17 2832   5.368   2.914   5.525  0.1661  0.2584  0.0205
   23CHL1   H17 2833   5.283   2.843   5.526  0.3973 -0.0851  2.5965
   23CHL1   C13 2834   5.341   3.012   5.653  0.2970 -0.3035 -0.3881
   23CHL1   C18 2835   5.435   3.130   5.637  0.1329 -0.3196  0.1691
   23CHL1  H18A 2836   5.538   3.094   5.622  0.4900  0.5087  0.5625
   23CHL1  H18B 2837   5.400   3.189   5.549  0.8294 -1.4335 -0.8711
   23CHL1  H18C 2838   5.440   3.195   5.728 -0.9229 -1.4605  1.0813
   23CHL1   C12 2839   5.193   3.043   5.680 -0.0267 -0.3271  0.8092
   23CHL1  H12A 2840   5.154   3.108   5.598 -0.9747 -0.1936  1.3650
   23CHL1  H12B 2841   5.134   2.950   5.672  1.9625 -1.5542 -0.7916
   23CHL1   C11 2842   5.168   3.112   5.815  0.1767  0.0178 -0.6881
   23CHL1  H11A 2843   5.218   3.211   5.807  0.4879 -0.0401  0.3849
   23CHL1  H11B 2844   5.059   3.121   5.832 -0.2133 -2.0120 -1.7624
   23CHL1    C9 2845   5.223   3.030   5.939  0.5551  0.4981 -1.1027
   23CHL1    H9 2846   5.169   2.933   5.936 -1.0144  1.2701  0.2708
   23CHL1   C10 2847   5.207   3.090   6.083 -0.7895  0.0109  0.8822
   23CHL1   C19 2848   5.254   3.240   6.083  0.2644 -0.6964  0.3294
   23CHL1  H19A 2849   5.248   3.277   6.188 -1.6107 -2.5160  0.9280
   23CHL1  H19B 2850   5.358   3.236   6.046  0.3355 -1.8565  0.6154
   23CHL1  H19C 2851   5.195   3.306   6.015  1.6436 -1.0154 -1.2308
   23CHL1    C1 2852   5.055   3.089   6.129 -0.0370 -0.2317 -0.0526
   23CHL1   H1A 2853   5.003   3.156   6.056 -0.7945 -0.3813  0.3402
   23CHL1   H1B 2854   5.006   2.990   6.127 -0.9892  0.2074  0.6381
   23CHL1    C2 2855   5.045   3.128   6.278 -0.9030 -0.5888 -0.4699
   23CHL1   H2A 2856   4.943   3.123   6.323  1.2781 -0.4239  5.3057
   23CHL1   H2B 2857   5.068   3.236   6.275 -1.9369 -0.3666 -1.6186
   23CHL1   C20 2858   5.376   2.978   5.382 -0.8389  0.1995 -0.2355
   23CHL1   H20 2859   5.447   3.063   5.379 -0.1906 -0.3474 -2.1344
   23CHL1   C21 2860   5.245   3.043   5.339 -0.1035  0.7899 -0.7322
   23CHL1  H21A 2861   5.224   3.116   5.420  2.7423 -1.2690  2.1175
   23CHL1  H21B 2862   5.164   2.970   5.318 -0.5150  0.6427  1.1526
   23CHL1  H21C 2863   5.259   3.109   5.251  1.7990 -0.3205 -1.3178
   23CHL1   C22 2864   5.416   2.880   5.268 -0.2395  0.2765  0.2661
   23CHL1  H22A 2865   5.510   2.833   5.306  0.8203  4.0272  2.8188
   23CHL1  H22B 2866   5.330   2.809   5.266  0.9817 -1.2356 -1.2846
   23CHL1   C23 2867   5.445   2.936   5.128 -0.0763 -0.4954  0.5039
   23CHL1  H23A 2868   5.350   2.978   5.086  0.5945  1.3789  0.7685
   23CHL1  H23B 2869   5.527   3.009   5.143  0.2266 -0.3847 -1.3860
   23CHL1   C24 2870   5.500   2.833   5.023  0.2412 -0.3600 -0.0516
   23CHL1  H24A 2871   5.605   2.812   5.053  1.1145  0.6356 -2.2012
   23CHL1  H24B 2872   5.439   2.742   5.040 -0.7087  0.5957  2.0147
   23CHL1   C25 2873   5.487   2.876   4.875  0.9395 -0.0451 -0.3536
   23CHL1   H25 2874   5.383   2.907   4.850  0.2806  0.4845  2.5595
   23CHL1   C26 2875   5.563   3.004   4.855  0.3188  0.7778  0.5005
   23CHL1  H26A 2876   5.589   3.029   4.750 -0.7994 -2.1361 -0.6011
   23CHL1  H26B 2877   5.512   3.099   4.883 -3.2047 -0.5460 -0.7817
   23CHL1  H26C 2878   5.660   2.997   4.908  0.4543  1.4861  0.3484
   23CHL1   C27 2879   5.526   2.761   4.787 -0.5578  0.4582  0.1941
   23CHL1  H27A 2880   5.463   2.670   4.793 -1.6944  0.8502 -3.4436
   23CHL1  H27B 2881   5.515   2.787   4.680 -2.1165  1.7080  0.6105
   23CHL1  H27C 2882   5.628   2.722   4.811 -0.5372  0.4396  0.0785
   24CHL1    C3 2883   1.893   2.910   5.730  0.2420  0.2060 -0.3394
   24CHL1    H3 2884   1.997   2.947   5.743  0.5863 -0.9783  0.4932
   24CHL1    O3 2885   1.865   2.848   5.853  0.2407  0.1009  0.1424
   24CHL1   H3' 2886   1.844   2.921   5.910  2.6681 -0.9219  2.5570
   24CHL1    C4 2887   1.804   3.031   5.700 -0.6954  0.0607  0.0903
   24CHL1   H4A 2888   1.699   2.994   5.702 -0.3657 -0.9681 -0.8289
   24CHL1   H4B 2889   1.821   3.110   5.776 -0.2234 -1.5863  1.7693
   24CHL1    C5 2890   1.831   3.089   5.565  0.2585 -0.2122 -0.6107
   24CHL1    C6 2891   1.867   3.219   5.547 -0.4627 -0.1741  0.2925
   24CHL1    H6 2892   1.863   3.291   5.630 -2.1990  0.4654 -0.2935
   24CHL1    C7 2893   1.904   3.274   5.417  0.3790 -0.0093 -0.3482
   24CHL1   H7A 2894   1.855   3.373   5.409  0.1132 -0.2472 -2.0299
   24CHL1   H7B 2895   2.012   3.296   5.415  0.2409  1.0719  1.4959
   24CHL1    C8 2896   1.851   3.193   5.295  0.1889  0.5266 -0.1510
   24CHL1    H8 2897   1.740   3.194   5.293  0.1889 -0.3792 -1.7216
   24CHL1   C14 2898   1.928   3.242   5.171  0.0937  0.0382 -0.7737
   24CHL1   H14 2899   2.036   3.226   5.195 -0.2663  0.8673  1.6101
   24CHL1   C15 2900   1.931   3.396   5.134 -0.0693  0.7741 -0.8748
   24CHL1  H15A 2901   1.830   3.437   5.155  0.5326  0.6826  2.7808
   24CHL1  H15B 2902   2.006   3.442   5.202  0.3314 -0.6647 -0.3165
   24CHL1   C16 2903   1.961   3.393   4.986 -0.1151 -0.0153 -0.4084
   24CHL1  H16A 2904   1.883   3.447   4.928 -2.0392  1.8642  3.5275
   24CHL1  H16B 2905   2.056   3.446   4.967 -0.9737  1.0980 -1.8026
   24CHL1   C17 2906   1.982   3.242   4.940  0.0025  0.7577  0.0113
   24CHL1   H17 2907   2.090   3.223   4.956  0.0567  0.8061 -0.2927
   24CHL1   C13 2908   1.901   3.166   5.049 -0.1465  0.0030  0.5739
   24CHL1   C18 2909   1.750   3.181   5.014 -0.1890  0.1397 -0.0658
   24CHL1  H18A 2910   1.721   3.125   4.923 -1.0784  1.2029 -0.4630
   24CHL1  H18B 2911   1.677   3.153   5.093 -0.4206 -2.2972 -1.0699
   24CHL1  H18C 2912   1.719   3.286   4.992  2.9108  1.0185 -0.7759
   24CHL1   C12 2913   1.933   3.016   5.071  0.0612 -0.5621  0.4788
   24CHL1  H12A 2914   1.897   2.959   4.983 -1.6693  1.8975 -0.5465
   24CHL1  H12B 2915   2.041   2.994   5.084  0.1577 -1.6738 -1.6785
   24CHL1   C11 2916   1.850   2.960   5.190  0.0240  0.2660 -0.5711
   24CHL1  H11A 2917   1.742   2.963   5.166 -0.4971  2.4662  1.5466
   24CHL1  H11B 2918   1.871   2.852   5.200 -2.6170 -0.3482 -1.0374
   24CHL1    C9 2919   1.891   3.045   5.319  0.3502 -0.2421 -0.1557
   24CHL1    H9 2920   2.001   3.039   5.326  0.3996 -1.3242 -1.3669
   24CHL1   C10 2921   1.827   2.986   5.450 -0.4042  0.1578  0.3141
   24CHL1   C19 2922   1.674   2.967   5.438  0.3699 -0.2958 -0.0328
   24CHL1  H19A 2923   1.635   2.904   5.521 -1.8560 -0.4735 -1.1406
   24CHL1  H19B 2924   1.609   3.057   5.443 -0.5430 -0.7758 -2.2660
   24CHL1  H19C 2925   1.631   2.920   5.347  1.2994  0.9152 -1.1181
   24CHL1    C1 2926   1.898   2.850   5.491  0.3935  0.0980  0.0557
   24CHL1   H1A 2927   1.868   2.774   5.416 -0.4343 -1.8456  2.2426
   24CHL1   H1B 2928   2.001   2.890   5.477  1.3039 -0.9514  3.0328
   24CHL1    C2 2929   1.883   2.798   5.625  0.0740 -0.2638 -0.5894
   24CHL1   H2A 2930   1.944   2.707   5.648  1.8229  1.2575  1.2175
   24CHL1   H2B 2931   1.777   2.766   5.632 -0.0959  0.4970  0.6089
   24CHL1   C20 2932   1.943   3.221   4.786  0.1645  0.6010  0.6209
   24CHL1   H20 2933   1.837   3.249   4.770  0.0577  0.4403  1.0334
   24CHL1   C21 2934   1.967   3.077   4.744 -0.0821 -0.3263 -0.3046
   24CHL1  H21A 2935   1.951   3.065   4.634 -2.4674  1.7890 -0.2893
   24CHL1  H21B 2936   1.886   3.018   4.792  0.7145  0.8136  2.5965
   24CHL1  H21C 2937   2.062   3.024   4.764 -1.4581 -2.9543 -0.1795
   24CHL1   C22 2938   2.027   3.323   4.697 -0.1365  0.2000  0.4496
   24CHL1  H22A 2939   1.984   3.425   4.710 -0.5574  0.1305 -0.3183
   24CHL1  H22B 2940   2.130   3.316   4.738  0.4969  1.0274 -0.9238
   24CHL1   C23 2941   2.022   3.292   4.547 -0.3069  0.2144 -0.3180
   24CHL1  H23A 2942   2.048   3.185   4.529  1.2137  0.6412 -0.7746
   24CHL1  H23B 2943   1.919   3.311   4.510 -0.8392  0.3142  1.1413
   24CHL1   C24 2944   2.108   3.388   4.467 -0.0934 -0.9771  0.1108
   24CHL1  H24A 2945   2.071   3.489   4.494 -0.0312 -0.1871 -2.4992
   24CHL1  H24B 2946   2.215   3.383   4.496 -0.3764  0.0650  1.4086
   24CHL1   C25 2947   2.098   3.375   4.312 -0.0336  0.3032  0.4780
   24CHL1   H25 2948   1.995   3.345   4.284  0.1230 -0.2834  0.5119
   24CHL1   C26 2949   2.116   3.519   4.245 -0.1157  0.4663 -0.1986
   24CHL1  H26A 2950   2.225   3.542   4.244 -0.0264  0.0463 -0.6106
   24CHL1  H26B 2951   2.086   3.504   4.139 -2.3216 -0.2294  0.4643
   24CHL1  H26C 2952   2.057   3.596   4.299  0.7065 -0.0920  1.5576
   24CHL1   C27 2953   2.203   3.272   4.252  0.4610  0.0367  0.0155
   24CHL1  H27A 2954   2.164   3.170   4.275 -3.7492  1.5990  0.6668
   24CHL1  H27B 2955   2.222   3.283   4.143  1.8387  0.7003  0.3026
   24CHL1  H27C 2956   2.298   3.276   4.309  0.5860 -1.8518  0.0053
   25CHL1    C3 2957   3.831   5.622   6.358  0.1739 -0.2331  0.7914
   25CHL1    H3 2958   3.920   5.556   6.371  0.1267 -0.1799  1.4158
   25CHL1    O3 2959   3.773   5.640   6.481 -0.0268  0.5786 -0.8108
   25CHL1   H3' 2960   3.698   5.696   6.460  0.9468  1.1054 -3.1588
   25CHL1    C4 2961   3.897   5.749   6.322  0.1930 -0.8073 -0.2515
   25CHL1   H4A 2962   3.833   5.839   6.334  1.9038  0.3127  0.8932
   25CHL1   H4B 2963   3.982   5.765   6.391  0.6332  1.0630 -1.1624
   25CHL1    C5 2964   3.942   5.762   6.177 -0.6363  0.2891 -0.4191
   25CHL1    C6 2965   4.070   5.789   6.159 -0.5121  0.5057  0.3006
   25CHL1    H6 2966   4.136   5.811   6.244 -0.4648  0.6133  0.2366
   25CHL1    C7 2967   4.140   5.792   6.022 -0.3575  0.0079 -0.0305
   25CHL1   H7A 2968   4.196   5.888   6.017 -0.7202  0.2118 -0.2601
   25CHL1   H7B 2969   4.214   5.709   6.016  0.8388  1.0853 -5.2681
   25CHL1    C8 2970   4.045   5.781   5.904  0.7956 -0.4286  0.3842
   25CHL1    H8 2971   3.993   5.879   5.897 -0.5952 -1.1648 -0.0228
   25CHL1   C14 2972   4.114   5.741   5.776 -0.2245 -0.5225  0.5942
   25CHL1   H14 2973   4.163   5.644   5.798  2.3023  0.7007  0.7954
   25CHL1   C15 2974   4.230   5.840   5.741  0.0402  0.6874 -0.0622
   25CHL1  H15A 2975   4.197   5.945   5.751  2.5771  1.5142  0.0752
   25CHL1  H15B 2976   4.309   5.809   5.813 -3.4669 -1.1667  3.3958
   25CHL1   C16 2977   4.253   5.811   5.587 -0.3924  0.1673  0.0286
   25CHL1  H16A 2978   4.251   5.900   5.521 -3.3849  0.4632  0.3876
   25CHL1  H16B 2979   4.352   5.766   5.564 -0.9311 -0.6413 -0.7839
   25CHL1   C17 2980   4.141   5.706   5.545  0.1566 -0.1925 -0.3229
   25CHL1   H17 2981   4.194   5.608   5.552  1.1391  0.2514 -1.2958
   25CHL1   C13 2982   4.032   5.718   5.657 -0.3611 -0.0767 -0.7424
   25CHL1   C18 2983   3.940   5.840   5.623  0.0695 -0.7711  0.0326
   25CHL1  H18A 2984   3.882   5.876   5.711 -0.8875 -0.5380 -0.6760
   25CHL1  H18B 2985   4.005   5.925   5.594 -1.4830  0.1660 -0.8260
   25CHL1  H18C 2986   3.872   5.816   5.538 -1.1532  2.3506  0.0123
   25CHL1   C12 2987   3.940   5.596   5.686 -0.2611 -0.5204 -0.6967
   25CHL1  H12A 2988   3.867   5.580   5.604  1.1064 -0.5774 -1.9428
   25CHL1  H12B 2989   3.996   5.501   5.695 -1.5999 -1.5213 -2.4138
   25CHL1   C11 2990   3.857   5.624   5.813  0.4288 -0.0517 -0.0103
   25CHL1  H11A 2991   3.789   5.706   5.781  1.6969  1.3303  0.6895
   25CHL1  H11B 2992   3.784   5.543   5.834 -0.1067 -0.0586 -1.7167
   25CHL1    C9 2993   3.935   5.677   5.936  1.0852  0.3320  0.2049
   25CHL1    H9 2994   3.988   5.588   5.976 -1.3447  0.0035  2.9885
   25CHL1   C10 2995   3.851   5.705   6.068 -0.3562  0.2906 -0.0424
   25CHL1   C19 2996   3.748   5.810   6.041  0.5868  0.5807  0.9573
   25CHL1  H19A 2997   3.800   5.905   6.014  1.7863  0.1176  1.5526
   25CHL1  H19B 2998   3.682   5.774   5.960 -1.1367  0.1292  2.5039
   25CHL1  H19C 2999   3.685   5.822   6.131 -2.0273 -0.7498 -0.5818
   25CHL1    C1 3000   3.780   5.574   6.116  0.1740  0.1744  0.0640
   25CHL1   H1A 3001   3.706   5.547   6.038  1.0619  0.7093 -0.9827
   25CHL1   H1B 3002   3.848   5.487   6.129 -1.9428 -1.7183 -0.7373
   25CHL1    C2 3003   3.722   5.580   6.260  0.0899 -0.9344 -0.4182
   25CHL1   H2A 3004   3.678   5.482   6.288 -0.7878 -0.6732 -0.8788
   25CHL1   H2B 3005   3.644   5.659   6.258  2.3835  1.4886  0.3871
   25CHL1   C20 3006   4.098   5.719   5.397 -0.4821 -0.4122 -0.4553
   25CHL1   H20 3007   4.051   5.819   5.390  0.7103  0.2308  0.2943
   25CHL1   C21 3008   4.007   5.608   5.348  0.0683 -0.7750 -0.7837
   25CHL1  H21A 3009   4.007   5.614   5.237  3.6275  1.4744 -0.8023
   25CHL1  H21B 3010   3.903   5.630   5.381  1.2796  1.0374  2.2033
   25CHL1  H21C 3011   4.028   5.508   5.391  0.2809 -0.4801 -0.1965
   25CHL1   C22 3012   4.218   5.733   5.293  0.0526 -0.1989  0.0919
   25CHL1  H22A 3013   4.311   5.782   5.330  0.8208 -1.9019  0.5050
   25CHL1  H22B 3014   4.252   5.629   5.273 -1.6745 -0.2043 -3.8722
   25CHL1   C23 3015   4.176   5.802   5.167 -0.6595  0.5783 -0.3467
   25CHL1  H23A 3016   4.096   5.749   5.111  0.5989  0.8781 -2.5605
   25CHL1  H23B 3017   4.132   5.902   5.187  0.5098  1.5356 -2.2829
   25CHL1   C24 3018   4.298   5.816   5.068  0.3593 -0.5996  0.0660
   25CHL1  H24A 3019   4.379   5.879   5.110  0.0569 -0.8134  0.9991
   25CHL1  H24B 3020   4.350   5.720   5.046  1.2478 -0.4905  1.5273
   25CHL1   C25 3021   4.254   5.888   4.941  0.5341  0.3117 -0.2428
   25CHL1   H25 3022   4.203   5.982   4.971  2.1716  1.3922 -0.7476
   25CHL1   C26 3023   4.375   5.931   4.857 -0.1777  0.3656  0.0534
   25CHL1  H26A 3024   4.356   6.000   4.772  1.2233  0.4370 -0.2299
   25CHL1  H26B 3025   4.442   5.990   4.922  1.2835  1.0873 -1.9897
   25CHL1  H26C 3026   4.429   5.843   4.814  2.1250  2.0624 -0.7527
   25CHL1   C27 3027   4.160   5.800   4.857 -0.2399  0.1617 -0.2109
   25CHL1  H27A 3028   4.121   5.864   4.775  1.3722 -0.0607 -1.1871
   25CHL1  H27B 3029   4.205   5.702   4.829  0.0855 -0.2265  1.5572
   25CHL1  H27C 3030   4.075   5.766   4.921 -0.6284  0.9234 -0.3132
   26CHL1    C3 3031   2.341   2.332   6.150  0.6562  0.3206 -0.3641
   26CHL1    H3 3032   2.304   2.237   6.106 -0.8185  0.6539  0.0942
   26CHL1    O3 3033   2.357   2.318   6.291 -0.5299 -0.0540  0.3656
   26CHL1   H3' 3034   2.398   2.398   6.324  1.0085 -1.1222  1.1827
   26CHL1    C4 3035   2.479   2.365   6.074 -0.1660  0.8919 -0.1005
   26CHL1   H4A 3036   2.501   2.460   6.128 -0.2829  0.1339  1.3223
   26CHL1   H4B 3037   2.543   2.276   6.094  1.4796  2.0683  0.0284
   26CHL1    C5 3038   2.465   2.388   5.926 -0.2577  0.3829 -0.5533
   26CHL1    C6 3039   2.530   2.323   5.834  0.1860 -0.7776  1.1864
   26CHL1    H6 3040   2.599   2.242   5.863  0.7692 -0.3048  1.1393
   26CHL1    C7 3041   2.523   2.361   5.692 -0.2635  0.1406 -0.0898
   26CHL1   H7A 3042   2.623   2.368   5.644 -0.5060  3.8778 -0.3934
   26CHL1   H7B 3043   2.472   2.272   5.649  0.8941 -1.4254  1.6105
   26CHL1    C8 3044   2.452   2.501   5.662  0.4905 -0.4176  0.4935
   26CHL1    H8 3045   2.521   2.580   5.697 -1.2304  1.3712  0.0240
   26CHL1   C14 3046   2.414   2.513   5.516 -0.0711 -0.2370  0.0754
   26CHL1   H14 3047   2.353   2.424   5.488  1.5912 -1.0827 -1.0383
   26CHL1   C15 3048   2.529   2.493   5.415  0.4046  0.1906  0.5724
   26CHL1  H15A 3049   2.615   2.553   5.453  1.4690 -1.4104  0.8030
   26CHL1  H15B 3050   2.558   2.386   5.404  1.6558  0.6938 -1.5261
   26CHL1   C16 3051   2.479   2.542   5.279  0.2623 -0.7919  0.0030
   26CHL1  H16A 3052   2.546   2.627   5.255 -0.9782  1.0509  2.5481
   26CHL1  H16B 3053   2.476   2.477   5.189 -0.5442  2.8102 -2.8003
   26CHL1   C17 3054   2.338   2.599   5.318  0.3772 -0.3927  0.1692
   26CHL1   H17 3055   2.257   2.526   5.298 -0.7716  0.7610  0.4734
   26CHL1   C13 3056   2.334   2.629   5.470  0.0215  0.5290 -0.5117
   26CHL1   C18 3057   2.412   2.757   5.511 -0.4902 -0.5895 -0.3646
   26CHL1  H18A 3058   2.358   2.849   5.478  0.8075  1.0904  1.9537
   26CHL1  H18B 3059   2.431   2.750   5.620 -0.8213 -0.5350 -0.3033
   26CHL1  H18C 3060   2.508   2.767   5.456 -0.5923 -0.6864 -0.5620
   26CHL1   C12 3061   2.204   2.611   5.551  0.7905 -0.2143  0.1280
   26CHL1  H12A 3062   2.135   2.694   5.529 -0.9132 -1.6425 -0.1804
   26CHL1  H12B 3063   2.163   2.513   5.518  2.1285 -0.3208 -1.3381
   26CHL1   C11 3064   2.220   2.605   5.701 -0.1856  0.7417 -0.0358
   26CHL1  H11A 3065   2.266   2.700   5.734 -0.5586  0.8634  0.1412
   26CHL1  H11B 3066   2.126   2.583   5.755  1.6375 -0.5196  2.8658
   26CHL1    C9 3067   2.319   2.500   5.744 -0.0906  0.4538  0.0723
   26CHL1    H9 3068   2.282   2.397   5.727  0.7183  0.1349  0.1799
   26CHL1   C10 3069   2.363   2.497   5.892 -0.0743 -0.3492  0.4913
   26CHL1   C19 3070   2.425   2.641   5.939  0.6614  0.1604 -0.7691
   26CHL1  H19A 3071   2.343   2.715   5.937  0.4668 -0.0685 -1.3680
   26CHL1  H19B 3072   2.448   2.640   6.048 -3.1947 -0.1976  0.1593
   26CHL1  H19C 3073   2.509   2.691   5.886  0.3915  3.3118  1.4626
   26CHL1    C1 3074   2.231   2.456   5.961 -0.1149 -0.1860 -0.2506
   26CHL1   H1A 3075   2.143   2.521   5.945 -2.4144 -3.3892 -1.7627
   26CHL1   H1B 3076   2.187   2.363   5.919  0.2758 -0.3530 -0.2936
   26CHL1    C2 3077   2.236   2.437   6.117 -0.4272  0.6046  0.1691
   26CHL1   H2A 3078   2.142   2.398   6.161  0.6669 -2.4163  0.0550
   26CHL1   H2B 3079   2.273   2.531   6.164 -0.8683  0.5713  0.5858
   26CHL1   C20 3080   2.318   2.726   5.233  0.0423  0.6812 -0.3200
   26CHL1   H20 3081   2.392   2.803   5.264 -1.6728  2.4401 -0.4146
   26CHL1   C21 3082   2.180   2.780   5.266  0.2860  0.0351  0.4803
   26CHL1  H21A 3083   2.100   2.703   5.269  1.0807 -0.8180  0.1364
   26CHL1  H21B 3084   2.149   2.850   5.185 -0.6432 -0.2399  0.5801
   26CHL1  H21C 3085   2.180   2.843   5.358  1.0322  2.0050 -0.8081
   26CHL1   C22 3086   2.334   2.703   5.079  0.8111 -0.0878 -0.3871
   26CHL1  H22A 3087   2.324   2.799   5.024 -0.7192  0.8140  1.3572
   26CHL1  H22B 3088   2.436   2.669   5.050  0.0717 -0.8653 -2.2613
   26CHL1   C23 3089   2.231   2.612   5.021 -0.9566 -0.4827  0.5920
   26CHL1  H23A 3090   2.252   2.516   5.073 -2.9075 -0.3128  1.7754
   26CHL1  H23B 3091   2.124   2.635   5.035 -1.5485 -2.7513  0.1615
   26CHL1   C24 3092   2.238   2.600   4.869  0.1201  0.1180  0.2360
   26CHL1  H24A 3093   2.269   2.702   4.838  0.4404  0.4175  1.5053
   26CHL1  H24B 3094   2.318   2.526   4.848  0.2437  0.4508 -0.4914
   26CHL1   C25 3095   2.105   2.553   4.799  0.0284 -0.2446  0.4834
   26CHL1   H25 3096   2.058   2.472   4.858 -0.0732 -0.1682  0.5084
   26CHL1   C26 3097   2.004   2.668   4.805  0.2198  0.4909  0.0026
   26CHL1  H26A 3098   2.051   2.761   4.768  2.7308  0.7038  3.2129
   26CHL1  H26B 3099   1.916   2.639   4.745  1.6248  1.7062 -2.7968
   26CHL1  H26C 3100   1.969   2.685   4.909 -1.0124 -0.6266 -0.2067
   26CHL1   C27 3101   2.136   2.518   4.652  0.6489 -0.4365 -0.6434
   26CHL1  H27A 3102   2.197   2.604   4.618 -1.8296  1.3463 -0.8107
   26CHL1  H27B 3103   2.207   2.432   4.653  3.4557  1.7224 -1.6180
   26CHL1  H27C 3104   2.058   2.500   4.575  1.1437  0.6134 -1.4187
   27CHL1    C3 3105   5.748   1.192   6.331  0.2530  0.1875  0.0196
   27CHL1    H3 3106   5.654   1.251   6.335 -0.6691 -1.1461 -1.1466
   27CHL1    O3 3107   5.770   1.133   6.464  0.1635 -0.3234  0.0328
   27CHL1   H3' 3108   5.833   1.195   6.502  0.7124 -0.0037 -1.3308
   27CHL1    C4 3109   5.723   1.089   6.214 -0.6585  0.0320 -0.5880
   27CHL1   H4A 3110   5.812   1.023   6.203 -1.7405 -2.1694  2.4553
   27CHL1   H4B 3111   5.633   1.031   6.244  1.4654 -3.6728 -0.7324
   27CHL1    C5 3112   5.705   1.163   6.079 -0.0280 -0.0765 -0.0441
   27CHL1    C6 3113   5.600   1.141   5.999 -0.1083 -0.3152  0.4728
   27CHL1    H6 3114   5.517   1.074   6.026 -0.2278  0.1801  1.3946
   27CHL1    C7 3115   5.590   1.197   5.862  0.4921  0.2174 -0.6015
   27CHL1   H7A 3116   5.555   1.114   5.798  0.3758 -0.7738  0.6956
   27CHL1   H7B 3117   5.524   1.285   5.850 -0.4117 -0.5772 -1.5701
   27CHL1    C8 3118   5.727   1.239   5.810  0.6368 -0.6683  1.0232
   27CHL1    H8 3119   5.791   1.150   5.791  2.7354  0.5074  2.3183
   27CHL1   C14 3120   5.707   1.325   5.684 -0.5341  0.5639  0.0261
   27CHL1   H14 3121   5.652   1.418   5.712 -2.5725 -0.8495  0.8839
   27CHL1   C15 3122   5.615   1.270   5.575 -0.6063 -0.3619  0.5791
   27CHL1  H15A 3123   5.648   1.164   5.564  3.1543  0.6984  0.4941
   27CHL1  H15B 3124   5.511   1.275   5.614 -0.2511 -1.5180  1.7595
   27CHL1   C16 3125   5.653   1.358   5.447 -0.5516 -0.0570  0.4458
   27CHL1  H16A 3126   5.691   1.299   5.361 -1.1407  1.3227 -0.7853
   27CHL1  H16B 3127   5.576   1.428   5.409  0.7234  0.2647 -1.6717
   27CHL1   C17 3128   5.762   1.459   5.494  0.3199  0.2131 -0.5429
   27CHL1   H17 3129   5.709   1.549   5.533 -0.6341 -1.5840  2.6454
   27CHL1   C13 3130   5.829   1.387   5.612 -0.0915 -0.1065  0.0327
   27CHL1   C18 3131   5.921   1.269   5.558 -0.3037 -0.2731 -0.0861
   27CHL1  H18A 3132   5.864   1.214   5.480  2.4407 -2.0684 -0.9384
   27CHL1  H18B 3133   6.012   1.311   5.511 -0.1126 -1.1803 -0.5401
   27CHL1  H18C 3134   5.949   1.191   5.632  0.6153  0.3388  0.2242
   27CHL1   C12 3135   5.901   1.477   5.713 -0.1570 -0.6099 -0.0645
   27CHL1  H12A 3136   5.999   1.514   5.675  2.7051 -5.4265  1.6651
   27CHL1  H12B 3137   5.837   1.567   5.726 -1.1225 -1.2119 -0.5060
   27CHL1   C11 3138   5.931   1.393   5.841  0.8608  0.0339 -0.6147
   27CHL1  H11A 3139   6.001   1.310   5.818  0.4789 -0.3034 -0.5796
   27CHL1  H11B 3140   5.974   1.459   5.919  2.1236 -1.9194  0.4126
   27CHL1    C9 3141   5.807   1.323   5.903  0.0811  0.1372  0.4435
   27CHL1    H9 3142   5.735   1.401   5.936  1.2182  1.0938  0.7163
   27CHL1   C10 3143   5.824   1.248   6.041 -0.2187 -0.5454  0.6630
   27CHL1   C19 3144   5.954   1.168   6.030  0.1747 -0.6637  0.0465
   27CHL1  H19A 3145   6.037   1.242   6.035  1.2381 -1.7212 -1.1841
   27CHL1  H19B 3146   5.975   1.099   6.114  0.0410 -1.8044 -0.8256
   27CHL1  H19C 3147   5.966   1.113   5.934 -1.2107 -0.7174 -0.1151
   27CHL1    C1 3148   5.846   1.353   6.156 -0.0499 -0.3966  0.1534
   27CHL1   H1A 3149   5.929   1.421   6.129 -0.3904  0.2296  0.6596
   27CHL1   H1B 3150   5.750   1.408   6.166  0.2870 -0.1744  3.2307
   27CHL1    C2 3151   5.869   1.288   6.290 -0.9788  0.5317 -0.1711
   27CHL1   H2A 3152   5.872   1.371   6.364  1.7882  2.5597 -2.3159
   27CHL1   H2B 3153   5.963   1.229   6.296 -1.2709  0.1920  2.0187
   27CHL1   C20 3154   5.847   1.508   5.374  0.2587 -0.1174 -0.4353
   27CHL1   H20 3155   5.908   1.426   5.331  1.2822  0.3557  0.1037
   27CHL1   C21 3156   5.935   1.624   5.427  0.1921  0.5766 -0.5311
   27CHL1  H21A 3157   5.870   1.697   5.480 -1.1687 -1.1577  0.3134
   27CHL1  H21B 3158   5.982   1.684   5.347 -0.8960  3.0135  0.5397
   27CHL1  H21C 3159   6.012   1.570   5.486 -1.0938  0.9466  1.6173
   27CHL1   C22 3160   5.755   1.559   5.255  0.5785  0.1684  1.0948
   27CHL1  H22A 3161   5.700   1.472   5.213 -0.4749  0.7228  1.3036
   27CHL1  H22B 3162   5.668   1.617   5.293 -0.2127 -0.9106  0.9781
   27CHL1   C23 3163   5.826   1.626   5.141 -0.1316  0.1296 -0.0507
   27CHL1  H23A 3164   5.857   1.727   5.176  0.1317 -0.8722  2.8763
   27CHL1  H23B 3165   5.912   1.560   5.114  0.0035  1.0422 -2.0542
   27CHL1   C24 3166   5.733   1.665   5.024  0.3532 -0.3445  0.0857
   27CHL1  H24A 3167   5.668   1.576   5.007 -0.7570  0.7368 -1.6302
   27CHL1  H24B 3168   5.674   1.751   5.061  0.8508 -0.2632  0.7099
   27CHL1   C25 3169   5.800   1.704   4.895 -0.1225  0.4212 -0.1607
   27CHL1   H25 3170   5.891   1.763   4.921 -0.1548 -0.9017  3.5924
   27CHL1   C26 3171   5.865   1.574   4.831 -0.2871  0.8993  0.0403
   27CHL1  H26A 3172   5.886   1.586   4.723  2.8930 -2.0541  0.1552
   27CHL1  H26B 3173   5.952   1.537   4.888  0.2084 -0.2790 -1.4258
   27CHL1  H26C 3174   5.784   1.499   4.819 -0.6155  1.0794  1.0230
   27CHL1   C27 3175   5.712   1.768   4.795 -0.2140 -0.0637  0.1367
   27CHL1  H27A 3176   5.640   1.840   4.840 -0.2805  0.0377 -0.1331
   27CHL1  H27B 3177   5.646   1.685   4.761  0.4895 -0.0664 -1.2611
   27CHL1  H27C 3178   5.775   1.810   4.714  0.0863  0.7015  0.7538
   28CHL1    C3 3179   2.858   2.948   6.099  0.5594  1.1075 -0.3345
   28CHL1    H3 3180   2.895   3.053   6.106 -0.3959  1.5103 -1.0557
   28CHL1    O3 3181   2.819   2.909   6.231  0.1547 -0.1739  0.3590
   28CHL1   H3' 3182   2.806   2.814   6.231 -1.1828 -0.0013  0.4703
   28CHL1    C4 3183   2.727   2.942   6.017  0.6333 -0.8127 -0.1086
   28CHL1   H4A 3184   2.675   2.845   6.032  2.7406 -1.5316  3.5151
   28CHL1   H4B 3185   2.658   3.012   6.068 -0.3436 -2.0168  0.2768
   28CHL1    C5 3186   2.741   2.962   5.868 -0.1922 -0.1329  0.4031
   28CHL1    C6 3187   2.669   3.055   5.801 -0.0795 -0.3065  0.7682
   28CHL1    H6 3188   2.594   3.109   5.860  0.5839 -2.0175  3.3478
   28CHL1    C7 3189   2.663   3.070   5.647 -0.1565 -0.1532  0.7977
   28CHL1   H7A 3190   2.562   3.078   5.601  1.6258  1.8454 -3.3367
   28CHL1   H7B 3191   2.713   3.167   5.627 -0.6986 -0.1142 -0.4897
   28CHL1    C8 3192   2.747   2.964   5.572 -0.2288  0.3788  1.1855
   28CHL1    H8 3193   2.690   2.869   5.568  0.5684 -0.1724  2.2987
   28CHL1   C14 3194   2.793   3.023   5.435  0.1273 -0.5271 -0.4075
   28CHL1   H14 3195   2.863   3.100   5.474  0.1090 -0.3820 -0.6605
   28CHL1   C15 3196   2.694   3.098   5.344 -0.3978  0.4053 -0.5054
   28CHL1  H15A 3197   2.605   3.034   5.334  0.5963 -1.1605  0.2923
   28CHL1  H15B 3198   2.669   3.198   5.386 -2.0561 -1.2268  2.7192
   28CHL1   C16 3199   2.764   3.097   5.208 -0.1129 -0.2704  1.2301
   28CHL1  H16A 3200   2.697   3.066   5.126  0.7794  3.8475 -1.3668
   28CHL1  H16B 3201   2.805   3.194   5.173 -1.4149 -0.6818 -1.6821
   28CHL1   C17 3202   2.892   3.002   5.223 -0.0342 -0.4424  0.3269
   28CHL1   H17 3203   2.974   3.066   5.261 -0.3400 -0.1657  0.5273
   28CHL1   C13 3204   2.862   2.916   5.348 -0.1992 -0.0559 -0.5094
   28CHL1   C18 3205   2.761   2.800   5.324 -1.1177 -0.5117 -0.3453
   28CHL1  H18A 3206   2.659   2.837   5.305 -0.0205  1.4801 -2.9337
   28CHL1  H18B 3207   2.789   2.734   5.239  2.8708  1.3226 -0.6862
   28CHL1  H18C 3208   2.761   2.727   5.408  0.9278  0.1614  0.2928
   28CHL1   C12 3209   2.987   2.875   5.431  0.0242  0.1232  0.5063
   28CHL1  H12A 3210   3.038   2.794   5.375  0.1886  0.5076  0.0856
   28CHL1  H12B 3211   3.061   2.958   5.435 -1.2864  1.3457  0.1383
   28CHL1   C11 3212   2.967   2.834   5.578 -0.4907 -0.2485 -0.2502
   28CHL1  H11A 3213   2.921   2.733   5.576  0.1457 -0.5382 -0.4270
   28CHL1  H11B 3214   3.073   2.819   5.608  0.3250  1.5605 -2.0291
   28CHL1    C9 3215   2.873   2.926   5.654  0.4560 -0.4533 -0.4576
   28CHL1    H9 3216   2.925   3.021   5.680  2.3849 -2.3674  3.7774
   28CHL1   C10 3217   2.849   2.879   5.803  0.7865  0.1132  0.8336
   28CHL1   C19 3218   2.796   2.737   5.797 -0.2036 -0.1652 -0.0133
   28CHL1  H19A 3219   2.864   2.656   5.764 -1.7413 -1.2336 -0.6140
   28CHL1  H19B 3220   2.783   2.703   5.902  1.0390  0.1515  0.2655
   28CHL1  H19C 3221   2.697   2.724   5.749  0.5768 -0.6650 -1.5486
   28CHL1    C1 3222   2.984   2.871   5.889  0.3233 -0.1128 -0.5377
   28CHL1   H1A 3223   3.042   2.781   5.858  0.2427  0.2855 -1.9023
   28CHL1   H1B 3224   3.046   2.962   5.873  1.3949 -0.6275  0.4738
   28CHL1    C2 3225   2.967   2.852   6.044 -0.0005 -0.3431 -0.4548
   28CHL1   H2A 3226   3.053   2.877   6.110 -0.5981 -3.0366  1.5243
   28CHL1   H2B 3227   2.950   2.745   6.066  0.5449 -0.6312 -1.3957
   28CHL1   C20 3228   2.931   2.939   5.084  0.0427 -1.1421  0.4848
   28CHL1   H20 3229   2.851   2.872   5.047 -0.9558  0.4669 -0.3236
   28CHL1   C21 3230   3.054   2.852   5.102 -0.1370  0.3818 -1.0141
   28CHL1  H21A 3231   3.040   2.768   5.174  1.6537 -0.4953 -1.6462
   28CHL1  H21B 3232   3.139   2.916   5.133  0.7247 -1.0867 -0.2392
   28CHL1  H21C 3233   3.082   2.801   5.008  3.1445  0.9102 -0.4161
   28CHL1   C22 3234   2.944   3.044   4.975 -0.1942 -0.6644 -0.1215
   28CHL1  H22A 3235   2.853   3.105   4.959  0.0865 -0.1274  0.2824
   28CHL1  H22B 3236   3.028   3.111   5.005 -1.9519  1.0402  1.2322
   28CHL1   C23 3237   2.999   2.987   4.841 -0.5890 -0.0441  0.5881
   28CHL1  H23A 3238   3.107   2.967   4.855 -0.3553  1.8286  1.6507
   28CHL1  H23B 3239   2.939   2.895   4.819 -0.0678 -0.4028  0.6357
   28CHL1   C24 3240   2.993   3.089   4.721 -0.3031  0.3641 -0.5463
   28CHL1  H24A 3241   3.084   3.152   4.730  0.8856 -1.3910  0.3700
   28CHL1  H24B 3242   3.001   3.038   4.623 -1.0045 -0.0644 -0.3852
   28CHL1   C25 3243   2.869   3.178   4.711  0.1668 -0.2553  0.4703
   28CHL1   H25 3244   2.788   3.125   4.766 -0.5574  0.1701 -0.1785
   28CHL1   C26 3245   2.900   3.320   4.772  0.0976 -0.0237  0.2963
   28CHL1  H26A 3246   2.974   3.362   4.701 -2.0447  1.1819 -1.3505
   28CHL1  H26B 3247   2.808   3.372   4.739  0.6091 -1.0132 -2.9976
   28CHL1  H26C 3248   2.942   3.318   4.875  0.6162 -1.6870  0.0844
   28CHL1   C27 3249   2.832   3.183   4.565  0.8400  0.4601 -0.2540
   28CHL1  H27A 3250   2.746   3.253   4.560  0.8509  0.4202 -1.1571
   28CHL1  H27B 3251   2.913   3.223   4.500  0.6123  2.6801  0.7205
   28CHL1  H27C 3252   2.805   3.086   4.518  2.2379  0.1856 -0.5238
   29CHL1    C3 3253   4.964   3.647   6.178  0.2094  0.0247  0.3233
   29CHL1    H3 3254   4.892   3.566   6.152 -0.1172  0.2986  0.3618
   29CHL1    O3 3255   4.998   3.640   6.315  0.1874  0.6193  0.1632
   29CHL1   H3' 3256   5.088   3.604   6.320 -0.1856 -0.2675  0.8504
   29CHL1    C4 3257   5.099   3.638   6.099 -0.1137  0.0274 -0.3431
   29CHL1   H4A 3258   5.175   3.704   6.146  1.1215 -2.1961  0.9252
   29CHL1   H4B 3259   5.147   3.539   6.112 -2.3416 -1.2808 -1.4579
   29CHL1    C5 3260   5.073   3.660   5.953 -0.0579  0.0681  0.3141
   29CHL1    C6 3261   5.104   3.564   5.862 -0.2956  0.2090 -0.3948
   29CHL1    H6 3262   5.151   3.477   5.911 -0.5116 -1.0662 -2.3392
   29CHL1    C7 3263   5.082   3.583   5.715  0.5181 -0.1574  0.4932
   29CHL1   H7A 3264   5.171   3.553   5.655 -0.3778  2.1327 -2.2332
   29CHL1   H7B 3265   4.996   3.528   5.671  1.2119 -0.4548 -0.5444
   29CHL1    C8 3266   5.071   3.737   5.678 -0.3145  0.0062  0.6640
   29CHL1    H8 3267   5.172   3.781   5.695  0.3493 -1.4639  0.6393
   29CHL1   C14 3268   5.019   3.758   5.538 -0.0849 -0.0513  0.4988
   29CHL1   H14 3269   4.923   3.703   5.524  1.1410 -2.5285  1.2384
   29CHL1   C15 3270   5.106   3.692   5.425  0.1573 -0.2062 -0.0239
   29CHL1  H15A 3271   5.214   3.699   5.446  0.2041 -0.2121 -0.2567
   29CHL1  H15B 3272   5.073   3.586   5.414 -1.3180  0.2408 -0.0897
   29CHL1   C16 3273   5.071   3.772   5.302  0.7602 -0.1698 -0.3848
   29CHL1  H16A 3274   5.159   3.825   5.260 -0.4870  1.1531 -1.4044
   29CHL1  H16B 3275   5.043   3.706   5.217  0.6240 -1.1260  0.3812
   29CHL1   C17 3276   4.963   3.873   5.345 -0.2014 -0.0748  0.6261
   29CHL1   H17 3277   4.868   3.816   5.343 -0.3600  0.0972 -2.5415
   29CHL1   C13 3278   4.996   3.900   5.490 -0.2834 -0.5382  0.0844
   29CHL1   C18 3279   5.121   3.984   5.502 -0.2836  0.0500 -0.5932
   29CHL1  H18A 3280   5.105   4.087   5.465  0.7497  0.1138 -0.8885
   29CHL1  H18B 3281   5.149   3.996   5.609 -0.4114 -3.1409 -0.1136
   29CHL1  H18C 3282   5.208   3.943   5.448 -0.3420 -0.5817 -0.2191
   29CHL1   C12 3283   4.874   3.947   5.569  0.2561  0.4613 -0.1458
   29CHL1  H12A 3284   4.862   4.054   5.539  0.6317  0.4587 -0.3039
   29CHL1  H12B 3285   4.789   3.882   5.540  0.6186 -0.6180  1.1227
   29CHL1   C11 3286   4.905   3.940   5.722 -0.7331  0.3147  0.6685
   29CHL1  H11A 3287   4.990   4.007   5.742  0.0833 -0.9273  1.4914
   29CHL1  H11B 3288   4.816   3.953   5.788  1.4119  0.6766  3.6731
   29CHL1    C9 3289   4.965   3.795   5.771  0.1914  0.8332  1.0492
   29CHL1    H9 3290   4.872   3.734   5.768 -1.0868  2.6951 -1.9161
   29CHL1   C10 3291   5.010   3.796   5.918  0.9378 -1.0355  0.3824
   29CHL1   C19 3292   5.113   3.903   5.949 -0.9968  0.7988  0.2938
   29CHL1  H19A 3293   5.207   3.892   5.890 -0.5497  0.0784  1.1125
   29CHL1  H19B 3294   5.069   4.003   5.928 -1.4907  0.1318 -2.1012
   29CHL1  H19C 3295   5.143   3.905   6.056 -1.1966 -0.6486  0.3841
   29CHL1    C1 3296   4.882   3.809   6.012 -0.3412 -0.2948  0.1953
   29CHL1   H1A 3297   4.838   3.909   5.992 -2.1753 -0.6504  2.0506
   29CHL1   H1B 3298   4.819   3.730   5.966  2.0195 -0.8098 -2.4504
   29CHL1    C2 3299   4.902   3.787   6.165  0.3664  0.0531 -0.1117
   29CHL1   H2A 3300   4.806   3.782   6.220  0.6227  0.0727  0.3385
   29CHL1   H2B 3301   4.972   3.855   6.218 -1.5358  2.0632 -0.0316
   29CHL1   C20 3302   4.944   3.995   5.241 -0.4856  0.1492  0.3790
   29CHL1   H20 3303   5.023   4.070   5.260 -0.7895  0.7255 -0.5970
   29CHL1   C21 3304   4.800   4.046   5.267 -0.2166 -0.1182 -0.3257
   29CHL1  H21A 3305   4.768   4.126   5.196 -0.9861 -0.0124  0.1205
   29CHL1  H21B 3306   4.783   4.085   5.369 -0.7267 -0.2407 -0.3607
   29CHL1  H21C 3307   4.724   3.965   5.256 -0.2079  0.0116 -1.5669
   29CHL1   C22 3308   4.962   3.948   5.094 -0.7222 -0.5503 -0.2490
   29CHL1  H22A 3309   5.068   3.922   5.075 -0.9272 -0.2589 -2.0269
   29CHL1  H22B 3310   4.889   3.865   5.077 -1.3844 -0.0409  0.0346
   29CHL1   C23 3311   4.935   4.059   4.992 -0.4135  0.0942  0.2598
   29CHL1  H23A 3312   4.826   4.079   4.997 -0.5577 -0.7498  0.6964
   29CHL1  H23B 3313   4.983   4.155   5.019 -2.4619  0.8357  1.5565
   29CHL1   C24 3314   4.956   4.009   4.847 -0.0587  0.4887  1.0259
   29CHL1  H24A 3315   5.060   3.986   4.817  0.2745  0.5395  2.0970
   29CHL1  H24B 3316   4.906   3.910   4.840 -0.3775  0.6359  1.1842
   29CHL1   C25 3317   4.920   4.114   4.741  0.4415 -0.7164  0.1514
   29CHL1   H25 3318   4.818   4.155   4.759  0.6418  1.0192 -2.1723
   29CHL1   C26 3319   5.014   4.235   4.733  0.1796  0.4703 -0.1385
   29CHL1  H26A 3320   5.114   4.205   4.697 -0.1910 -0.4224 -0.4628
   29CHL1  H26B 3321   4.966   4.310   4.666  1.6150  1.1041 -0.4948
   29CHL1  H26C 3322   5.028   4.275   4.836 -0.8736  0.2881  0.0867
   29CHL1   C27 3323   4.928   4.041   4.603 -0.1437  0.4982 -0.2861
   29CHL1  H27A 3324   5.036   4.022   4.587 -0.1566 -1.4673  1.4728
   29CHL1  H27B 3325   4.876   3.942   4.607 -1.2063  1.0270 -0.6241
   29CHL1  H27C 3326   4.879   4.109   4.529 -0.1078  0.0394 -0.7435
   30CHL1    C3 3327   1.746   4.136   6.382 -0.0816  1.3029  0.4511
   30CHL1    H3 3328   1.730   4.246   6.389  0.3742  1.3525  0.7656
   30CHL1    O3 3329   1.775   4.086   6.512  0.7674 -0.4609 -0.1973
   30CHL1   H3' 3330   1.870   4.099   6.525  0.2414  2.4492  1.7597
   30CHL1    C4 3331   1.616   4.063   6.332  0.1539 -0.4253  0.7531
   30CHL1   H4A 3332   1.637   3.954   6.338  2.4267 -0.0837 -0.1793
   30CHL1   H4B 3333   1.532   4.092   6.399 -0.8195  2.2872 -1.4670
   30CHL1    C5 3334   1.586   4.106   6.186  0.2546 -0.0052 -0.3731
   30CHL1    C6 3335   1.470   4.159   6.146  0.3921 -0.0706  0.4970
   30CHL1    H6 3336   1.396   4.178   6.225 -0.5830 -0.1646 -0.3661
   30CHL1    C7 3337   1.434   4.189   5.996  0.3377  0.1106 -0.2875
   30CHL1   H7A 3338   1.331   4.154   5.972  0.3168 -0.4956  0.6474
   30CHL1   H7B 3339   1.433   4.300   6.008 -1.3654 -0.0251  1.2229
   30CHL1    C8 3340   1.534   4.128   5.899  0.0965 -0.5828  0.1102
   30CHL1    H8 3341   1.507   4.020   5.898 -2.6160  0.0276 -1.0836
   30CHL1   C14 3342   1.524   4.192   5.763 -0.8229  0.2071  0.3499
   30CHL1   H14 3343   1.560   4.296   5.777  0.7243  0.0207 -1.8491
   30CHL1   C15 3344   1.388   4.189   5.691 -0.1354  0.1399  0.0454
   30CHL1  H15A 3345   1.327   4.096   5.696 -0.9263  0.6003 -0.9611
   30CHL1  H15B 3346   1.327   4.268   5.739  1.1266  1.3493 -0.2646
   30CHL1   C16 3347   1.420   4.209   5.546 -0.0080 -0.3721 -0.0013
   30CHL1  H16A 3348   1.389   4.127   5.478  1.6870 -2.6447  1.8127
   30CHL1  H16B 3349   1.375   4.307   5.519  2.0225  0.8303  0.7928
   30CHL1   C17 3350   1.569   4.210   5.530  0.2360 -0.0947 -0.7081
   30CHL1   H17 3351   1.598   4.317   5.534 -1.2623  0.2885  0.6697
   30CHL1   C13 3352   1.622   4.136   5.656 -0.3624  0.1132 -1.1683
   30CHL1   C18 3353   1.607   3.982   5.640 -0.1606 -0.0468  0.3636
   30CHL1  H18A 3354   1.680   3.934   5.571 -1.2249 -2.3233  0.7156
   30CHL1  H18B 3355   1.607   3.938   5.742 -0.8336 -0.5436  0.1567
   30CHL1  H18C 3356   1.513   3.958   5.586 -0.0719  1.5767 -0.5800
   30CHL1   C12 3357   1.764   4.160   5.697  0.4676  0.4052  0.5192
   30CHL1  H12A 3358   1.842   4.113   5.634  1.9966  1.1794  1.7666
   30CHL1  H12B 3359   1.789   4.268   5.697  3.0787 -0.0814  2.7759
   30CHL1   C11 3360   1.794   4.113   5.846  0.4600 -0.6879  1.0066
   30CHL1  H11A 3361   1.818   4.005   5.836 -1.6799 -1.2744  1.7610
   30CHL1  H11B 3362   1.886   4.167   5.877  0.2148  2.2588 -2.7392
   30CHL1    C9 3363   1.673   4.143   5.945 -0.4399 -0.3116 -0.4803
   30CHL1    H9 3364   1.689   4.251   5.967  0.1350 -0.3327 -0.7721
   30CHL1   C10 3365   1.699   4.081   6.085 -0.2329  0.4606  0.4946
   30CHL1   C19 3366   1.704   3.926   6.069 -0.3534 -0.2910  0.1583
   30CHL1  H19A 3367   1.615   3.881   6.021 -0.3668 -1.0501  0.8708
   30CHL1  H19B 3368   1.799   3.900   6.017 -0.5534 -0.7396  0.0136
   30CHL1  H19C 3369   1.718   3.867   6.162  3.1609 -0.5340 -0.3674
   30CHL1    C1 3370   1.840   4.131   6.143  0.2955  0.4137  0.3298
   30CHL1   H1A 3371   1.920   4.081   6.084 -0.5247 -0.4074 -0.1093
   30CHL1   H1B 3372   1.852   4.240   6.126  3.1791  0.2277  0.6509
   30CHL1    C2 3373   1.870   4.100   6.290 -0.2984  0.2137 -0.6156
   30CHL1   H2A 3374   1.959   4.162   6.315  2.3885 -3.1524 -1.0902
   30CHL1   H2B 3375   1.898   3.994   6.309  0.6678  0.4547 -0.6164
   30CHL1   C20 3376   1.610   4.152   5.396  0.6087  0.3608  0.0954
   30CHL1   H20 3377   1.577   4.047   5.404 -0.6041  0.5528 -1.7709
   30CHL1   C21 3378   1.761   4.155   5.367 -0.7262  0.2797 -0.0593
   30CHL1  H21A 3379   1.825   4.098   5.438  1.0851  1.1182 -0.9737
   30CHL1  H21B 3380   1.805   4.256   5.378  0.4759 -0.1740 -0.6165
   30CHL1  H21C 3381   1.771   4.123   5.261 -1.9047 -0.1975 -0.0483
   30CHL1   C22 3382   1.522   4.203   5.273 -0.6089 -0.4533  0.1036
   30CHL1  H22A 3383   1.549   4.141   5.184  0.9433  0.4810 -0.1126
   30CHL1  H22B 3384   1.412   4.206   5.287 -0.6635  1.5783 -0.4659
   30CHL1   C23 3385   1.553   4.348   5.224 -0.2569 -0.1432 -0.2933
   30CHL1  H23A 3386   1.567   4.422   5.307 -0.3894 -0.1086 -0.3013
   30CHL1  H23B 3387   1.648   4.362   5.169 -0.6105  1.3913 -0.5645
   30CHL1   C24 3388   1.434   4.409   5.139 -0.7452  0.3507 -0.0680
   30CHL1  H24A 3389   1.415   4.341   5.054 -2.2335 -0.6520  1.0078
   30CHL1  H24B 3390   1.340   4.399   5.198  0.1807  1.3113  1.6769
   30CHL1   C25 3391   1.435   4.552   5.089 -0.8014  0.2593 -0.6155
   30CHL1   H25 3392   1.537   4.587   5.065 -1.9868  2.9838 -2.1680
   30CHL1   C26 3393   1.344   4.570   4.968  0.0094  0.0581  0.0235
   30CHL1  H26A 3394   1.382   4.507   4.885 -2.1430 -0.8129 -0.3819
   30CHL1  H26B 3395   1.240   4.532   4.980  0.3915 -0.8587  0.5520
   30CHL1  H26C 3396   1.345   4.673   4.928  0.9713 -0.5099 -1.4953
   30CHL1   C27 3397   1.378   4.644   5.194 -0.4822  0.4952  0.1267
   30CHL1  H27A 3398   1.433   4.631   5.289  0.5522  0.6569 -0.4348
   30CHL1  H27B 3399   1.398   4.750   5.166 -1.6061  0.3430 -1.4187
   30CHL1  H27C 3400   1.269   4.625   5.204 -0.2396 -1.0421  0.1228
   31CHL1    C3 3401   0.538   3.219   6.432  0.1531 -0.0491 -0.3391
   31CHL1    H3 3402   0.614   3.291   6.468 -2.7040  2.5000  1.0338
   31CHL1    O3 3403   0.484   3.155   6.544 -0.5374  0.3634 -0.2728
   31CHL1   H3' 3404   0.568   3.135   6.586  0.5452  0.0242 -2.4415
   31CHL1    C4 3405   0.440   3.305   6.361 -0.0786  0.0582  0.6146
   31CHL1   H4A 3406   0.354   3.238   6.339  1.1424 -2.0879  2.0408
   31CHL1   H4B 3407   0.402   3.388   6.425  1.9926  2.9162 -1.6111
   31CHL1    C5 3408   0.494   3.368   6.228  0.2693  0.4401  0.1815
   31CHL1    C6 3409   0.477   3.497   6.211  0.9059 -0.4588  0.8644
   31CHL1    H6 3410   0.436   3.561   6.290  0.6263 -0.1048  0.4394
   31CHL1    C7 3411   0.515   3.563   6.076 -0.5815  0.3631  0.3401
   31CHL1   H7A 3412   0.438   3.627   6.028 -2.2507 -0.1834  2.1610
   31CHL1   H7B 3413   0.600   3.634   6.084 -1.0856  0.7577  3.4394
   31CHL1    C8 3414   0.548   3.453   5.968  0.2810  0.0458  0.3423
   31CHL1    H8 3415   0.448   3.419   5.935  0.0615 -2.1900  2.9467
   31CHL1   C14 3416   0.624   3.514   5.849  0.2706 -0.5126  0.6603
   31CHL1   H14 3417   0.721   3.550   5.891  0.9798 -0.6531 -0.8160
   31CHL1   C15 3418   0.574   3.645   5.780  0.5390  0.1464 -0.0830
   31CHL1  H15A 3419   0.463   3.634   5.781  0.0688  3.8914 -0.0457
   31CHL1  H15B 3420   0.597   3.731   5.846 -0.6260  1.0692 -0.8306
   31CHL1   C16 3421   0.627   3.644   5.642  0.0860  0.1758 -0.2433
   31CHL1  H16A 3422   0.544   3.629   5.569  0.3072  0.1490 -0.4899
   31CHL1  H16B 3423   0.687   3.731   5.607  0.6375 -0.3259 -0.5745
   31CHL1   C17 3424   0.724   3.513   5.639 -0.4330 -0.3770 -0.2035
   31CHL1   H17 3425   0.822   3.539   5.685 -0.7393  3.0932 -1.2506
   31CHL1   C13 3426   0.653   3.416   5.736 -0.2642 -0.3509 -0.7187
   31CHL1   C18 3427   0.524   3.364   5.665  0.3269  0.2909  0.1969
   31CHL1  H18A 3428   0.456   3.325   5.745 -2.3381 -0.3207 -2.2015
   31CHL1  H18B 3429   0.470   3.442   5.609  0.1519 -0.0908 -0.1736
   31CHL1  H18C 3430   0.545   3.290   5.585 -0.3461  0.8821 -0.5392
   31CHL1   C12 3431   0.731   3.299   5.790 -0.3644 -0.0013 -0.4687
   31CHL1  H12A 3432   0.766   3.227   5.714 -0.6893  0.9794 -1.5811
   31CHL1  H12B 3433   0.824   3.347   5.828 -0.9579 -0.4360  1.6942
   31CHL1   C11 3434   0.660   3.231   5.911  0.6530 -0.1435  0.3515
   31CHL1  H11A 3435   0.571   3.188   5.860  1.2085 -0.4873 -0.3406
   31CHL1  H11B 3436   0.716   3.140   5.942 -0.0631 -1.2097 -1.3724
   31CHL1    C9 3437   0.620   3.333   6.018  0.5490  0.2496  0.0870
   31CHL1    H9 3438   0.713   3.378   6.058  1.1367 -1.6498  0.9763
   31CHL1   C10 3439   0.549   3.269   6.133  0.3370 -1.1702 -1.1360
   31CHL1   C19 3440   0.432   3.187   6.071  0.1988 -1.1037  0.2615
   31CHL1  H19A 3441   0.353   3.241   6.013 -0.5597  0.6893  2.7716
   31CHL1  H19B 3442   0.471   3.099   6.017  1.4982 -1.7108  2.1027
   31CHL1  H19C 3443   0.363   3.154   6.151 -2.1116 -0.4069 -1.3147
   31CHL1    C1 3444   0.644   3.173   6.203 -0.3672  1.6445 -0.2043
   31CHL1   H1A 3445   0.669   3.092   6.132 -1.7371 -0.2167  1.3195
   31CHL1   H1B 3446   0.743   3.220   6.219  1.4162 -1.8352 -0.0373
   31CHL1    C2 3447   0.608   3.114   6.339 -0.3713 -0.1006 -0.4627
   31CHL1   H2A 3448   0.698   3.072   6.389  0.6206  1.7094 -0.6206
   31CHL1   H2B 3449   0.534   3.033   6.327 -0.9451  0.5455 -1.3356
   31CHL1   C20 3450   0.759   3.461   5.501  0.9686  0.2352 -0.2473
   31CHL1   H20 3451   0.683   3.394   5.456  2.0138 -0.4176 -1.0998
   31CHL1   C21 3452   0.884   3.375   5.506 -0.4346 -0.3488  0.4618
   31CHL1  H21A 3453   0.872   3.282   5.565 -0.9728 -1.2622 -1.0181
   31CHL1  H21B 3454   0.970   3.432   5.547 -0.9103 -0.6107  1.8947
   31CHL1  H21C 3455   0.911   3.332   5.407 -0.8069  0.3874  0.0355
   31CHL1   C22 3456   0.783   3.568   5.385 -0.2867  0.8892 -0.4174
   31CHL1  H22A 3457   0.717   3.656   5.395 -1.4465  0.0233 -0.2711
   31CHL1  H22B 3458   0.887   3.605   5.401  0.7806 -1.3035 -1.6753
   31CHL1   C23 3459   0.755   3.511   5.245 -0.2212  0.2467 -0.2883
   31CHL1  H23A 3460   0.821   3.421   5.247 -0.8835 -0.2378  0.5593
   31CHL1  H23B 3461   0.653   3.468   5.237  0.4069 -1.0922 -1.6872
   31CHL1   C24 3462   0.799   3.606   5.132  0.2705  0.0809 -0.0499
   31CHL1  H24A 3463   0.740   3.700   5.128  0.6178  0.5593  3.2364
   31CHL1  H24B 3464   0.906   3.628   5.153  0.4893  0.3911 -1.3861
   31CHL1   C25 3465   0.803   3.535   4.991 -0.2033  0.6626  0.6919
   31CHL1   H25 3466   0.843   3.435   5.017 -0.5986 -0.1155 -1.4980
   31CHL1   C26 3467   0.662   3.523   4.935 -0.2128  0.4655 -0.0383
   31CHL1  H26A 3468   0.614   3.620   4.911 -2.2672 -0.2424  0.9514
   31CHL1  H26B 3469   0.659   3.470   4.838 -0.4015 -2.1817  1.2979
   31CHL1  H26C 3470   0.598   3.471   5.009 -0.5187 -0.2397 -0.7905
   31CHL1   C27 3471   0.891   3.607   4.884 -0.5197  0.1982 -0.2421
   31CHL1  H27A 3472   0.996   3.627   4.912  0.1460 -1.4938 -1.3542
   31CHL1  H27B 3473   0.899   3.532   4.802  0.5473  0.9423 -0.8349
   31CHL1  H27C 3474   0.842   3.693   4.834 -0.8227  0.3895  0.3676
   32CHL1    C3 3475   1.939   2.135   6.053  0.2464 -0.0119 -0.2813
   32CHL1    H3 3476   2.005   2.224   6.051  2.1651 -1.3394 -2.7544
   32CHL1    O3 3477   1.894   2.127   6.190 -0.2408  0.2457 -0.1050
   32CHL1   H3' 3478   1.974   2.133   6.242 -1.6995  2.2861  2.1356
   32CHL1    C4 3479   1.824   2.145   5.958 -0.2098 -0.1331  0.0444
   32CHL1   H4A 3480   1.757   2.056   5.960 -0.1157 -0.2193 -0.3537
   32CHL1   H4B 3481   1.769   2.236   5.990  1.8186  1.5436 -0.9489
   32CHL1    C5 3482   1.878   2.180   5.819  0.7159  1.0261 -0.0117
   32CHL1    C6 3483   1.848   2.296   5.757 -0.3144 -0.0304  0.3650
   32CHL1    H6 3484   1.790   2.372   5.812 -1.4335  0.1698 -1.0279
   32CHL1    C7 3485   1.902   2.327   5.620 -0.5996  0.2198  0.5544
   32CHL1   H7A 3486   1.835   2.379   5.549  0.3325  1.2256  0.3937
   32CHL1   H7B 3487   1.990   2.393   5.630 -1.2588  1.4073 -1.1448
   32CHL1    C8 3488   1.960   2.199   5.549 -0.0205 -0.0980  0.2651
   32CHL1    H8 3489   1.872   2.139   5.516 -1.1430  1.2801  0.6378
   32CHL1   C14 3490   2.049   2.241   5.443  0.6165  0.6229  0.3332
   32CHL1   H14 3491   2.138   2.296   5.480 -0.7621  2.0855  1.6277
   32CHL1   C15 3492   1.981   2.335   5.337 -0.2306 -0.7093 -0.8750
   32CHL1  H15A 3493   1.876   2.308   5.314 -0.0146 -2.3060 -0.1122
   32CHL1  H15B 3494   1.979   2.440   5.373  0.5654 -1.3189  1.0818
   32CHL1   C16 3495   2.065   2.317   5.201 -0.2606  0.5908 -0.9591
   32CHL1  H16A 3496   1.992   2.280   5.126  1.4090 -1.3363 -1.7353
   32CHL1  H16B 3497   2.103   2.416   5.169  0.5261  1.2945  1.8170
   32CHL1   C17 3498   2.170   2.211   5.240  0.1136  0.3549  0.6297
   32CHL1   H17 3499   2.250   2.272   5.287  0.1067  1.3190 -0.5452
   32CHL1   C13 3500   2.101   2.130   5.352 -0.7576 -0.0944 -0.4770
   32CHL1   C18 3501   1.998   2.038   5.292 -0.0628  0.4180  0.4990
   32CHL1  H18A 3502   2.056   1.962   5.235 -0.3063 -0.6866  1.6790
   32CHL1  H18B 3503   1.943   1.978   5.367 -0.8907  0.5152 -0.0148
   32CHL1  H18C 3504   1.919   2.085   5.230 -0.3781 -0.7498 -0.0178
   32CHL1   C12 3505   2.189   2.045   5.436 -0.0713  0.1301 -0.7956
   32CHL1  H12A 3506   2.255   1.966   5.396  0.4539 -0.1567  0.5874
   32CHL1  H12B 3507   2.272   2.111   5.469 -0.7327  0.7822 -0.4071
   32CHL1   C11 3508   2.115   1.999   5.567  0.1671 -0.3474  0.2865
   32CHL1  H11A 3509   2.039   1.925   5.533 -2.1209 -0.0607  4.1842
   32CHL1  H11B 3510   2.187   1.948   5.634  2.9542  0.9347 -1.5593
   32CHL1    C9 3511   2.049   2.119   5.645  0.2924 -0.3470 -0.4736
   32CHL1    H9 3512   2.127   2.195   5.664  0.0618  0.2557 -1.7960
   32CHL1   C10 3513   1.978   2.076   5.771  0.3090  1.0694 -0.4724
   32CHL1   C19 3514   1.902   1.940   5.745 -0.6561 -0.2864  0.2676
   32CHL1  H19A 3515   1.831   1.950   5.660  0.6700  0.7415 -0.7648
   32CHL1  H19B 3516   1.962   1.847   5.734 -2.8819 -1.5542 -2.0993
   32CHL1  H19C 3517   1.843   1.924   5.838  1.8522  1.0951  2.2474
   32CHL1    C1 3518   2.094   2.046   5.871  0.4024  1.0051 -0.0924
   32CHL1   H1A 3519   2.149   1.956   5.839 -0.4852  0.6177 -0.5647
   32CHL1   H1B 3520   2.161   2.135   5.871 -0.2524  1.5735  2.3042
   32CHL1    C2 3521   2.041   2.020   6.020 -0.2342 -0.6061  0.2910
   32CHL1   H2A 3522   2.126   2.025   6.091  0.0951 -2.0908  0.0481
   32CHL1   H2B 3523   1.999   1.917   6.030 -0.2453 -0.4793  1.7493
   32CHL1   C20 3524   2.241   2.139   5.126 -0.8299 -0.2078 -0.8175
   32CHL1   H20 3525   2.292   2.047   5.162 -0.0610 -0.5031 -2.5674
   32CHL1   C21 3526   2.354   2.239   5.079  0.0819  0.3937 -0.5296
   32CHL1  H21A 3527   2.310   2.327   5.028  1.0149 -0.0752 -2.2263
   32CHL1  H21B 3528   2.427   2.187   5.014  1.6558  0.8063  0.8460
   32CHL1  H21C 3529   2.415   2.283   5.161  0.7564 -0.4747 -0.5489
   32CHL1   C22 3530   2.158   2.096   4.999 -0.1527 -1.0540 -0.4043
   32CHL1  H22A 3531   2.070   2.035   5.029  0.1463 -0.6088  1.4993
   32CHL1  H22B 3532   2.119   2.186   4.947  0.0468 -2.2989 -2.8248
   32CHL1   C23 3533   2.254   2.035   4.890  0.3773  0.5323 -0.3652
   32CHL1  H23A 3534   2.316   2.113   4.841  1.3799 -0.2117 -0.3040
   32CHL1  H23B 3535   2.331   1.961   4.918 -0.8085 -0.9541 -0.8766
   32CHL1   C24 3536   2.181   1.961   4.785  0.0795 -0.1993 -0.0108
   32CHL1  H24A 3537   2.137   1.873   4.836 -0.4428  0.0940  0.0478
   32CHL1  H24B 3538   2.095   2.021   4.749  0.3197  0.1656  0.0119
   32CHL1   C25 3539   2.259   1.910   4.663  0.2523 -0.2353 -0.5447
   32CHL1   H25 3540   2.335   1.987   4.638 -0.8137  0.4402 -1.8164
   32CHL1   C26 3541   2.340   1.782   4.706  0.4653 -1.0425 -0.3170
   32CHL1  H26A 3542   2.417   1.763   4.629  0.1100  1.2573 -1.3212
   32CHL1  H26B 3543   2.388   1.795   4.805  2.2153  0.8745 -1.3456
   32CHL1  H26C 3544   2.265   1.700   4.703 -0.7208 -0.0079  0.1516
   32CHL1   C27 3545   2.178   1.877   4.530 -0.1933  0.0989 -0.4852
   32CHL1  H27A 3546   2.117   1.966   4.504  2.0214  2.2262  1.1358
   32CHL1  H27B 3547   2.246   1.854   4.445 -0.5402 -1.5568 -0.3509
   32CHL1  H27C 3548   2.115   1.787   4.546 -0.4046 -0.1040 -2.3134
   33CHL1    C3 3549   5.927   2.756   6.178 -0.7127 -0.4082 -0.5165
   33CHL1    H3 3550   5.905   2.863   6.157 -0.3305 -0.0763  0.6745
   33CHL1    O3 3551   5.894   2.736   6.311 -0.2475  0.6509  0.7555
   33CHL1   H3' 3552   5.961   2.783   6.361 -1.3920  0.7508  2.2932
   33CHL1    C4 3553   5.849   2.653   6.093 -0.3767 -0.2318  0.0293
   33CHL1   H4A 3554   5.873   2.550   6.125  0.8391  0.4611  1.5227
   33CHL1   H4B 3555   5.742   2.663   6.119  0.1217  1.2725  1.7293
   33CHL1    C5 3556   5.888   2.662   5.944  0.0726  0.2250  0.2357
   33CHL1    C6 3557   5.786   2.670   5.857  0.3678  0.0922  0.1593
   33CHL1    H6 3558   5.686   2.656   5.901 -0.3885  1.3625 -1.0848
   33CHL1    C7 3559   5.806   2.675   5.705  0.2304  0.1365 -0.3691
   33CHL1   H7A 3560   5.730   2.618   5.647  0.5624 -0.0291 -0.6467
   33CHL1   H7B 3561   5.774   2.775   5.668  2.1314  0.8894 -0.0793
   33CHL1    C8 3562   5.947   2.650   5.665 -0.4537 -0.2378 -0.3838
   33CHL1    H8 3563   5.961   2.540   5.674 -1.2348 -0.2558  0.7134
   33CHL1   C14 3564   5.974   2.694   5.524  0.4745 -0.1984  0.1033
   33CHL1   H14 3565   5.953   2.804   5.521  0.7533 -0.0764  1.6722
   33CHL1   C15 3566   5.876   2.650   5.416 -0.1962  0.2061 -0.0422
   33CHL1  H15A 3567   5.860   2.541   5.430  3.6970 -0.7503 -1.6896
   33CHL1  H15B 3568   5.783   2.711   5.414  0.0938  0.7460  1.8575
   33CHL1   C16 3569   5.946   2.672   5.290  0.0588 -0.1918  0.4812
   33CHL1  H16A 3570   5.926   2.579   5.232  0.6304 -0.0084 -0.0244
   33CHL1  H16B 3571   5.909   2.754   5.225  2.7628  0.4345 -0.3901
   33CHL1   C17 3572   6.096   2.715   5.322 -0.5685  0.9728 -0.3305
   33CHL1   H17 3573   6.095   2.825   5.335  0.9214  1.1194 -1.2901
   33CHL1   C13 3574   6.107   2.665   5.465  0.5542 -0.0729 -0.1697
   33CHL1   C18 3575   6.134   2.518   5.466 -0.2031 -0.2659 -0.1850
   33CHL1  H18A 3576   6.105   2.476   5.565 -0.2571  2.8182  1.2367
   33CHL1  H18B 3577   6.085   2.457   5.387  2.2242 -0.2004 -1.8583
   33CHL1  H18C 3578   6.240   2.492   5.443 -0.0114 -0.2536  0.6366
   33CHL1   C12 3579   6.210   2.740   5.556  0.1720 -0.6793  0.6338
   33CHL1  H12A 3580   6.313   2.703   5.538 -0.2498 -3.0190  2.4531
   33CHL1  H12B 3581   6.207   2.847   5.529  2.0951 -0.8158 -0.2533
   33CHL1   C11 3582   6.193   2.718   5.708 -0.0102  0.2361 -0.7216
   33CHL1  H11A 3583   6.247   2.624   5.730  0.0361  0.6896  1.2195
   33CHL1  H11B 3584   6.258   2.796   5.754  1.6015 -1.4364 -0.0504
   33CHL1    C9 3585   6.048   2.716   5.765 -0.0834  0.3703 -0.6890
   33CHL1    H9 3586   6.025   2.825   5.762 -0.2296  0.3709  0.2725
   33CHL1   C10 3587   6.040   2.671   5.917  0.5916  0.4504 -0.0417
   33CHL1   C19 3588   6.110   2.526   5.940  0.4728  0.7662  0.0501
   33CHL1  H19A 3589   6.220   2.540   5.931  0.6076  0.4428  1.1120
   33CHL1  H19B 3590   6.088   2.499   6.045  0.5067  0.3789 -0.0407
   33CHL1  H19C 3591   6.082   2.438   5.878  0.9104  0.0704  0.8146
   33CHL1    C1 3592   6.103   2.777   6.012 -0.9383 -0.2579 -0.2537
   33CHL1   H1A 3593   6.211   2.763   5.995 -0.9763  0.8224 -1.5762
   33CHL1   H1B 3594   6.070   2.879   5.980 -1.2477 -0.7035 -1.4205
   33CHL1    C2 3595   6.081   2.748   6.160  0.9208  0.6787  0.3924
   33CHL1   H2A 3596   6.148   2.813   6.220  3.7337 -0.8065 -0.9785
   33CHL1   H2B 3597   6.109   2.643   6.184 -0.5999 -0.3808 -2.0335
   33CHL1   C20 3598   6.204   2.684   5.216  0.2601  0.1667 -0.0802
   33CHL1   H20 3599   6.176   2.580   5.192 -0.5974  0.2396  0.5353
   33CHL1   C21 3600   6.348   2.682   5.267 -0.0133 -1.3892 -0.0781
   33CHL1  H21A 3601   6.362   2.581   5.312  1.9015 -1.9554 -1.7864
   33CHL1  H21B 3602   6.365   2.766   5.338  2.3749  0.4074 -2.5738
   33CHL1  H21C 3603   6.413   2.695   5.178  1.5789 -2.4957  0.8697
   33CHL1   C22 3604   6.186   2.783   5.096 -0.2453 -0.3537 -0.6014
   33CHL1  H22A 3605   6.077   2.783   5.074 -0.6434 -0.2757  1.2221
   33CHL1  H22B 3606   6.200   2.889   5.124  0.5052 -0.3687 -0.8866
   33CHL1   C23 3607   6.279   2.766   4.970 -0.1472 -0.4285 -0.0658
   33CHL1  H23A 3608   6.247   2.838   4.892  1.2732  1.2286  0.8215
   33CHL1  H23B 3609   6.385   2.789   4.993  0.0181 -1.2115  0.0044
   33CHL1   C24 3610   6.276   2.621   4.913  0.4718  0.1873 -0.6646
   33CHL1  H24A 3611   6.298   2.552   4.998  0.5263  1.7851  0.6890
   33CHL1  H24B 3612   6.171   2.607   4.880  0.9000 -1.4853 -1.3957
   33CHL1   C25 3613   6.376   2.596   4.807 -0.4231 -0.6125 -0.0497
   33CHL1   H25 3614   6.473   2.635   4.846  0.1538 -1.1717 -0.8801
   33CHL1   C26 3615   6.402   2.447   4.776  0.7373 -0.3417 -0.3446
   33CHL1  H26A 3616   6.299   2.406   4.769  1.2030 -1.3414 -1.9403
   33CHL1  H26B 3617   6.462   2.420   4.687 -1.4169 -3.5741 -1.0044
   33CHL1  H26C 3618   6.451   2.408   4.868 -0.0538 -1.1828 -0.2641
   33CHL1   C27 3619   6.349   2.664   4.678  0.2129  0.2181  0.2791
   33CHL1  H27A 3620   6.260   2.624   4.625  0.6032 -0.9371  0.4869
   33CHL1  H27B 3621   6.337   2.773   4.700 -0.5555  0.1042  0.4396
   33CHL1  H27C 3622   6.439   2.667   4.613  0.8784  0.6438  1.1870
   34CHL1    C3 3623   0.173   2.642   6.391  0.5745  0.5215 -0.5030
   34CHL1    H3 3624   0.068   2.674   6.373 -0.2969 -0.9978  1.4912
   34CHL1    O3 3625   0.204   2.662   6.529 -0.1710  0.2455  0.3444
   34CHL1   H3' 3626   0.299   2.676   6.527 -0.1063 -0.0588 -2.4339
   34CHL1    C4 3627   0.182   2.490   6.360 -0.2793 -0.5383  1.1198
   34CHL1   H4A 3628   0.286   2.453   6.377  0.7551  0.5764 -2.0176
   34CHL1   H4B 3629   0.107   2.430   6.416  0.2285 -1.2122  1.0947
   34CHL1    C5 3630   0.171   2.463   6.213 -0.6230 -0.3697 -0.0968
   34CHL1    C6 3631   0.083   2.376   6.160  0.3533 -0.3372  0.3932
   34CHL1    H6 3632   0.030   2.314   6.235 -1.2632  0.6056  0.0719
   34CHL1    C7 3633   0.069   2.338   6.013  0.7195  0.1142  1.0771
   34CHL1   H7A 3634   0.050   2.229   5.999 -1.9053  0.5375  0.6674
   34CHL1   H7B 3635  -0.024   2.393   5.986 -0.3333 -1.6475  0.9700
   34CHL1    C8 3636   0.176   2.390   5.925  0.5421 -0.8296 -0.0597
   34CHL1    H8 3637   0.256   2.313   5.935 -0.4553 -2.1943 -1.8791
   34CHL1   C14 3638   0.121   2.400   5.780  0.2563 -0.9841 -0.2061
   34CHL1   H14 3639   0.041   2.476   5.781  2.1435  1.1025 -0.3909
   34CHL1   C15 3640   0.071   2.272   5.718  0.6531 -0.5287  0.1246
   34CHL1  H15A 3641   0.137   2.191   5.754  2.4404  0.9963  0.4507
   34CHL1  H15B 3642  -0.034   2.252   5.747  1.3732 -2.0970  1.7764
   34CHL1   C16 3643   0.088   2.290   5.567  0.4365 -0.0578 -0.3994
   34CHL1  H16A 3644   0.159   2.211   5.536 -0.6694 -1.8998  1.4407
   34CHL1  H16B 3645  -0.005   2.294   5.507  0.1928 -0.6930 -0.0801
   34CHL1   C17 3646   0.158   2.428   5.551 -0.6204  0.1308 -0.2563
   34CHL1   H17 3647   0.076   2.504   5.553 -1.4774 -0.6532 -2.2016
   34CHL1   C13 3648   0.238   2.443   5.682  0.3259 -0.1358 -0.2839
   34CHL1   C18 3649   0.353   2.348   5.691  0.7329  0.4975  0.2798
   34CHL1  H18A 3650   0.315   2.247   5.666 -0.8940  1.3524 -0.9108
   34CHL1  H18B 3651   0.437   2.370   5.622  1.6878  0.8807  1.5186
   34CHL1  H18C 3652   0.399   2.345   5.793 -0.5289  0.0261  0.8504
   34CHL1   C12 3653   0.268   2.585   5.721 -0.8484 -0.7067  0.3652
   34CHL1  H12A 3654   0.344   2.630   5.654  0.7559 -3.4989  0.1711
   34CHL1  H12B 3655   0.184   2.658   5.713 -0.3438 -0.2924 -1.8464
   34CHL1   C11 3656   0.310   2.601   5.868  0.2110  0.8006  0.5900
   34CHL1  H11A 3657   0.409   2.553   5.877 -0.8713 -1.4735  1.1449
   34CHL1  H11B 3658   0.319   2.710   5.887 -1.2408  0.8248  1.3678
   34CHL1    C9 3659   0.211   2.530   5.965  0.3705 -0.0835 -0.4903
   34CHL1    H9 3660   0.121   2.595   5.951  0.7576  0.3912 -0.7817
   34CHL1   C10 3661   0.251   2.553   6.111 -0.6794  0.6553  0.3429
   34CHL1   C19 3662   0.399   2.507   6.130  0.1105  0.8736  0.3480
   34CHL1  H19A 3663   0.434   2.526   6.234 -0.3150 -0.2016  0.7015
   34CHL1  H19B 3664   0.411   2.403   6.095  1.1127  1.8962 -2.6745
   34CHL1  H19C 3665   0.477   2.566   6.076  1.0433 -0.9116 -0.3427
   34CHL1    C1 3666   0.232   2.704   6.152 -0.4579  0.5758  0.4268
   34CHL1   H1A 3667   0.298   2.773   6.096 -0.5664  1.1164  0.9484
   34CHL1   H1B 3668   0.126   2.736   6.138 -0.6258  0.3915  1.2035
   34CHL1    C2 3669   0.257   2.735   6.304 -1.2523 -0.2827  0.2456
   34CHL1   H2A 3670   0.236   2.838   6.341  3.6407  0.1411  2.6613
   34CHL1   H2B 3671   0.366   2.721   6.318 -0.9301  1.3747 -0.2953
   34CHL1   C20 3672   0.243   2.426   5.422 -1.1691  0.3394 -0.6497
   34CHL1   H20 3673   0.338   2.370   5.429 -0.7399  1.2573  1.7873
   34CHL1   C21 3674   0.300   2.560   5.382  0.1661 -0.1325  0.3174
   34CHL1  H21A 3675   0.377   2.597   5.452 -2.3524  4.1438  1.1886
   34CHL1  H21B 3676   0.220   2.636   5.396 -1.3219 -1.8231  1.5359
   34CHL1  H21C 3677   0.338   2.554   5.277  0.6444  1.3616  0.3834
   34CHL1   C22 3678   0.172   2.376   5.298  0.5209  0.5776  0.1857
   34CHL1  H22A 3679   0.235   2.369   5.207 -0.2633  0.7183 -0.3769
   34CHL1  H22B 3680   0.136   2.272   5.313  0.3756  0.5851 -0.1090
   34CHL1   C23 3681   0.058   2.467   5.261  0.4721  0.1427 -0.1199
   34CHL1  H23A 3682  -0.033   2.464   5.325  0.7969 -1.0292  0.3106
   34CHL1  H23B 3683   0.079   2.576   5.265  0.6214  0.1607 -1.1115
   34CHL1   C24 3684   0.009   2.445   5.118 -0.4654  0.3416  0.6638
   34CHL1  H24A 3685   0.098   2.460   5.053 -1.0307  2.0939  0.2251
   34CHL1  H24B 3686  -0.028   2.342   5.100 -0.1660  0.3075  0.2026
   34CHL1   C25 3687  -0.105   2.537   5.067  0.3010  0.5344  0.6285
   34CHL1   H25 3688  -0.072   2.639   5.098 -0.5102  0.4238  1.9697
   34CHL1   C26 3689  -0.110   2.523   4.916  0.1573  0.0348  0.0036
   34CHL1  H26A 3690  -0.011   2.539   4.868  0.5370 -0.4134  0.6230
   34CHL1  H26B 3691  -0.159   2.427   4.889 -1.1046  0.6057  0.1856
   34CHL1  H26C 3692  -0.170   2.603   4.867 -0.3120 -0.2623  0.0862
   34CHL1   C27 3693  -0.241   2.502   5.139 -0.6625  0.3228  0.0198
   34CHL1  H27A 3694  -0.250   2.394   5.163  0.2731  0.4745  1.1637
   34CHL1  H27B 3695  -0.239   2.548   5.241  0.4701 -1.5247  0.8894
   34CHL1  H27C 3696  -0.329   2.549   5.090 -0.4095  0.8465  0.0627
   35CHL1    C3 3697   2.816   6.782   5.816  0.3247 -0.2265 -0.3702
   35CHL1    H3 3698   2.853   6.677   5.811  1.5853  0.0374  1.9077
   35CHL1    O3 3699   2.796   6.831   5.947 -0.3633 -0.0351  0.4102
   35CHL1   H3' 3700   2.884   6.839   5.985 -0.6872  1.1661  0.9565
   35CHL1    C4 3701   2.900   6.887   5.738  0.4168 -0.5714 -0.2638
   35CHL1   H4A 3702   2.846   6.983   5.747 -0.8134 -1.2343 -0.3516
   35CHL1   H4B 3703   2.993   6.891   5.799 -1.1730  0.0756  2.2744
   35CHL1    C5 3704   2.908   6.847   5.588  0.3756 -0.4328 -0.4292
   35CHL1    C6 3705   3.027   6.842   5.526  0.4074 -0.6468 -0.5469
   35CHL1    H6 3706   3.118   6.878   5.576  0.2733 -0.2928 -0.5536
   35CHL1    C7 3707   3.040   6.828   5.383  0.2357  0.4224  0.4644
   35CHL1   H7A 3708   3.107   6.911   5.350 -1.4510  0.9477 -1.9071
   35CHL1   H7B 3709   3.102   6.739   5.360 -0.4578  0.2495 -0.8183
   35CHL1    C8 3710   2.918   6.847   5.292  0.1087  0.8420 -0.1687
   35CHL1    H8 3711   2.899   6.956   5.282 -0.0743  0.8100 -0.1583
   35CHL1   C14 3712   2.922   6.795   5.152 -1.1086 -0.1857  0.5092
   35CHL1   H14 3713   2.926   6.684   5.165 -0.0926 -0.7095 -3.0521
   35CHL1   C15 3714   3.049   6.825   5.069 -0.2513  0.0963  0.7924
   35CHL1  H15A 3715   3.082   6.929   5.090  1.1140  0.0866 -1.0645
   35CHL1  H15B 3716   3.136   6.760   5.091 -0.1697 -0.0391  0.0900
   35CHL1   C16 3717   3.009   6.796   4.926  0.0063  0.3887  0.5363
   35CHL1  H16A 3718   3.032   6.888   4.868  0.6138  1.3363  2.2092
   35CHL1  H16B 3719   3.059   6.706   4.882 -0.5726  0.4240 -0.2123
   35CHL1   C17 3720   2.856   6.760   4.924 -0.5666  0.0803 -0.9341
   35CHL1   H17 3721   2.851   6.649   4.936 -2.6687  0.0836 -1.3554
   35CHL1   C13 3722   2.807   6.823   5.055 -0.3789 -0.1938 -0.0592
   35CHL1   C18 3723   2.792   6.983   5.029  0.0489 -0.2215  0.3448
   35CHL1  H18A 3724   2.700   6.995   4.968  2.5553  0.8985 -3.6050
   35CHL1  H18B 3725   2.782   7.047   5.119  0.4514 -0.2896  0.4362
   35CHL1  H18C 3726   2.878   7.034   4.981 -0.3043  2.9608  2.7376
   35CHL1   C12 3727   2.686   6.759   5.130 -0.0828 -0.6477  0.3310
   35CHL1  H12A 3728   2.591   6.784   5.079 -0.7680 -0.5782  1.6148
   35CHL1  H12B 3729   2.693   6.649   5.116 -0.3547 -0.6444  0.1521
   35CHL1   C11 3730   2.669   6.810   5.268 -0.3662 -0.9790 -0.3385
   35CHL1  H11A 3731   2.658   6.921   5.266  0.5187 -0.8858 -0.6129
   35CHL1  H11B 3732   2.577   6.765   5.310  0.0019 -1.0167  0.4530
   35CHL1    C9 3733   2.791   6.796   5.365 -0.6757 -0.0103  0.8550
   35CHL1    H9 3734   2.820   6.689   5.372  1.2616  0.2152 -2.0871
   35CHL1   C10 3735   2.773   6.840   5.513 -0.0559  0.8039 -0.3572
   35CHL1   C19 3736   2.718   6.983   5.502  0.1693  0.7201 -0.7117
   35CHL1  H19A 3737   2.777   7.043   5.429 -0.5532 -0.8850 -2.7161
   35CHL1  H19B 3738   2.613   6.965   5.471 -0.4715  0.6186  1.3725
   35CHL1  H19C 3739   2.711   7.041   5.597 -1.1537  0.7822 -0.8339
   35CHL1    C1 3740   2.682   6.738   5.596  0.7562 -0.4889 -0.2149
   35CHL1   H1A 3741   2.581   6.748   5.552  0.8415 -0.2612 -0.3559
   35CHL1   H1B 3742   2.708   6.630   5.586 -2.3232 -1.2604 -0.9318
   35CHL1    C2 3743   2.676   6.775   5.750  0.1651 -0.4537  0.1985
   35CHL1   H2A 3744   2.615   6.695   5.796 -0.3803 -1.7616 -2.5638
   35CHL1   H2B 3745   2.626   6.873   5.766  1.2209  0.7512 -2.9777
   35CHL1   C20 3746   2.790   6.803   4.789  0.9143 -0.6374 -0.5412
   35CHL1   H20 3747   2.794   6.914   4.783  1.2108 -0.6948 -1.4768
   35CHL1   C21 3748   2.642   6.750   4.787 -0.0314 -0.1938 -0.6085
   35CHL1  H21A 3749   2.638   6.646   4.826 -1.3482  0.3434  0.8074
   35CHL1  H21B 3750   2.592   6.750   4.688 -1.1347 -0.3346 -0.0620
   35CHL1  H21C 3751   2.570   6.805   4.852  0.1718 -2.0599  1.2978
   35CHL1   C22 3752   2.883   6.754   4.664 -0.3621  0.9071 -0.2043
   35CHL1  H22A 3753   2.987   6.790   4.678 -0.5610  2.0578 -1.5724
   35CHL1  H22B 3754   2.884   6.642   4.668 -1.4183  0.8771 -0.4340
   35CHL1   C23 3755   2.850   6.822   4.532 -0.0039  0.0614  0.6361
   35CHL1  H23A 3756   2.756   6.768   4.505  0.0473 -0.0044  0.5927
   35CHL1  H23B 3757   2.828   6.926   4.567  1.1252  0.5585 -0.0697
   35CHL1   C24 3758   2.951   6.799   4.416 -0.3883  0.1890 -0.2914
   35CHL1  H24A 3759   3.010   6.890   4.393  1.6875 -0.4790  1.9436
   35CHL1  H24B 3760   3.032   6.723   4.423  0.1859  0.9288  1.3908
   35CHL1   C25 3761   2.878   6.772   4.276  0.0025 -0.3551  0.0542
   35CHL1   H25 3762   2.805   6.695   4.308 -0.3703 -0.1771 -0.3556
   35CHL1   C26 3763   2.798   6.895   4.235 -0.6982  0.8435  0.5454
   35CHL1  H26A 3764   2.709   6.908   4.299  0.5181 -1.0953  2.8094
   35CHL1  H26B 3765   2.871   6.979   4.235 -1.2349  1.3619 -1.6409
   35CHL1  H26C 3766   2.767   6.871   4.131 -2.3301  1.5674  0.8397
   35CHL1   C27 3767   2.967   6.726   4.165  0.1507  0.4554  0.2457
   35CHL1  H27A 3768   3.036   6.644   4.194  0.5002  0.7136  0.1426
   35CHL1  H27B 3769   2.907   6.692   4.077  2.3987 -0.3842 -1.0583
   35CHL1  H27C 3770   3.028   6.810   4.126  2.8603 -1.1831  0.7526
   36CHL1    C3 3771   0.422   2.660   2.904  0.0091 -0.1560  0.1692
   36CHL1    H3 3772   0.532   2.670   2.918 -0.2208  1.3082  1.1416
   36CHL1    O3 3773   0.386   2.679   2.766 -0.5902  0.5676  0.0864
   36CHL1   H3' 3774   0.290   2.686   2.771 -0.5793  0.0649  1.3876
   36CHL1    C4 3775   0.358   2.524   2.954 -0.5746 -0.2158  0.5595
   36CHL1   H4A 3776   0.254   2.530   2.916 -0.0783  1.8430 -0.6656
   36CHL1   H4B 3777   0.405   2.439   2.900 -0.2658  0.8132 -0.8536
   36CHL1    C5 3778   0.370   2.500   3.103  0.9855 -0.3090  0.1989
   36CHL1    C6 3779   0.415   2.374   3.140  0.3522  0.1936 -1.4692
   36CHL1    H6 3780   0.436   2.298   3.064  1.0886  0.6107 -1.6915
   36CHL1    C7 3781   0.429   2.339   3.291 -0.7842 -0.2824  1.1625
   36CHL1   H7A 3782   0.388   2.238   3.311 -0.9226 -0.0235  2.2462
   36CHL1   H7B 3783   0.538   2.325   3.308 -0.6153 -0.2421  0.1258
   36CHL1    C8 3784   0.375   2.449   3.389  0.2014 -0.6168 -0.3420
   36CHL1    H8 3785   0.267   2.425   3.396  0.0015 -0.1843 -1.6274
   36CHL1   C14 3786   0.432   2.429   3.527 -0.8431  0.0223 -0.6901
   36CHL1   H14 3787   0.539   2.458   3.516 -0.1300 -2.6358 -1.5000
   36CHL1   C15 3788   0.434   2.287   3.591 -0.3089  0.1332 -0.0680
   36CHL1  H15A 3789   0.343   2.224   3.578  2.5033 -5.3016  2.7776
   36CHL1  H15B 3790   0.516   2.233   3.539  1.5053  2.6742 -0.0124
   36CHL1   C16 3791   0.463   2.315   3.734  0.1429  0.2470  0.2129
   36CHL1  H16A 3792   0.394   2.251   3.794  1.3209 -1.5163 -0.2320
   36CHL1  H16B 3793   0.566   2.275   3.743  0.1191  0.0289 -0.4962
   36CHL1   C17 3794   0.461   2.469   3.753 -0.5575 -0.3500 -0.1001
   36CHL1   H17 3795   0.559   2.514   3.729  0.4120 -2.0299  0.5321
   36CHL1   C13 3796   0.380   2.526   3.632  0.3095 -1.1482  0.2586
   36CHL1   C18 3797   0.227   2.504   3.658 -0.5167  0.2731  0.8400
   36CHL1  H18A 3798   0.172   2.533   3.566 -0.7102 -1.3574  0.4157
   36CHL1  H18B 3799   0.214   2.398   3.686  0.9217 -0.4699 -1.1162
   36CHL1  H18C 3800   0.183   2.562   3.743 -3.1736 -0.1394 -0.1665
   36CHL1   C12 3801   0.390   2.673   3.578 -0.5774 -0.1944 -0.3499
   36CHL1  H12A 3802   0.337   2.741   3.648  0.6313 -1.5628  2.0209
   36CHL1  H12B 3803   0.493   2.713   3.590 -0.5650 -0.6290  1.3422
   36CHL1   C11 3804   0.333   2.693   3.435  0.0277  0.0347 -0.0147
   36CHL1  H11A 3805   0.222   2.689   3.444  0.0776  0.1612  0.6953
   36CHL1  H11B 3806   0.360   2.798   3.411 -1.1316  0.4503  0.4041
   36CHL1    C9 3807   0.391   2.594   3.333 -0.2303  0.1744  0.3065
   36CHL1    H9 3808   0.501   2.610   3.333  0.2244 -1.7687 -3.9252
   36CHL1   C10 3809   0.333   2.616   3.191 -0.2592 -0.2277 -0.1869
   36CHL1   C19 3810   0.181   2.635   3.200 -0.4697  0.4167  0.0966
   36CHL1  H19A 3811   0.153   2.734   3.241  0.2906  0.6885 -0.0156
   36CHL1  H19B 3812   0.134   2.612   3.102 -0.1720 -0.9191  0.2373
   36CHL1  H19C 3813   0.135   2.560   3.268  2.7977 -0.6906  1.2865
   36CHL1    C1 3814   0.400   2.741   3.135  0.1068 -1.0608 -0.3143
   36CHL1   H1A 3815   0.364   2.833   3.187  1.4007 -0.3454 -0.6406
   36CHL1   H1B 3816   0.508   2.741   3.163 -0.1656  0.6304  0.9204
   36CHL1    C2 3817   0.373   2.776   2.988 -0.5958  0.0119 -1.1235
   36CHL1   H2A 3818   0.430   2.869   2.964  1.6702 -0.3466  2.1140
   36CHL1   H2B 3819   0.264   2.784   2.971 -0.6771  2.5662  0.1375
   36CHL1   C20 3820   0.416   2.508   3.892 -0.3931 -0.2720 -0.1050
   36CHL1   H20 3821   0.310   2.477   3.903  0.0083 -0.9852  2.1312
   36CHL1   C21 3822   0.428   2.659   3.911 -0.4214 -0.7716  0.0235
   36CHL1  H21A 3823   0.346   2.706   3.852  0.7814  0.7320 -0.5325
   36CHL1  H21B 3824   0.519   2.710   3.873 -0.9776  1.1725  1.1099
   36CHL1  H21C 3825   0.417   2.704   4.012  0.7422  1.1211 -0.6308
   36CHL1   C22 3826   0.491   2.426   4.003 -0.3745 -0.2159  0.1057
   36CHL1  H22A 3827   0.442   2.452   4.100  0.4512  1.1400  0.1891
   36CHL1  H22B 3828   0.485   2.317   3.982 -1.7337 -0.0873 -0.2248
   36CHL1   C23 3829   0.642   2.465   4.029 -0.3429  0.0394  0.1703
   36CHL1  H23A 3830   0.701   2.450   3.935  3.0209 -2.2431  2.3968
   36CHL1  H23B 3831   0.643   2.571   4.060 -0.1489  1.1010 -3.0424
   36CHL1   C24 3832   0.716   2.367   4.124  0.1647  0.6905 -0.3705
   36CHL1  H24A 3833   0.714   2.267   4.076 -0.1126 -0.0277  1.0860
   36CHL1  H24B 3834   0.822   2.401   4.122  0.0343  1.1423  0.0768
   36CHL1   C25 3835   0.675   2.355   4.271 -0.1117 -0.2051  0.1016
   36CHL1   H25 3836   0.569   2.327   4.286 -0.0179  0.0006  1.2105
   36CHL1   C26 3837   0.760   2.244   4.342  0.6096 -0.0944 -0.3846
   36CHL1  H26A 3838   0.869   2.265   4.351  0.2272  1.1758  2.7423
   36CHL1  H26B 3839   0.717   2.225   4.442  1.5990  0.5166  0.1782
   36CHL1  H26C 3840   0.750   2.149   4.285 -0.7231 -1.1179  1.4565
   36CHL1   C27 3841   0.694   2.488   4.346 -0.5459 -0.7461 -0.0523
   36CHL1  H27A 3842   0.615   2.555   4.307 -0.3598  0.2936  1.2852
   36CHL1  H27B 3843   0.679   2.475   4.456 -0.5530 -0.8732 -0.0678
   36CHL1  H27C 3844   0.793   2.529   4.317 -0.9112 -0.3090 -0.6936
   37CHL1    C3 3845   6.615   1.037   6.455  0.2469 -0.0571  0.3580
   37CHL1    H3 3846   6.532   1.102   6.491 -0.0351  0.3233 -0.9293
   37CHL1    O3 3847   6.671   0.949   6.557 -0.4745 -0.8687  0.4752
   37CHL1   H3' 3848   6.592   0.927   6.607 -1.1164  0.3338  0.0433
   37CHL1    C4 3849   6.559   0.946   6.346 -0.2083 -0.6008 -0.5166
   37CHL1   H4A 3850   6.649   0.886   6.320 -0.0116  0.8424 -3.7426
   37CHL1   H4B 3851   6.487   0.870   6.384 -0.0986  0.0637  1.0975
   37CHL1    C5 3852   6.515   1.005   6.209  0.7368 -0.2891 -0.4241
   37CHL1    C6 3853   6.392   0.977   6.158 -0.2342 -0.3068 -0.3345
   37CHL1    H6 3854   6.331   0.910   6.221  0.4746 -0.1282  0.5583
   37CHL1    C7 3855   6.336   1.047   6.037  0.1941 -0.4235 -0.2831
   37CHL1   H7A 3856   6.280   0.973   5.976  0.5251 -2.0911  1.3796
   37CHL1   H7B 3857   6.256   1.120   6.062  0.0819 -0.6007 -0.1281
   37CHL1    C8 3858   6.448   1.109   5.956 -0.1719  0.2542 -0.4544
   37CHL1    H8 3859   6.507   1.026   5.913 -3.4346 -2.2017 -0.5711
   37CHL1   C14 3860   6.385   1.193   5.845 -0.1220 -0.2828 -0.0360
   37CHL1   H14 3861   6.318   1.266   5.895 -0.5705 -0.5353 -0.2583
   37CHL1   C15 3862   6.311   1.112   5.740  0.2787  0.1210  0.4736
   37CHL1  H15A 3863   6.369   1.022   5.710 -1.1993 -0.2802 -1.3560
   37CHL1  H15B 3864   6.215   1.072   5.780  1.2566 -0.2238  2.6327
   37CHL1   C16 3865   6.292   1.207   5.621 -0.6572  0.5136  0.5512
   37CHL1  H16A 3866   6.321   1.155   5.527 -0.2312  1.8391 -0.0669
   37CHL1  H16B 3867   6.182   1.223   5.620 -0.6427  0.6436  1.0258
   37CHL1   C17 3868   6.386   1.325   5.647 -0.4497  0.1277 -0.1194
   37CHL1   H17 3869   6.325   1.411   5.684  0.9501  0.8717  0.5496
   37CHL1   C13 3870   6.483   1.277   5.763  0.2315 -0.4196 -0.0631
   37CHL1   C18 3871   6.582   1.186   5.705 -0.3524  0.1643  0.0042
   37CHL1  H18A 3872   6.642   1.137   5.784  0.3671 -1.6055 -1.5499
   37CHL1  H18B 3873   6.546   1.099   5.646 -1.7691  0.1060  0.9090
   37CHL1  H18C 3874   6.653   1.252   5.650 -0.2508  1.0036  1.1029
   37CHL1   C12 3875   6.544   1.374   5.866  0.3913  0.2068 -0.3259
   37CHL1  H12A 3876   6.618   1.437   5.811 -0.5826  0.5419 -1.2877
   37CHL1  H12B 3877   6.464   1.440   5.907  1.7454  1.0378  1.0809
   37CHL1   C11 3878   6.618   1.305   5.982 -0.2930  0.0152  0.6069
   37CHL1  H11A 3879   6.710   1.257   5.945  0.9095 -0.2469  3.5981
   37CHL1  H11B 3880   6.656   1.375   6.060  0.2482 -1.3363  1.5951
   37CHL1    C9 3881   6.534   1.200   6.058 -0.4691  1.0244  0.6710
   37CHL1    H9 3882   6.458   1.254   6.118 -0.1437  2.7892 -0.4251
   37CHL1   C10 3883   6.614   1.104   6.156 -0.9375 -0.9439 -0.3762
   37CHL1   C19 3884   6.733   1.018   6.090  0.3029 -0.5802 -0.1020
   37CHL1  H19A 3885   6.697   0.938   6.023  0.6742 -1.0395  0.2423
   37CHL1  H19B 3886   6.795   1.086   6.027 -3.0450  2.3492 -0.5134
   37CHL1  H19C 3887   6.801   0.971   6.165  2.4646  1.4344 -0.6453
   37CHL1    C1 3888   6.683   1.190   6.271 -0.2899  0.2192 -0.7860
   37CHL1   H1A 3889   6.770   1.247   6.231  0.7069 -0.6104  0.1227
   37CHL1   H1B 3890   6.606   1.264   6.301 -1.4374 -0.9452 -0.7737
   37CHL1    C2 3891   6.726   1.117   6.400  0.3925 -0.3132 -0.9147
   37CHL1   H2A 3892   6.761   1.198   6.468 -3.1089  0.1170  0.6089
   37CHL1   H2B 3893   6.809   1.048   6.377 -0.5531 -1.2658 -1.5683
   37CHL1   C20 3894   6.450   1.382   5.522  0.3942 -0.9666  0.4291
   37CHL1   H20 3895   6.502   1.296   5.476 -1.2726 -3.1214  2.3462
   37CHL1   C21 3896   6.563   1.487   5.546  0.1132  0.1927  0.7457
   37CHL1  H21A 3897   6.530   1.574   5.608  1.5480  0.8671  0.6018
   37CHL1  H21B 3898   6.609   1.532   5.455  0.2450  0.3541  0.8894
   37CHL1  H21C 3899   6.660   1.449   5.585  1.2509  0.1101 -1.9640
   37CHL1   C22 3900   6.336   1.448   5.432  0.0160 -0.2169 -0.2822
   37CHL1  H22A 3901   6.258   1.375   5.401 -0.3387  0.2444 -0.4822
   37CHL1  H22B 3902   6.293   1.516   5.508 -1.2357 -2.6030  1.2760
   37CHL1   C23 3903   6.377   1.512   5.298 -0.6968 -0.0862 -0.0036
   37CHL1  H23A 3904   6.434   1.604   5.319  0.1116 -0.4866 -0.3997
   37CHL1  H23B 3905   6.436   1.446   5.231  0.9771  0.2784  1.0364
   37CHL1   C24 3906   6.245   1.561   5.233 -0.1965 -0.6426 -0.1201
   37CHL1  H24A 3907   6.183   1.482   5.185 -1.0137  0.2710 -0.5867
   37CHL1  H24B 3908   6.188   1.620   5.308  0.5891  3.0810 -2.2421
   37CHL1   C25 3909   6.270   1.662   5.108  0.3935 -0.3231  0.5319
   37CHL1   H25 3910   6.355   1.731   5.129  0.3069  0.3379 -1.1624
   37CHL1   C26 3911   6.322   1.584   4.989 -1.0086  0.8904 -0.1042
   37CHL1  H26A 3912   6.418   1.534   5.015 -0.5078  2.5058  1.2531
   37CHL1  H26B 3913   6.254   1.506   4.948  0.5638 -1.1811  0.9983
   37CHL1  H26C 3914   6.355   1.652   4.907 -2.6277  1.3227 -0.4310
   37CHL1   C27 3915   6.143   1.742   5.083  0.6553  0.4868 -0.1010
   37CHL1  H27A 3916   6.070   1.662   5.057  1.7002 -0.0122 -1.6636
   37CHL1  H27B 3917   6.097   1.788   5.172  0.8369  0.1096  0.1907
   37CHL1  H27C 3918   6.157   1.802   4.990 -3.1932  0.7715 -0.6409
   38CHL1    C3 3919   1.115   6.792   6.130  0.2773  0.3054 -0.3171
   38CHL1    H3 3920   1.015   6.745   6.122  1.6181 -2.5938 -1.3710
   38CHL1    O3 3921   1.139   6.859   6.250  0.2761 -0.0053  0.4387
   38CHL1   H3' 3922   1.232   6.856   6.275 -0.0714  1.0608  2.0038
   38CHL1    C4 3923   1.213   6.677   6.102 -0.5540  0.2635  0.7119
   38CHL1   H4A 3924   1.316   6.706   6.132 -0.3533  1.0082 -0.6121
   38CHL1   H4B 3925   1.178   6.604   6.178  0.0026  0.8234  1.5256
   38CHL1    C5 3926   1.215   6.618   5.961 -0.4286  0.1635 -0.1126
   38CHL1    C6 3927   1.206   6.486   5.942 -0.1053  0.8816 -0.9743
   38CHL1    H6 3928   1.202   6.413   6.023 -3.1614  2.1181  0.1556
   38CHL1    C7 3929   1.215   6.429   5.805 -0.3551 -0.2073 -0.5660
   38CHL1   H7A 3930   1.276   6.336   5.798 -1.2934 -0.8859 -0.0272
   38CHL1   H7B 3931   1.114   6.388   5.782 -0.1718 -0.9783 -0.0549
   38CHL1    C8 3932   1.262   6.521   5.690 -0.0856 -0.4253 -0.1078
   38CHL1    H8 3933   1.371   6.541   5.697 -0.5323  1.5952  2.5181
   38CHL1   C14 3934   1.235   6.465   5.550 -0.2671  0.1661 -0.2493
   38CHL1   H14 3935   1.129   6.434   5.544 -0.0558 -0.4183 -1.0695
   38CHL1   C15 3936   1.320   6.339   5.519 -0.4462 -0.0048 -0.1678
   38CHL1  H15A 3937   1.424   6.354   5.555  0.2167 -2.4368 -0.9216
   38CHL1  H15B 3938   1.285   6.240   5.555  1.4794 -0.7606 -0.2520
   38CHL1   C16 3939   1.328   6.334   5.357  0.7422 -0.3394  0.3151
   38CHL1  H16A 3940   1.436   6.334   5.332  0.5253 -0.5225 -0.6777
   38CHL1  H16B 3941   1.273   6.242   5.329  1.4149 -1.1391  1.5134
   38CHL1   C17 3942   1.257   6.467   5.311 -0.1582  0.4304 -1.1017
   38CHL1   H17 3943   1.147   6.457   5.303 -0.2679  0.2056  0.2919
   38CHL1   C13 3944   1.266   6.561   5.435 -0.3876 -0.2079  0.6248
   38CHL1   C18 3945   1.413   6.617   5.434  0.1118  0.0819 -0.4100
   38CHL1  H18A 3946   1.472   6.524   5.447 -2.6206 -1.8299 -0.7130
   38CHL1  H18B 3947   1.443   6.690   5.356  2.8536 -0.2166  0.2798
   38CHL1  H18C 3948   1.421   6.671   5.530 -1.2260  1.4677 -1.0305
   38CHL1   C12 3949   1.160   6.671   5.454 -0.3196 -0.1865  0.4994
   38CHL1  H12A 3950   1.170   6.756   5.384  0.7645  0.2529  1.1720
   38CHL1  H12B 3951   1.054   6.640   5.447 -0.1126 -0.8869  0.3036
   38CHL1   C11 3952   1.181   6.742   5.587 -0.4256  0.2335 -0.4735
   38CHL1  H11A 3953   1.270   6.806   5.571 -1.4488  1.9818  0.5084
   38CHL1  H11B 3954   1.104   6.820   5.601 -0.9596 -0.6487  1.9480
   38CHL1    C9 3955   1.185   6.651   5.710 -0.1900 -0.1688  0.8268
   38CHL1    H9 3956   1.080   6.614   5.707 -0.2659 -0.1293  2.0868
   38CHL1   C10 3957   1.216   6.721   5.844  0.3113  0.5568  0.0971
   38CHL1   C19 3958   1.362   6.773   5.842  0.5994  0.2369 -0.5495
   38CHL1  H19A 3959   1.423   6.680   5.842  0.7789  0.3543 -0.3765
   38CHL1  H19B 3960   1.384   6.832   5.750 -0.5736  1.9557  0.2201
   38CHL1  H19C 3961   1.385   6.833   5.933 -1.4972  0.0897  0.1347
   38CHL1    C1 3962   1.116   6.830   5.873 -0.2256 -0.3960 -0.3898
   38CHL1   H1A 3963   1.119   6.914   5.800 -0.5837  1.5245  1.6843
   38CHL1   H1B 3964   1.016   6.783   5.863  1.0337 -3.4126  0.1411
   38CHL1    C2 3965   1.123   6.902   6.018 -0.2981  0.2568 -0.0551
   38CHL1   H2A 3966   1.036   6.969   6.040 -0.4105 -0.2015  0.9556
   38CHL1   H2B 3967   1.213   6.962   6.041 -0.5602  0.2151  1.1598
   38CHL1   C20 3968   1.302   6.510   5.177 -0.2021 -0.1711  0.4732
   38CHL1   H20 3969   1.411   6.531   5.179 -0.4986  1.4745  0.7709
   38CHL1   C21 3970   1.247   6.653   5.143 -0.0111 -0.0487 -0.0259
   38CHL1  H21A 3971   1.136   6.659   5.139 -0.0546  0.2441  1.2928
   38CHL1  H21B 3972   1.276   6.685   5.040 -0.4888  0.4935  0.0011
   38CHL1  H21C 3973   1.288   6.723   5.219 -1.1024  0.6249 -0.0274
   38CHL1   C22 3974   1.269   6.407   5.073 -0.0518  0.6692  0.2384
   38CHL1  H22A 3975   1.323   6.317   5.109 -0.2843  0.1002 -0.7893
   38CHL1  H22B 3976   1.162   6.376   5.063  1.1110 -4.3815  0.6294
   38CHL1   C23 3977   1.324   6.441   4.941 -0.0375  0.0819  0.2276
   38CHL1  H23A 3978   1.272   6.528   4.896 -1.9472 -0.2706  1.6393
   38CHL1  H23B 3979   1.432   6.464   4.953 -0.0164 -1.0938  2.8005
   38CHL1   C24 3980   1.330   6.331   4.826  0.1345  0.1390  0.2238
   38CHL1  H24A 3981   1.405   6.258   4.863  0.4694 -0.1807 -1.0316
   38CHL1  H24B 3982   1.231   6.281   4.827  0.6732 -1.0677 -1.4505
   38CHL1   C25 3983   1.355   6.378   4.675 -0.1384  0.5783 -0.2717
   38CHL1   H25 3984   1.446   6.442   4.682 -1.6303  2.7140  0.8104
   38CHL1   C26 3985   1.380   6.261   4.583 -0.3475 -0.0831  0.3504
   38CHL1  H26A 3986   1.473   6.206   4.609 -0.7766  0.2649  2.8716
   38CHL1  H26B 3987   1.293   6.192   4.572 -0.9615  0.9411 -1.8870
   38CHL1  H26C 3988   1.409   6.309   4.487 -0.6155  0.3602  0.4912
   38CHL1   C27 3989   1.233   6.458   4.624 -0.0321 -0.1077 -0.0937
   38CHL1  H27A 3990   1.262   6.477   4.518  1.6670  1.2130  0.5649
   38CHL1  H27B 3991   1.139   6.400   4.631 -0.0764  0.1099  1.3919
   38CHL1  H27C 3992   1.221   6.552   4.682 -1.7197  0.2690 -0.9676
   39CHL1    C3 3993   3.193   6.520   5.910 -0.7811 -0.3974 -0.4231
   39CHL1    H3 3994   3.109   6.456   5.875 -0.6892 -0.4306 -0.5790
   39CHL1    O3 3995   3.164   6.566   6.039 -0.2096 -0.0343  0.2884
   39CHL1   H3' 3996   3.147   6.499   6.105 -1.0019  0.3189  0.4558
   39CHL1    C4 3997   3.325   6.439   5.917  0.1481 -0.6219 -0.1296
   39CHL1   H4A 3998   3.403   6.497   5.971 -0.6224 -0.3295  0.7049
   39CHL1   H4B 3999   3.315   6.353   5.987 -0.0593 -0.7759 -0.3475
   39CHL1    C5 4000   3.385   6.408   5.781 -0.3565  0.3937  0.3579
   39CHL1    C6 4001   3.418   6.279   5.749 -0.0473 -0.8791 -0.1711
   39CHL1    H6 4002   3.401   6.192   5.815 -2.9534  0.1030  0.5329
   39CHL1    C7 4003   3.475   6.242   5.613  0.0292 -0.0843  0.5983
   39CHL1   H7A 4004   3.563   6.176   5.626 -0.1701 -0.1160  1.9706
   39CHL1   H7B 4005   3.398   6.184   5.558 -0.5892 -2.1333  3.4021
   39CHL1    C8 4006   3.527   6.360   5.528  0.1486  0.5230  0.1132
   39CHL1    H8 4007   3.622   6.399   5.571  1.7397 -0.2601 -2.4856
   39CHL1   C14 4008   3.561   6.314   5.390  0.3222  0.4498 -1.2293
   39CHL1   H14 4009   3.463   6.282   5.348  0.2274  0.3312 -0.9179
   39CHL1   C15 4010   3.658   6.196   5.381 -0.4994 -0.2050  0.1846
   39CHL1  H15A 4011   3.747   6.212   5.445  0.0271  1.0263 -0.8056
   39CHL1  H15B 4012   3.604   6.102   5.404 -0.6452 -0.1809 -0.0517
   39CHL1   C16 4013   3.702   6.195   5.232  0.2505 -0.9049  0.1868
   39CHL1  H16A 4014   3.813   6.204   5.234  0.0949  2.1993  0.4021
   39CHL1  H16B 4015   3.658   6.104   5.185  0.0958 -0.5789 -0.3151
   39CHL1   C17 4016   3.641   6.330   5.175  0.4551 -0.1073 -0.8679
   39CHL1   H17 4017   3.549   6.295   5.122  0.2671  1.4907 -1.6416
   39CHL1   C13 4018   3.609   6.420   5.295  0.3522  0.1950 -0.1898
   39CHL1   C18 4019   3.739   6.481   5.359 -0.0681  0.2481 -0.0495
   39CHL1  H18A 4020   3.784   6.547   5.282  1.5526  1.8130  2.1082
   39CHL1  H18B 4021   3.714   6.552   5.440 -0.9094  2.6767 -2.2916
   39CHL1  H18C 4022   3.818   6.409   5.390  0.6848 -0.8501 -3.8962
   39CHL1   C12 4023   3.500   6.525   5.280 -0.3242  0.1988 -0.2201
   39CHL1  H12A 4024   3.544   6.613   5.227 -1.2171  0.9011  0.1797
   39CHL1  H12B 4025   3.415   6.482   5.222 -0.3352 -0.6040  0.3749
   39CHL1   C11 4026   3.453   6.575   5.418  0.2025 -0.6442  0.4679
   39CHL1  H11A 4027   3.531   6.638   5.468  0.5404 -1.0801  0.4976
   39CHL1  H11B 4028   3.362   6.636   5.402  1.2809  0.4999 -1.6701
   39CHL1    C9 4029   3.418   6.467   5.530  0.2797 -0.7026 -0.0239
   39CHL1    H9 4030   3.322   6.420   5.499 -0.1140 -0.4912  0.8454
   39CHL1   C10 4031   3.401   6.520   5.675  0.2504  0.4477  0.2844
   39CHL1   C19 4032   3.521   6.611   5.712  0.0802 -0.1243 -0.0230
   39CHL1  H19A 4033   3.537   6.631   5.820  2.2786  0.2552 -0.3673
   39CHL1  H19B 4034   3.613   6.560   5.677 -0.7613  0.1651 -2.9284
   39CHL1  H19C 4035   3.509   6.707   5.658 -0.7360  1.0629  2.1528
   39CHL1    C1 4036   3.272   6.606   5.672 -0.7655 -0.3589 -0.2978
   39CHL1   H1A 4037   3.302   6.693   5.610 -0.7678 -0.4680 -0.4539
   39CHL1   H1B 4038   3.194   6.544   5.622 -0.7237  0.6466 -1.6684
   39CHL1    C2 4039   3.219   6.643   5.814  0.8556 -0.5679 -0.5852
   39CHL1   H2A 4040   3.117   6.687   5.805  1.0995  0.2082  0.2500
   39CHL1   H2B 4041   3.280   6.719   5.867 -0.7302  0.5455 -0.2755
   39CHL1   C20 4042   3.729   6.392   5.065 -0.7006 -0.9258  0.2657
   39CHL1   H20 4043   3.810   6.455   5.106 -1.2659 -1.2363  1.9496
   39CHL1   C21 4044   3.641   6.494   4.980  0.3620  0.2347  0.3190
   39CHL1  H21A 4045   3.690   6.514   4.883 -0.5933 -0.8583 -0.4191
   39CHL1  H21B 4046   3.628   6.584   5.044  1.6507  0.8781 -0.3002
   39CHL1  H21C 4047   3.537   6.456   4.967  0.1982  1.3237 -2.0451
   39CHL1   C22 4048   3.792   6.275   4.980  0.4972 -0.5389 -0.0753
   39CHL1  H22A 4049   3.864   6.212   5.036 -1.8887 -1.0774  2.6327
   39CHL1  H22B 4050   3.715   6.204   4.942 -2.0106  1.2180  1.3679
   39CHL1   C23 4051   3.883   6.311   4.866  0.5663  0.0758 -0.1741
   39CHL1  H23A 4052   3.836   6.387   4.801  1.7935  1.0650  0.0504
   39CHL1  H23B 4053   3.976   6.367   4.889  1.0560  0.1647 -2.1350
   39CHL1   C24 4054   3.923   6.184   4.784 -0.7487  0.6417  0.5645
   39CHL1  H24A 4055   3.979   6.109   4.845  0.1877 -0.6379 -1.7306
   39CHL1  H24B 4056   3.839   6.123   4.745 -1.0925  1.0585  0.6547
   39CHL1   C25 4057   4.026   6.203   4.659 -0.3249  0.2538 -0.3720
   39CHL1   H25 4058   3.968   6.267   4.590 -2.7940 -0.4121  0.9790
   39CHL1   C26 4059   4.155   6.281   4.693 -0.2590 -0.5597  0.6316
   39CHL1  H26A 4060   4.225   6.243   4.771  1.2144 -0.1628 -0.4337
   39CHL1  H26B 4061   4.213   6.301   4.600 -0.2099 -0.0729  0.7618
   39CHL1  H26C 4062   4.136   6.385   4.727 -0.4105 -1.1666  2.4902
   39CHL1   C27 4063   4.072   6.076   4.592 -0.0353  0.4917  0.0236
   39CHL1  H27A 4064   4.161   6.031   4.642 -0.1180  1.1113  0.7323
   39CHL1  H27B 4065   3.988   6.005   4.581 -1.5302  2.1964  0.0912
   39CHL1  H27C 4066   4.119   6.100   4.494 -2.5829 -0.6254 -1.5527
   40CHL1    C3 4067   1.320   3.161   6.008  0.2940 -0.0530  0.8859
   40CHL1    H3 4068   1.430   3.151   6.014  0.4206  0.8851  0.3641
   40CHL1    O3 4069   1.273   3.178   6.142 -0.9559 -0.0461  0.3241
   40CHL1   H3' 4070   1.320   3.251   6.184  2.3919 -1.8852  0.1271
   40CHL1    C4 4071   1.284   3.277   5.919  0.3544 -0.6344  0.6568
   40CHL1   H4A 4072   1.175   3.292   5.936  0.7702  0.2416  2.7675
   40CHL1   H4B 4073   1.333   3.365   5.966  1.0258 -0.3109 -0.6039
   40CHL1    C5 4074   1.314   3.266   5.774 -0.0196  0.1953 -0.3259
   40CHL1    C6 4075   1.387   3.356   5.713  0.2656  0.3607 -0.1203
   40CHL1    H6 4076   1.433   3.441   5.766  0.5774 -0.0219  0.2250
   40CHL1    C7 4077   1.423   3.361   5.571 -0.0692  0.0963  0.7092
   40CHL1   H7A 4078   1.396   3.459   5.525  0.0007 -0.3763 -0.3811
   40CHL1   H7B 4079   1.528   3.342   5.542 -0.5354  1.5162 -2.2957
   40CHL1    C8 4080   1.335   3.257   5.494  0.2012 -0.2429 -0.4093
   40CHL1    H8 4081   1.237   3.310   5.499  1.6535  2.5754  1.9554
   40CHL1   C14 4082   1.363   3.242   5.348 -0.0547 -0.3381 -0.4139
   40CHL1   H14 4083   1.467   3.202   5.341 -0.1747 -0.8587  0.6621
   40CHL1   C15 4084   1.369   3.378   5.262  0.0240  0.9799  0.4319
   40CHL1  H15A 4085   1.282   3.445   5.282  0.8094  2.2682 -0.2894
   40CHL1  H15B 4086   1.466   3.430   5.275  0.5489 -0.5583  3.6363
   40CHL1   C16 4087   1.341   3.328   5.117 -0.6121  0.3452 -0.5170
   40CHL1  H16A 4088   1.246   3.363   5.071 -0.1041 -1.4804 -3.1849
   40CHL1  H16B 4089   1.425   3.355   5.049 -0.0204 -0.1677 -0.0127
   40CHL1   C17 4090   1.336   3.170   5.129 -0.0921 -0.1823 -0.2670
   40CHL1   H17 4091   1.439   3.128   5.127  0.0470  0.0261  1.3435
   40CHL1   C13 4092   1.281   3.144   5.276 -0.3265  0.1738  0.4382
   40CHL1   C18 4093   1.134   3.183   5.285 -0.1286  0.0007  0.2606
   40CHL1  H18A 4094   1.096   3.180   5.390 -0.2120 -1.2361  0.2047
   40CHL1  H18B 4095   1.108   3.284   5.246 -1.1975 -0.0170  0.8845
   40CHL1  H18C 4096   1.068   3.117   5.225 -1.6769  1.3909  0.3588
   40CHL1   C12 4097   1.299   3.003   5.343 -0.1846  0.1331 -0.2943
   40CHL1  H12A 4098   1.248   2.918   5.293  2.0221 -0.3249 -1.9145
   40CHL1  H12B 4099   1.406   2.983   5.320 -0.7026 -3.3584 -0.1911
   40CHL1   C11 4100   1.267   3.009   5.490  0.9947 -0.2197 -0.2658
   40CHL1  H11A 4101   1.156   3.011   5.485  1.0617  0.0401 -3.3322
   40CHL1  H11B 4102   1.290   2.911   5.538  0.3757 -0.1292  0.2259
   40CHL1    C9 4103   1.331   3.123   5.563 -0.2542 -0.3618  0.0605
   40CHL1    H9 4104   1.437   3.105   5.588 -0.5808  2.0282  4.1661
   40CHL1   C10 4105   1.263   3.140   5.702  0.2619 -0.7951 -0.1457
   40CHL1   C19 4106   1.112   3.155   5.700  0.4859 -0.5118 -0.1379
   40CHL1  H19A 4107   1.059   3.157   5.797 -1.1177  2.1460 -0.9463
   40CHL1  H19B 4108   1.079   3.252   5.658  1.2292 -0.1593  0.0728
   40CHL1  H19C 4109   1.070   3.069   5.643  0.1485 -0.6007  0.2409
   40CHL1    C1 4110   1.298   3.022   5.800  0.0531  0.7297 -0.2720
   40CHL1   H1A 4111   1.263   2.923   5.763  1.1332 -0.1230  0.8752
   40CHL1   H1B 4112   1.408   3.026   5.789  0.1836 -0.2262  0.5466
   40CHL1    C2 4113   1.254   3.040   5.949  0.6056  0.3563  0.7795
   40CHL1   H2A 4114   1.296   2.950   5.999  1.3281  0.1449 -0.1839
   40CHL1   H2B 4115   1.143   3.052   5.951  0.4263 -0.6058 -1.0364
   40CHL1   C20 4116   1.244   3.109   5.015 -0.1410 -0.0283  0.2532
   40CHL1   H20 4117   1.142   3.154   5.012 -0.3778 -0.5771 -1.4039
   40CHL1   C21 4118   1.225   2.959   5.036 -0.4889  0.0085  0.8029
   40CHL1  H21A 4119   1.314   2.897   5.055 -0.3898  0.6660  2.7553
   40CHL1  H21B 4120   1.185   2.910   4.945  0.9416  4.4814 -2.5679
   40CHL1  H21C 4121   1.149   2.941   5.116  0.3424 -0.9427  1.4039
   40CHL1   C22 4122   1.305   3.144   4.876  0.6449 -0.2968  0.0881
   40CHL1  H22A 4123   1.325   3.253   4.870  0.3044 -0.1694  1.1138
   40CHL1  H22B 4124   1.405   3.095   4.872 -0.8326 -3.4883 -1.1139
   40CHL1   C23 4125   1.213   3.103   4.755  0.0309 -0.0520  0.4196
   40CHL1  H23A 4126   1.244   3.002   4.722 -0.2804 -0.2939  0.8667
   40CHL1  H23B 4127   1.115   3.084   4.803  0.8735 -0.6148  1.9910
   40CHL1   C24 4128   1.216   3.199   4.640 -0.1736  0.1285 -0.0633
   40CHL1  H24A 4129   1.184   3.301   4.670 -2.1350 -0.3556 -0.3313
   40CHL1  H24B 4130   1.316   3.212   4.595 -0.3155  1.2044 -0.0752
   40CHL1   C25 4131   1.122   3.164   4.520  0.2363  0.5243  0.2433
   40CHL1   H25 4132   1.154   3.062   4.487 -0.1295 -0.0614  1.6519
   40CHL1   C26 4133   0.968   3.153   4.556 -0.4388  0.0377  0.2180
   40CHL1  H26A 4134   0.934   3.245   4.607 -0.8477 -0.3376  0.6411
   40CHL1  H26B 4135   0.908   3.130   4.465 -0.0834  1.1441 -0.3039
   40CHL1  H26C 4136   0.950   3.073   4.632  1.3618 -0.0618  0.5728
   40CHL1   C27 4137   1.135   3.271   4.410  0.1864 -0.1257  0.0591
   40CHL1  H27A 4138   1.065   3.250   4.326 -1.4950 -0.6541  1.5275
   40CHL1  H27B 4139   1.099   3.370   4.446 -0.3275  0.1066 -1.0677
   40CHL1  H27C 4140   1.237   3.281   4.368  0.1127  0.9973  0.1078
   41CHL1    C3 4141   2.952   3.886   6.172  0.7105  0.2714  0.4348
   41CHL1    H3 4142   3.017   3.838   6.097 -0.9500 -0.8987 -0.3322
   41CHL1    O3 4143   2.981   3.859   6.305 -0.0424 -0.3815 -0.4964
   41CHL1   H3' 4144   2.911   3.903   6.354  1.7902  1.6171  0.4826
   41CHL1    C4 4145   2.943   4.041   6.140  0.7379  0.4779  0.1645
   41CHL1   H4A 4146   2.872   4.086   6.212  0.8556  0.1643  0.4824
   41CHL1   H4B 4147   3.039   4.089   6.170 -0.0671  1.8028  0.7533
   41CHL1    C5 4148   2.907   4.065   5.993  0.0329 -0.9797 -1.1047
   41CHL1    C6 4149   2.987   4.143   5.918 -0.5596  0.3691  0.7135
   41CHL1    H6 4150   3.083   4.173   5.963 -0.7933  0.3109  1.2620
   41CHL1    C7 4151   2.954   4.179   5.772 -0.1108 -0.2347 -0.5087
   41CHL1   H7A 4152   2.971   4.287   5.752  0.3672 -0.3734 -0.8712
   41CHL1   H7B 4153   3.016   4.117   5.704 -0.2196 -0.6912 -0.1954
   41CHL1    C8 4154   2.800   4.153   5.750  0.6111  0.1482 -0.1292
   41CHL1    H8 4155   2.744   4.236   5.799  1.8286  1.1980 -0.4618
   41CHL1   C14 4156   2.780   4.156   5.597  0.4790  0.2105 -0.4655
   41CHL1   H14 4157   2.826   4.064   5.555  0.7982  0.0065  0.3100
   41CHL1   C15 4158   2.827   4.277   5.512 -0.3117  0.2902 -0.2930
   41CHL1  H15A 4159   2.806   4.371   5.568 -1.9600 -0.1751 -0.1060
   41CHL1  H15B 4160   2.937   4.259   5.507 -0.1964  1.0602 -0.8561
   41CHL1   C16 4161   2.751   4.268   5.388  0.1635  0.5353  0.4824
   41CHL1  H16A 4162   2.694   4.364   5.387  0.1022  0.5011 -0.4191
   41CHL1  H16B 4163   2.804   4.258   5.291 -1.3452 -0.9918 -0.2411
   41CHL1   C17 4164   2.651   4.153   5.403 -0.4698 -0.1744 -0.4788
   41CHL1   H17 4165   2.699   4.058   5.370  1.7193  0.4834  0.5607
   41CHL1   C13 4166   2.638   4.133   5.555  0.2540 -0.2999 -1.0429
   41CHL1   C18 4167   2.548   4.233   5.617  0.1100  0.8166  0.2164
   41CHL1  H18A 4168   2.557   4.243   5.727 -0.2329  2.6834  0.0964
   41CHL1  H18B 4169   2.561   4.333   5.572  3.8762 -0.1638 -1.2762
   41CHL1  H18C 4170   2.445   4.196   5.598  1.2316 -2.5495 -0.1162
   41CHL1   C12 4171   2.597   3.982   5.602 -0.7509 -0.5943  0.1248
   41CHL1  H12A 4172   2.493   3.959   5.567  0.4194 -2.0391 -2.7445
   41CHL1  H12B 4173   2.654   3.903   5.549  0.4231 -0.7317  1.5352
   41CHL1   C11 4174   2.616   3.968   5.753 -0.1622 -0.6229  0.0457
   41CHL1  H11A 4175   2.538   4.032   5.799  0.7428  0.7423 -0.2606
   41CHL1  H11B 4176   2.602   3.860   5.778 -0.3634 -0.4814  0.5434
   41CHL1    C9 4177   2.754   4.014   5.801 -0.0254  0.0515 -0.2157
   41CHL1    H9 4178   2.815   3.930   5.760 -1.5513 -1.9301  1.3564
   41CHL1   C10 4179   2.774   4.003   5.952 -0.2231  0.4470  0.6231
   41CHL1   C19 4180   2.663   4.081   6.028  0.3904  0.4050 -0.7430
   41CHL1  H19A 4181   2.675   4.076   6.138  3.1031 -0.1322 -0.9770
   41CHL1  H19B 4182   2.681   4.186   5.996 -0.8766  0.9053  0.1347
   41CHL1  H19C 4183   2.559   4.047   6.010  0.6996 -0.0395 -1.7796
   41CHL1    C1 4184   2.772   3.852   5.999  0.1417 -0.3541 -0.1532
   41CHL1   H1A 4185   2.675   3.803   5.974 -0.6378 -0.2882  2.5001
   41CHL1   H1B 4186   2.848   3.794   5.941  1.3281 -0.4851  1.4568
   41CHL1    C2 4187   2.814   3.830   6.143  0.6956 -0.0988 -0.4779
   41CHL1   H2A 4188   2.811   3.725   6.178 -1.6678 -0.0781 -0.4535
   41CHL1   H2B 4189   2.736   3.874   6.209  0.3419 -0.4682 -0.6513
   41CHL1   C20 4190   2.524   4.173   5.313  0.4003 -0.9672 -0.0102
   41CHL1   H20 4191   2.453   4.250   5.348  0.2869 -1.8145  1.6998
   41CHL1   C21 4192   2.426   4.055   5.320  0.1911  0.5130  0.0366
   41CHL1  H21A 4193   2.478   3.960   5.295 -0.0506 -0.1003  1.7121
   41CHL1  H21B 4194   2.344   4.079   5.248  1.6037  2.0508 -1.1514
   41CHL1  H21C 4195   2.377   4.048   5.419 -1.4275  3.4037 -0.4267
   41CHL1   C22 4196   2.567   4.207   5.167 -0.0019  0.9153  0.0025
   41CHL1  H22A 4197   2.482   4.220   5.097 -0.0860 -1.0516 -0.3243
   41CHL1  H22B 4198   2.623   4.303   5.173  3.1784 -0.7540 -0.5821
   41CHL1   C23 4199   2.666   4.103   5.101  0.2766  0.5372 -0.5786
   41CHL1  H23A 4200   2.757   4.086   5.163 -0.9837 -2.8730  0.5653
   41CHL1  H23B 4201   2.621   4.001   5.097  1.4060 -0.0059  0.1058
   41CHL1   C24 4202   2.702   4.130   4.956  0.3078 -0.4120  0.4737
   41CHL1  H24A 4203   2.608   4.118   4.897  0.4544 -1.0135  0.3569
   41CHL1  H24B 4204   2.731   4.237   4.958 -0.0893 -0.2602 -0.8845
   41CHL1   C25 4205   2.818   4.048   4.899 -0.9342  0.1529 -0.4109
   41CHL1   H25 4206   2.783   3.945   4.918 -0.9330  0.0108 -1.1722
   41CHL1   C26 4207   2.833   4.057   4.751  0.1792  0.4305 -0.2925
   41CHL1  H26A 4208   2.735   4.047   4.699  0.7942 -0.5516 -1.3180
   41CHL1  H26B 4209   2.878   4.151   4.714  1.2971 -1.3937 -4.0110
   41CHL1  H26C 4210   2.896   3.976   4.709 -2.6510 -2.7958  1.1204
   41CHL1   C27 4211   2.948   4.074   4.977 -0.0163 -0.3403  0.1488
   41CHL1  H27A 4212   2.937   4.058   5.086 -1.8489 -2.0208 -0.2309
   41CHL1  H27B 4213   3.036   4.023   4.931  0.7216  0.3559  0.7599
   41CHL1  H27C 4214   2.973   4.181   4.962  0.1055 -0.4605 -0.5391
   42CHL1    C3 4215   2.900   6.250   5.784  0.0701  0.3050 -0.1159
   42CHL1    H3 4216   2.999   6.290   5.816 -0.0692 -0.2519  1.0672
   42CHL1    O3 4217   2.803   6.248   5.892 -0.3247  0.3036  0.3864
   42CHL1   H3' 4218   2.820   6.333   5.935 -0.0843 -0.5421  2.0472
   42CHL1    C4 4219   2.839   6.333   5.673  0.2678 -0.3410  0.1738
   42CHL1   H4A 4220   2.740   6.287   5.653  0.1780 -0.4080  0.7604
   42CHL1   H4B 4221   2.821   6.435   5.714  0.1056 -0.5211  0.5560
   42CHL1    C5 4222   2.925   6.331   5.547 -0.1924 -0.3138  0.0946
   42CHL1    C6 4223   2.960   6.448   5.490 -0.6521  0.2700  0.9618
   42CHL1    H6 4224   2.935   6.549   5.526 -0.1702  1.0178 -0.7160
   42CHL1    C7 4225   3.049   6.455   5.376 -1.2382  0.2621 -0.6229
   42CHL1   H7A 4226   3.022   6.539   5.309 -0.4816  0.9103 -0.1375
   42CHL1   H7B 4227   3.149   6.491   5.408 -1.2058 -0.5762  0.2781
   42CHL1    C8 4228   3.048   6.325   5.291 -0.1863  0.0835 -0.0979
   42CHL1    H8 4229   2.947   6.313   5.248 -0.2231 -1.1046  0.2596
   42CHL1   C14 4230   3.141   6.338   5.184 -0.2726  0.7529 -0.4777
   42CHL1   H14 4231   3.241   6.351   5.231  0.1903 -2.0314 -0.5295
   42CHL1   C15 4232   3.131   6.461   5.091  0.1801  0.1343  0.2993
   42CHL1  H15A 4233   3.023   6.486   5.087  0.0710  0.7498  3.9345
   42CHL1  H15B 4234   3.189   6.549   5.126  2.5707 -0.4167 -1.9677
   42CHL1   C16 4235   3.192   6.403   4.958 -0.3861 -0.2402 -0.3791
   42CHL1  H16A 4236   3.113   6.403   4.881 -0.7384  1.0826 -0.0454
   42CHL1  H16B 4237   3.268   6.480   4.934 -0.8802  0.5022  0.3748
   42CHL1   C17 4238   3.246   6.262   4.992 -0.5152  0.7168  0.4127
   42CHL1   H17 4239   3.344   6.269   5.043  0.3026 -2.6711 -0.4182
   42CHL1   C13 4240   3.156   6.207   5.095 -0.2775  0.0666 -0.2950
   42CHL1   C18 4241   3.012   6.175   5.037 -0.2830  0.2178 -1.0063
   42CHL1  H18A 4242   2.963   6.107   5.111  1.6175 -0.8535 -0.6759
   42CHL1  H18B 4243   2.946   6.263   5.024  1.3581  1.5417 -0.6655
   42CHL1  H18C 4244   3.015   6.120   4.941 -1.5799 -1.9975  0.1154
   42CHL1   C12 4245   3.200   6.096   5.193 -0.8661 -0.5352  0.2999
   42CHL1  H12A 4246   3.205   5.998   5.140 -0.4906 -1.5679  2.1469
   42CHL1  H12B 4247   3.305   6.117   5.223 -1.2150  0.8064  0.6571
   42CHL1   C11 4248   3.113   6.078   5.313 -0.5653  0.5981 -0.5555
   42CHL1  H11A 4249   3.026   6.024   5.269  0.4453  1.3119 -3.6375
   42CHL1  H11B 4250   3.160   6.005   5.383 -1.2709 -1.0956 -1.7667
   42CHL1    C9 4251   3.081   6.208   5.386 -0.1775  0.2360 -0.7715
   42CHL1    H9 4252   3.173   6.247   5.436 -0.8037  0.6546  0.0660
   42CHL1   C10 4253   2.975   6.188   5.503  0.4146  0.3451 -0.0209
   42CHL1   C19 4254   2.848   6.124   5.443 -0.0599  0.5303 -0.5391
   42CHL1  H19A 4255   2.816   6.185   5.356 -0.2022  0.3254 -0.6316
   42CHL1  H19B 4256   2.868   6.018   5.416 -0.4752  0.5104 -0.7766
   42CHL1  H19C 4257   2.769   6.108   5.520  0.5968 -1.5150 -0.2242
   42CHL1    C1 4258   3.029   6.102   5.620 -0.2861 -0.7582 -0.0218
   42CHL1   H1A 4259   3.046   6.000   5.578 -1.9468 -0.7351 -0.8561
   42CHL1   H1B 4260   3.126   6.144   5.651 -0.4418  1.1141 -1.8570
   42CHL1    C2 4261   2.930   6.106   5.738 -0.2817 -0.1835 -0.2360
   42CHL1   H2A 4262   2.964   6.039   5.821 -0.2650 -3.3100 -2.5835
   42CHL1   H2B 4263   2.837   6.055   5.706  0.8872 -2.1736 -0.5906
   42CHL1   C20 4264   3.279   6.180   4.866 -0.2735  0.2095  0.3639
   42CHL1   H20 4265   3.195   6.132   4.813  0.0700 -2.9307  2.4114
   42CHL1   C21 4266   3.381   6.070   4.899 -0.1350 -0.0495  0.0458
   42CHL1  H21A 4267   3.474   6.107   4.948 -0.5570  1.9883 -0.6008
   42CHL1  H21B 4268   3.403   6.009   4.809 -2.0695  0.2957 -0.7165
   42CHL1  H21C 4269   3.339   6.003   4.976  2.5401 -3.9345 -1.5614
   42CHL1   C22 4270   3.342   6.276   4.751 -0.3974  0.7167  0.8627
   42CHL1  H22A 4271   3.259   6.340   4.714 -1.3457 -0.4893  0.8321
   42CHL1  H22B 4272   3.423   6.334   4.801  0.9891 -2.0089  2.0125
   42CHL1   C23 4273   3.417   6.202   4.637 -0.6661 -0.2387  0.1745
   42CHL1  H23A 4274   3.520   6.172   4.665  0.8342  0.0348 -4.3106
   42CHL1  H23B 4275   3.362   6.111   4.606 -2.0719  1.1575 -1.6652
   42CHL1   C24 4276   3.445   6.296   4.516  0.6200  0.4774  0.7092
   42CHL1  H24A 4277   3.505   6.230   4.450 -0.9725 -1.5082  1.1788
   42CHL1  H24B 4278   3.353   6.328   4.461  1.5257  1.8563 -0.0781
   42CHL1   C25 4279   3.528   6.428   4.531  0.3907 -0.1638  0.2911
   42CHL1   H25 4280   3.473   6.508   4.585 -0.0846  1.2045 -2.0882
   42CHL1   C26 4281   3.672   6.397   4.580 -0.0871  0.3208 -0.2747
   42CHL1  H26A 4282   3.707   6.323   4.504 -0.5522 -2.2665  1.8738
   42CHL1  H26B 4283   3.725   6.494   4.578 -0.8815  0.8724  2.4426
   42CHL1  H26C 4284   3.671   6.332   4.670  0.6537  0.0695 -0.4411
   42CHL1   C27 4285   3.543   6.484   4.391  0.0474 -0.0659  0.0979
   42CHL1  H27A 4286   3.600   6.579   4.393  3.2522 -1.8179 -0.4110
   42CHL1  H27B 4287   3.584   6.412   4.317 -0.0352 -1.2703  1.1864
   42CHL1  H27C 4288   3.443   6.499   4.346  0.7921  0.2688 -1.5080
   43CHL1    C3 4289   4.159   2.625   6.286 -0.2198  0.0127  0.6670
   43CHL1    H3 4290   4.130   2.518   6.275 -0.1574  0.0812 -0.2214
   43CHL1    O3 4291   4.136   2.653   6.418 -0.7156  0.1733  0.3989
   43CHL1   H3' 4292   4.164   2.745   6.425 -1.3673  0.3723  0.5352
   43CHL1    C4 4293   4.314   2.639   6.256 -0.1034  0.8947  0.3283
   43CHL1   H4A 4294   4.342   2.746   6.269  2.0531  0.3225  0.7053
   43CHL1   H4B 4295   4.354   2.566   6.329 -1.6694 -0.8052 -0.4319
   43CHL1    C5 4296   4.351   2.608   6.109 -0.3683 -0.6742 -0.3098
   43CHL1    C6 4297   4.440   2.515   6.098 -0.1703 -0.4050  0.7593
   43CHL1    H6 4298   4.487   2.462   6.182  2.4204  1.3145  0.4884
   43CHL1    C7 4299   4.484   2.476   5.958 -0.3439  0.4357  0.0400
   43CHL1   H7A 4300   4.595   2.476   5.963 -0.2530  3.3873 -0.0031
   43CHL1   H7B 4301   4.436   2.378   5.939  1.5419 -0.7412  0.9603
   43CHL1    C8 4302   4.434   2.580   5.841 -0.0962 -0.0283 -0.5216
   43CHL1    H8 4303   4.497   2.671   5.846 -0.0271 -0.1229  0.7378
   43CHL1   C14 4304   4.442   2.530   5.700  0.3540  0.0071 -0.3684
   43CHL1   H14 4305   4.373   2.443   5.690  0.3155  0.0600 -0.5618
   43CHL1   C15 4306   4.574   2.463   5.666  0.7716 -0.5460  0.4128
   43CHL1  H15A 4307   4.667   2.518   5.696  0.8447 -0.8648  0.7719
   43CHL1  H15B 4308   4.586   2.369   5.724  1.3679 -2.2850 -2.3720
   43CHL1   C16 4309   4.563   2.443   5.510 -0.6772 -0.6682 -0.0676
   43CHL1  H16A 4310   4.654   2.473   5.454  0.5230 -2.3571  0.8647
   43CHL1  H16B 4311   4.550   2.336   5.483 -1.3410  0.0936 -3.0732
   43CHL1   C17 4312   4.433   2.523   5.465  0.6234  0.2026  0.1924
   43CHL1   H17 4313   4.352   2.448   5.456  0.7994  0.0121  0.2049
   43CHL1   C13 4314   4.401   2.620   5.585  0.3768 -0.6140  0.7153
   43CHL1   C18 4315   4.493   2.746   5.569  0.4581  0.1744 -0.0197
   43CHL1  H18A 4316   4.503   2.805   5.663  2.0819  1.4900 -0.9810
   43CHL1  H18B 4317   4.594   2.717   5.532  0.3130  1.3824 -1.4475
   43CHL1  H18C 4318   4.447   2.811   5.492 -0.4933 -0.7410 -0.2576
   43CHL1   C12 4319   4.255   2.665   5.608  0.3354 -0.0375  0.0045
   43CHL1  H12A 4320   4.225   2.731   5.524  1.0495  0.6122  0.2428
   43CHL1  H12B 4321   4.183   2.581   5.612  0.2611  0.0562  0.7727
   43CHL1   C11 4322   4.247   2.718   5.751  0.5334 -0.3945 -0.1368
   43CHL1  H11A 4323   4.296   2.817   5.741  1.1974 -0.5755  1.1205
   43CHL1  H11B 4324   4.145   2.752   5.778  1.4341  1.6313  0.8862
   43CHL1    C9 4325   4.288   2.622   5.866 -0.4268 -0.4826 -0.5046
   43CHL1    H9 4326   4.233   2.526   5.852 -1.1421 -0.2493  0.6206
   43CHL1   C10 4327   4.265   2.683   6.011 -0.3166 -0.3573 -0.2066
   43CHL1   C19 4328   4.313   2.830   6.010  0.2990  0.1050 -0.0257
   43CHL1  H19A 4329   4.242   2.891   5.950  0.7825  0.5468 -0.1477
   43CHL1  H19B 4330   4.309   2.885   6.106  1.4478  1.1866 -0.5812
   43CHL1  H19C 4331   4.409   2.841   5.956  0.5350  1.4734  0.6422
   43CHL1    C1 4332   4.115   2.681   6.050  0.8929  0.3618  0.0776
   43CHL1   H1A 4333   4.067   2.760   5.988  1.9940 -0.2811 -1.6918
   43CHL1   H1B 4334   4.065   2.588   6.015  0.8604 -0.2412  1.6451
   43CHL1    C2 4335   4.079   2.714   6.198 -0.8981 -0.2090 -0.0340
   43CHL1   H2A 4336   3.972   2.721   6.226 -0.3242  0.9100  2.1063
   43CHL1   H2B 4337   4.127   2.811   6.223  1.8589 -1.9385  1.9725
   43CHL1   C20 4338   4.445   2.589   5.323 -0.7968  0.5663  0.0502
   43CHL1   H20 4339   4.535   2.652   5.311 -0.5335  0.2461  0.3088
   43CHL1   C21 4340   4.325   2.662   5.269  0.2396  0.4337  0.3879
   43CHL1  H21A 4341   4.343   2.712   5.171 -0.4288 -0.0459  0.0155
   43CHL1  H21B 4342   4.291   2.740   5.341  1.3563  2.2851 -1.0099
   43CHL1  H21C 4343   4.239   2.597   5.243 -0.0694  1.5416 -1.5926
   43CHL1   C22 4344   4.471   2.474   5.226 -0.2459  0.8866  0.0432
   43CHL1  H22A 4345   4.561   2.414   5.252  0.7891  2.0811 -0.6669
   43CHL1  H22B 4346   4.389   2.401   5.237  0.8591 -0.2119  1.3790
   43CHL1   C23 4347   4.483   2.511   5.076  0.4753 -0.4032 -1.0421
   43CHL1  H23A 4348   4.390   2.562   5.042 -0.6580 -0.8767  1.1735
   43CHL1  H23B 4349   4.562   2.588   5.065  0.2660 -0.0053  0.0705
   43CHL1   C24 4350   4.518   2.391   5.000  0.4873 -0.4867 -0.2014
   43CHL1  H24A 4351   4.577   2.312   5.052  1.2891 -1.4811 -2.4728
   43CHL1  H24B 4352   4.422   2.347   4.966 -1.2794  4.0702 -1.8116
   43CHL1   C25 4353   4.597   2.430   4.873 -0.0430 -0.2966 -0.1907
   43CHL1   H25 4354   4.548   2.516   4.823 -1.4070 -1.5237 -1.0363
   43CHL1   C26 4355   4.742   2.458   4.903  0.7848  0.1270 -0.0678
   43CHL1  H26A 4356   4.771   2.541   4.971  1.2988  0.4557 -0.6736
   43CHL1  H26B 4357   4.791   2.375   4.957  0.2780  2.2103  3.9734
   43CHL1  H26C 4358   4.799   2.476   4.809  1.4807  2.4735  0.7322
   43CHL1   C27 4359   4.593   2.319   4.762  0.3466  0.4318  0.2650
   43CHL1  H27A 4360   4.487   2.300   4.737  0.3990  1.1671 -0.5687
   43CHL1  H27B 4361   4.644   2.362   4.673 -0.7385  1.0764 -0.0520
   43CHL1  H27C 4362   4.646   2.231   4.806  2.3275  0.5715 -1.6178
   44CHL1    C3 4363   4.788   4.263   6.249  0.3828 -0.6839  0.2906
   44CHL1    H3 4364   4.796   4.161   6.205 -0.8689 -0.2994 -0.8991
   44CHL1    O3 4365   4.735   4.259   6.385 -0.6684 -0.5220  0.3211
   44CHL1   H3' 4366   4.771   4.338   6.427 -0.2228 -0.2120 -0.6001
   44CHL1    C4 4367   4.928   4.326   6.247 -0.1019 -0.4035  0.5816
   44CHL1   H4A 4368   4.925   4.428   6.290  1.3710  0.0508 -0.3286
   44CHL1   H4B 4369   4.995   4.264   6.310  0.7802  1.3123  1.3762
   44CHL1    C5 4370   4.984   4.340   6.103 -0.0029  0.2418  0.3742
   44CHL1    C6 4371   5.109   4.290   6.071  0.1863  0.2180 -0.3857
   44CHL1    H6 4372   5.174   4.243   6.146  0.1804 -0.3641 -0.7424
   44CHL1    C7 4373   5.168   4.313   5.938  0.1186 -0.1990  0.3834
   44CHL1   H7A 4374   5.276   4.338   5.940  0.4533 -1.4195 -0.7457
   44CHL1   H7B 4375   5.184   4.211   5.897 -1.6023 -1.5772  2.8831
   44CHL1    C8 4376   5.087   4.394   5.837 -0.2699 -0.5085  0.4653
   44CHL1    H8 4377   5.099   4.503   5.851  0.2221 -0.5090  0.0795
   44CHL1   C14 4378   5.124   4.373   5.696  0.4262 -0.1118  0.3156
   44CHL1   H14 4379   5.091   4.269   5.673  0.8728 -0.3224  0.5984
   44CHL1   C15 4380   5.274   4.372   5.664 -0.0764 -0.8102  0.1395
   44CHL1  H15A 4381   5.325   4.457   5.712  2.8458 -1.1648 -2.0726
   44CHL1  H15B 4382   5.326   4.278   5.692  0.7220  0.0204  1.5054
   44CHL1   C16 4383   5.267   4.372   5.512 -0.0448  0.0742  0.9752
   44CHL1  H16A 4384   5.331   4.450   5.463 -0.9213  0.0388 -0.2880
   44CHL1  H16B 4385   5.285   4.270   5.472 -0.3931 -0.1389  1.3631
   44CHL1   C17 4386   5.117   4.385   5.461 -0.1573  0.3361 -1.1225
   44CHL1   H17 4387   5.081   4.281   5.453 -0.3905  0.2349  0.8006
   44CHL1   C13 4388   5.048   4.446   5.584 -0.9987  0.5415  0.4015
   44CHL1   C18 4389   5.073   4.595   5.592  0.2263 -0.0937 -0.0762
   44CHL1  H18A 4390   5.022   4.660   5.518 -0.5118 -1.1029 -0.4784
   44CHL1  H18B 4391   5.047   4.629   5.695  2.4685  2.5627 -0.2742
   44CHL1  H18C 4392   5.179   4.620   5.573 -0.0151  0.9903 -0.0685
   44CHL1   C12 4393   4.900   4.405   5.599 -0.2382  0.6544  0.4395
   44CHL1  H12A 4394   4.842   4.459   5.521  1.1095  1.1748 -0.2377
   44CHL1  H12B 4395   4.897   4.295   5.587 -0.5167  0.6851  0.2151
   44CHL1   C11 4396   4.846   4.431   5.742 -0.8053 -0.0201 -0.1394
   44CHL1  H11A 4397   4.848   4.541   5.760  2.0166  0.0489 -0.3558
   44CHL1  H11B 4398   4.741   4.397   5.753 -1.2403  1.6008  1.1632
   44CHL1    C9 4399   4.937   4.370   5.856  0.3902  0.8776  0.5854
   44CHL1    H9 4400   4.936   4.260   5.836  0.7451  0.5808  2.1145
   44CHL1   C10 4401   4.892   4.401   5.997  0.4473 -0.5306  0.3212
   44CHL1   C19 4402   4.885   4.553   6.033 -0.1473 -0.5266  0.2271
   44CHL1  H19A 4403   4.829   4.567   6.128  0.5319 -0.1760  0.5834
   44CHL1  H19B 4404   4.984   4.603   6.032  0.8660 -2.4289  0.8555
   44CHL1  H19C 4405   4.827   4.606   5.954  0.1019 -1.8799 -0.8904
   44CHL1    C1 4406   4.743   4.344   6.009 -0.5997  0.7762  0.4286
   44CHL1   H1A 4407   4.676   4.409   5.948  0.2375  1.5161  0.2760
   44CHL1   H1B 4408   4.742   4.243   5.962  0.8443  1.1521 -0.4767
   44CHL1    C2 4409   4.698   4.336   6.157  0.4753  1.1263 -0.3854
   44CHL1   H2A 4410   4.599   4.285   6.152  1.5125 -0.8880 -2.8037
   44CHL1   H2B 4411   4.690   4.441   6.191  2.3913  0.8141  1.1623
   44CHL1   C20 4412   5.094   4.451   5.331  0.5918  0.2091 -0.3511
   44CHL1   H20 4413   5.122   4.557   5.350  1.8946 -0.0967 -0.4479
   44CHL1   C21 4414   4.953   4.429   5.280 -0.0677  1.0796 -0.1687
   44CHL1  H21A 4415   4.962   4.462   5.174  0.3205  0.2043 -0.4208
   44CHL1  H21B 4416   4.874   4.496   5.320 -2.1673  1.6143 -4.6130
   44CHL1  H21C 4417   4.903   4.329   5.287  0.7367  0.7706  1.6205
   44CHL1   C22 4418   5.189   4.396   5.221 -0.9070 -0.0048 -0.0258
   44CHL1  H22A 4419   5.291   4.371   5.259  0.2616  0.7153 -2.5004
   44CHL1  H22B 4420   5.145   4.298   5.193  0.7080 -1.5760  2.4860
   44CHL1   C23 4421   5.213   4.491   5.105 -0.2606  0.0005  0.1976
   44CHL1  H23A 4422   5.126   4.493   5.036  0.0791  1.2276 -0.2160
   44CHL1  H23B 4423   5.229   4.595   5.142  1.5344 -0.5704  1.1338
   44CHL1   C24 4424   5.336   4.455   5.015 -0.1603  0.5981 -0.0127
   44CHL1  H24A 4425   5.431   4.440   5.072  0.2316 -1.8867 -1.1635
   44CHL1  H24B 4426   5.307   4.361   4.962  1.2139  0.5939 -0.8011
   44CHL1   C25 4427   5.375   4.559   4.905  0.2271 -0.2161  0.2641
   44CHL1   H25 4428   5.462   4.513   4.854 -0.9300 -1.1876 -0.9031
   44CHL1   C26 4429   5.268   4.590   4.799  0.2862  0.6366 -1.0889
   44CHL1  H26A 4430   5.179   4.641   4.841  1.0644 -0.3152  1.9777
   44CHL1  H26B 4431   5.324   4.651   4.724  2.4527 -0.4911 -0.4674
   44CHL1  H26C 4432   5.236   4.496   4.748  3.4145 -2.0622  1.4941
   44CHL1   C27 4433   5.411   4.682   4.975  0.5284 -0.0973  0.0187
   44CHL1  H27A 4434   5.479   4.670   5.062  0.6342  1.2140  0.1345
   44CHL1  H27B 4435   5.459   4.756   4.907  1.7863 -2.0907 -1.3704
   44CHL1  H27C 4436   5.321   4.731   5.018 -0.6406 -1.3317 -0.9853
   45CHL1    C3 4437   0.194   6.598   6.353  0.0155 -0.8776 -0.8870
   45CHL1    H3 4438   0.182   6.489   6.332  0.5686 -1.1998  0.3717
   45CHL1    O3 4439   0.200   6.611   6.497 -0.2536  0.1231  0.4203
   45CHL1   H3' 4440   0.215   6.706   6.504 -1.6611  0.4701 -0.7125
   45CHL1    C4 4441   0.321   6.651   6.291  0.4107  0.1833 -0.1610
   45CHL1   H4A 4442   0.342   6.755   6.322  0.7466 -0.0416  0.3824
   45CHL1   H4B 4443   0.404   6.590   6.333  1.4468  0.8503 -1.1660
   45CHL1    C5 4444   0.310   6.628   6.134 -0.5305  0.2706 -0.3557
   45CHL1    C6 4445   0.394   6.551   6.072 -0.6608  0.0035 -0.0595
   45CHL1    H6 4446   0.468   6.493   6.129 -1.7378 -1.7105 -0.3274
   45CHL1    C7 4447   0.388   6.535   5.922 -0.1721  0.4193  0.4360
   45CHL1   H7A 4448   0.489   6.530   5.874 -0.8861  0.1659 -1.1092
   45CHL1   H7B 4449   0.335   6.439   5.906  2.5723 -1.1241 -0.0025
   45CHL1    C8 4450   0.299   6.641   5.851  0.0203  0.4393 -0.2819
   45CHL1    H8 4451   0.344   6.743   5.853 -1.5644  1.1644 -0.1062
   45CHL1   C14 4452   0.273   6.599   5.707  0.5967  0.1167  0.6990
   45CHL1   H14 4453   0.223   6.500   5.711 -0.0932  0.0945 -3.5210
   45CHL1   C15 4454   0.390   6.561   5.608 -0.6301 -0.0395  0.2929
   45CHL1  H15A 4455   0.456   6.649   5.614 -1.1985  0.3848  0.4411
   45CHL1  H15B 4456   0.438   6.463   5.630  0.4680  0.2141 -0.8933
   45CHL1   C16 4457   0.327   6.564   5.464 -0.2886  0.1861  0.6473
   45CHL1  H16A 4458   0.391   6.622   5.395  0.1561 -1.8181 -0.6806
   45CHL1  H16B 4459   0.328   6.458   5.433 -1.7766 -0.2026  1.7495
   45CHL1   C17 4460   0.172   6.606   5.486 -0.1631  0.1010  0.2389
   45CHL1   H17 4461   0.113   6.512   5.484  0.7841 -0.4969 -0.9612
   45CHL1   C13 4462   0.174   6.683   5.614  0.8478 -0.0585  0.0455
   45CHL1   C18 4463   0.230   6.828   5.596 -0.1640 -0.4369 -0.7287
   45CHL1  H18A 4464   0.329   6.819   5.546  0.4114  1.0645  0.0796
   45CHL1  H18B 4465   0.172   6.896   5.530  1.7260  0.9712 -1.0095
   45CHL1  H18C 4466   0.252   6.874   5.694  1.9922  2.8742 -2.5769
   45CHL1   C12 4467   0.041   6.688   5.691 -0.2022  0.1433 -0.6788
   45CHL1  H12A 4468  -0.030   6.757   5.640  1.0973  0.9022 -1.4969
   45CHL1  H12B 4469  -0.005   6.587   5.687  1.2651 -0.5766 -0.1025
   45CHL1   C11 4470   0.060   6.736   5.841 -0.4026  0.1083  0.4517
   45CHL1  H11A 4471   0.089   6.841   5.819  2.2616 -0.8657 -1.2536
   45CHL1  H11B 4472  -0.039   6.734   5.891 -1.1875  0.1414 -1.0637
   45CHL1    C9 4473   0.161   6.655   5.925  0.5630 -0.1869  0.1642
   45CHL1    H9 4474   0.114   6.554   5.925  0.0933  0.0346  0.2941
   45CHL1   C10 4475   0.186   6.700   6.072  0.5867  0.4834  0.4148
   45CHL1   C19 4476   0.209   6.853   6.068  0.1453  0.1614 -0.5766
   45CHL1  H19A 4477   0.250   6.889   6.165 -0.4075  0.1359 -0.3262
   45CHL1  H19B 4478   0.291   6.879   5.997 -0.2167 -1.3243 -1.5787
   45CHL1  H19C 4479   0.115   6.910   6.052  1.1794  2.2380  0.3136
   45CHL1    C1 4480   0.055   6.675   6.154 -0.1491 -0.0467  0.3481
   45CHL1   H1A 4481  -0.033   6.729   6.115 -0.6124 -2.1302 -1.7296
   45CHL1   H1B 4482   0.018   6.572   6.132 -0.9814  0.3704 -0.2688
   45CHL1    C2 4483   0.079   6.684   6.304  0.3917 -0.0671 -0.0136
   45CHL1   H2A 4484  -0.010   6.649   6.361 -0.7003  0.9559 -1.0239
   45CHL1   H2B 4485   0.100   6.790   6.330  1.4709  0.6713 -3.4527
   45CHL1   C20 4486   0.138   6.678   5.357 -0.0575  0.2808 -0.4269
   45CHL1   H20 4487   0.201   6.769   5.366  2.2748 -1.3104  0.1795
   45CHL1   C21 4488  -0.014   6.722   5.356  0.3554  0.6586  0.3094
   45CHL1  H21A 4489  -0.066   6.624   5.355 -0.6867  1.1856 -0.9084
   45CHL1  H21B 4490  -0.040   6.778   5.263 -0.2749 -3.2543 -2.0894
   45CHL1  H21C 4491  -0.033   6.772   5.454  1.5869  0.5681  0.6059
   45CHL1   C22 4492   0.188   6.615   5.229  0.2996  0.4129 -0.8715
   45CHL1  H22A 4493   0.272   6.543   5.224 -0.1349 -0.4320  1.9109
   45CHL1  H22B 4494   0.107   6.551   5.187  1.0066 -1.7217  0.8373
   45CHL1   C23 4495   0.237   6.728   5.138 -0.0012  0.1322  0.2160
   45CHL1  H23A 4496   0.155   6.802   5.125  1.3270  1.7459  0.6252
   45CHL1  H23B 4497   0.310   6.783   5.202 -0.3452  0.2959  0.4668
   45CHL1   C24 4498   0.297   6.674   5.009  0.3274 -0.1160  0.5552
   45CHL1  H24A 4499   0.374   6.596   5.027  0.9469  0.2222 -0.5490
   45CHL1  H24B 4500   0.205   6.627   4.966 -0.5404  0.9552  1.1998
   45CHL1   C25 4501   0.346   6.784   4.909  0.2175 -0.0031  0.4023
   45CHL1   H25 4502   0.266   6.858   4.891 -1.5647 -1.9359  0.0246
   45CHL1   C26 4503   0.476   6.850   4.965  0.3050 -0.5166  0.1544
   45CHL1  H26A 4504   0.548   6.777   5.009 -0.6770 -0.0860  2.6319
   45CHL1  H26B 4505   0.533   6.910   4.891  0.6411 -0.4255  0.4861
   45CHL1  H26C 4506   0.450   6.913   5.053  0.9557 -0.2457  0.1578
   45CHL1   C27 4507   0.370   6.723   4.769 -0.2649 -0.1859  0.2912
   45CHL1  H27A 4508   0.278   6.673   4.730 -0.7905  0.6509  0.4339
   45CHL1  H27B 4509   0.407   6.787   4.686 -2.7976 -1.8641 -2.3447
   45CHL1  H27C 4510   0.447   6.649   4.796  0.3479  0.6372  0.8391
   46CHL1    C3 4511   3.595   5.909   4.156  0.8307  0.0487  0.4895
   46CHL1    H3 4512   3.697   5.880   4.187  1.5180 -0.4220 -1.9808
   46CHL1    O3 4513   3.579   6.043   4.195  0.1166 -0.4144  0.5892
   46CHL1   H3' 4514   3.488   6.069   4.181  0.0122  0.1853  2.2255
   46CHL1    C4 4515   3.580   5.898   4.000  0.4407 -0.2195 -0.0471
   46CHL1   H4A 4516   3.490   5.951   3.961 -0.1413 -1.7821 -0.8872
   46CHL1   H4B 4517   3.667   5.950   3.956  1.3245  0.0401  1.8911
   46CHL1    C5 4518   3.576   5.762   3.940  0.4314  0.5212  0.1797
   46CHL1    C6 4519   3.663   5.716   3.847  0.2726 -0.7012  0.1226
   46CHL1    H6 4520   3.750   5.775   3.814 -1.6159  1.5680 -1.1380
   46CHL1    C7 4521   3.665   5.579   3.792 -0.1032  0.7279 -0.0297
   46CHL1   H7A 4522   3.687   5.578   3.683 -1.6842  0.6489 -0.3767
   46CHL1   H7B 4523   3.745   5.513   3.832  1.2591  1.5074 -1.3815
   46CHL1    C8 4524   3.518   5.514   3.809  0.3484  0.3982 -0.7533
   46CHL1    H8 4525   3.440   5.575   3.759 -0.2085  0.7951  0.5434
   46CHL1   C14 4526   3.515   5.361   3.761 -0.0363 -0.4135  0.0810
   46CHL1   H14 4527   3.594   5.305   3.814 -1.1301 -0.2482  1.9601
   46CHL1   C15 4528   3.538   5.342   3.610  0.3484  0.4801 -0.3294
   46CHL1  H15A 4529   3.488   5.418   3.546  1.2342  0.6419 -0.8413
   46CHL1  H15B 4530   3.647   5.338   3.587  0.0712 -1.9947 -1.5197
   46CHL1   C16 4531   3.478   5.204   3.580  0.0409  0.2259  0.2905
   46CHL1  H16A 4532   3.398   5.211   3.503  1.1083 -1.5308 -1.0490
   46CHL1  H16B 4533   3.555   5.130   3.550 -0.0251  0.4796 -0.5088
   46CHL1   C17 4534   3.417   5.153   3.714  0.3552  0.6457 -0.0102
   46CHL1   H17 4535   3.497   5.104   3.772 -2.0476 -3.5982  0.1563
   46CHL1   C13 4536   3.388   5.284   3.797  0.0352  0.0309  0.5500
   46CHL1   C18 4537   3.251   5.339   3.736 -0.1948 -1.1166  0.0957
   46CHL1  H18A 4538   3.167   5.280   3.778 -0.3551 -1.6410 -0.9304
   46CHL1  H18B 4539   3.251   5.447   3.761  0.1550 -1.3072  0.9746
   46CHL1  H18C 4540   3.250   5.325   3.626 -1.9968  0.8772 -0.1925
   46CHL1   C12 4541   3.379   5.281   3.949 -0.7646 -0.2093 -0.3687
   46CHL1  H12A 4542   3.287   5.225   3.975 -1.2672  0.0743 -1.4797
   46CHL1  H12B 4543   3.466   5.227   3.992 -0.6983  0.7293  0.7246
   46CHL1   C11 4544   3.375   5.426   4.010 -0.6035 -1.0591 -0.7669
   46CHL1  H11A 4545   3.278   5.478   3.998 -0.7641 -0.8739  1.0487
   46CHL1  H11B 4546   3.382   5.421   4.121 -0.5459 -0.6219 -0.7453
   46CHL1    C9 4547   3.490   5.522   3.963  0.6279  0.1491 -0.2911
   46CHL1    H9 4548   3.577   5.479   4.016  1.1054 -1.5468 -2.3349
   46CHL1   C10 4549   3.473   5.672   4.001  0.1170 -0.0773 -0.4179
   46CHL1   C19 4550   3.323   5.724   3.977 -0.4019  0.0939  0.6268
   46CHL1  H19A 4551   3.246   5.688   4.049 -1.8683  1.6540 -0.0873
   46CHL1  H19B 4552   3.322   5.835   3.984 -1.4609  0.2363 -1.1960
   46CHL1  H19C 4553   3.303   5.690   3.873  2.4712  0.2073 -0.0426
   46CHL1    C1 4554   3.487   5.678   4.158 -0.1249 -0.3258 -0.3188
   46CHL1   H1A 4555   3.401   5.632   4.210 -0.7646  1.6013  0.4405
   46CHL1   H1B 4556   3.582   5.633   4.194  0.9559  0.5775 -1.9366
   46CHL1    C2 4557   3.483   5.819   4.223 -0.0090 -1.1527  0.6148
   46CHL1   H2A 4558   3.502   5.803   4.332 -0.1989 -0.5266  0.7409
   46CHL1   H2B 4559   3.382   5.863   4.209  0.6218  0.8069  1.9147
   46CHL1   C20 4560   3.308   5.045   3.695  0.6920 -0.8849  0.0657
   46CHL1   H20 4561   3.222   5.089   3.640  0.9244 -2.1449 -1.3663
   46CHL1   C21 4562   3.247   4.993   3.820  0.6096 -0.3650  0.6218
   46CHL1  H21A 4563   3.193   5.072   3.876 -0.4819 -0.5129 -0.2023
   46CHL1  H21B 4564   3.319   4.946   3.891 -1.4675  0.0027  3.1209
   46CHL1  H21C 4565   3.164   4.924   3.794 -1.2778  2.6964 -2.1387
   46CHL1   C22 4566   3.347   4.922   3.610  0.2615 -0.1083 -0.4573
   46CHL1  H22A 4567   3.256   4.857   3.611  0.6326 -0.6712 -1.6073
   46CHL1  H22B 4568   3.362   4.948   3.503 -3.7115 -3.2977 -2.1020
   46CHL1   C23 4569   3.467   4.842   3.650  0.3248  0.1907  0.5988
   46CHL1  H23A 4570   3.555   4.910   3.659  1.0285 -0.5387 -0.5491
   46CHL1  H23B 4571   3.462   4.785   3.745  2.8877 -0.0107  0.6743
   46CHL1   C24 4572   3.516   4.750   3.534  0.4219 -0.3985 -0.0249
   46CHL1  H24A 4573   3.428   4.692   3.498  0.2963 -0.6674  0.6923
   46CHL1  H24B 4574   3.554   4.809   3.448  0.4794 -0.8462 -0.3133
   46CHL1   C25 4575   3.623   4.647   3.571 -0.3000  0.0029  0.0490
   46CHL1   H25 4576   3.663   4.602   3.477  0.3561  0.9416 -0.1382
   46CHL1   C26 4577   3.744   4.715   3.637 -0.6816  0.0674  0.2103
   46CHL1  H26A 4578   3.825   4.640   3.646 -1.6835 -1.5127 -2.5845
   46CHL1  H26B 4579   3.775   4.792   3.563  0.5431 -1.6050 -1.0903
   46CHL1  H26C 4580   3.715   4.752   3.738 -1.5387  0.1115 -0.0457
   46CHL1   C27 4581   3.566   4.533   3.662  0.4520 -0.3585  0.3485
   46CHL1  H27A 4582   3.641   4.453   3.682  0.5815 -0.7323 -1.4052
   46CHL1  H27B 4583   3.525   4.578   3.755  0.0219 -0.1180  0.0451
   46CHL1  H27C 4584   3.481   4.493   3.601  0.7941  0.9458 -1.0481
   47CHL1    C3 4585   3.475   5.319   3.227 -0.2850  0.4561  0.1238
   47CHL1    H3 4586   3.491   5.297   3.335 -0.1860 -2.0928 -0.3407
   47CHL1    O3 4587   3.473   5.197   3.149  0.2840 -0.4400  0.3379
   47CHL1   H3' 4588   3.423   5.227   3.073  0.8754  0.3173  0.2333
   47CHL1    C4 4589   3.351   5.395   3.210 -0.0057  0.3140 -0.3455
   47CHL1   H4A 4590   3.350   5.428   3.104  2.0022 -0.9662 -0.8256
   47CHL1   H4B 4591   3.258   5.341   3.237 -0.4065  0.4096 -1.5069
   47CHL1    C5 4592   3.364   5.532   3.283  0.7375 -0.9208 -0.5969
   47CHL1    C6 4593   3.268   5.565   3.373  0.1502 -0.3144 -0.1689
   47CHL1    H6 4594   3.180   5.501   3.388 -0.6561  0.1778 -2.3913
   47CHL1    C7 4595   3.275   5.682   3.470  0.1131 -0.6398 -0.4012
   47CHL1   H7A 4596   3.177   5.733   3.461 -1.2987 -3.0886  0.3531
   47CHL1   H7B 4597   3.287   5.640   3.572  0.8669  1.6496  0.5321
   47CHL1    C8 4598   3.384   5.786   3.443 -0.2224 -0.0757  0.2549
   47CHL1    H8 4599   3.339   5.847   3.362 -1.1760  1.0319  1.5979
   47CHL1   C14 4600   3.419   5.880   3.566  0.0216 -0.1565  0.8081
   47CHL1   H14 4601   3.464   5.818   3.647  0.9860 -0.5553 -0.0144
   47CHL1   C15 4602   3.304   5.954   3.633  0.5038  0.5699 -0.2080
   47CHL1  H15A 4603   3.254   6.000   3.545 -1.9620  0.1289  0.8866
   47CHL1  H15B 4604   3.230   5.897   3.693  2.0339  0.2938  1.5043
   47CHL1   C16 4605   3.380   6.058   3.713 -0.1858 -0.4387  0.0103
   47CHL1  H16A 4606   3.339   6.161   3.701 -0.5850 -0.5631  0.2624
   47CHL1  H16B 4607   3.367   6.034   3.821  0.8172  1.5881  0.6347
   47CHL1   C17 4608   3.527   6.053   3.673 -0.0768  0.2184 -0.0769
   47CHL1   H17 4609   3.583   5.993   3.748 -0.6344  0.2120  0.3444
   47CHL1   C13 4610   3.529   5.975   3.538  0.1811 -0.3954  0.0252
   47CHL1   C18 4611   3.497   6.073   3.428 -0.5420  0.4122  0.1548
   47CHL1  H18A 4612   3.581   6.143   3.407 -0.0621 -0.0797  0.4127
   47CHL1  H18B 4613   3.474   6.019   3.334  2.2655 -2.0138  0.7232
   47CHL1  H18C 4614   3.412   6.137   3.459 -0.2834  0.5492  0.5895
   47CHL1   C12 4615   3.665   5.896   3.509  0.0872 -0.2360  0.2898
   47CHL1  H12A 4616   3.752   5.962   3.491  1.1184 -1.2729  1.3062
   47CHL1  H12B 4617   3.703   5.834   3.593  2.5180 -0.8699 -1.2032
   47CHL1   C11 4618   3.638   5.801   3.387 -1.0481 -0.5171  0.2376
   47CHL1  H11A 4619   3.633   5.874   3.303  0.8739 -2.3871 -1.6207
   47CHL1  H11B 4620   3.729   5.737   3.383  0.0912  1.0368  0.2469
   47CHL1    C9 4621   3.511   5.712   3.397  0.5376  0.3213 -0.9746
   47CHL1    H9 4622   3.530   5.637   3.477 -1.6400 -2.6612 -3.0275
   47CHL1   C10 4623   3.492   5.615   3.278  0.3883  0.0495  0.2542
   47CHL1   C19 4624   3.488   5.689   3.147  0.3297 -0.0760  0.8357
   47CHL1  H19A 4625   3.401   5.757   3.137 -0.1194 -0.6503  0.7155
   47CHL1  H19B 4626   3.585   5.742   3.136  2.6418 -4.1712 -1.3083
   47CHL1  H19C 4627   3.478   5.613   3.066 -0.5865 -2.0980  2.7382
   47CHL1    C1 4628   3.615   5.517   3.276  0.7186  0.2335  0.1179
   47CHL1   H1A 4629   3.704   5.574   3.244 -1.0339  2.3071 -1.3304
   47CHL1   H1B 4630   3.639   5.482   3.379 -2.1924 -1.2385  0.4030
   47CHL1    C2 4631   3.596   5.398   3.177  0.1830  0.4861  0.2509
   47CHL1   H2A 4632   3.687   5.335   3.182  0.1343  0.2503 -1.2922
   47CHL1   H2B 4633   3.590   5.431   3.071  0.8772 -0.9510 -0.2577
   47CHL1   C20 4634   3.590   6.192   3.687  0.1936 -0.1018  0.3659
   47CHL1   H20 4635   3.538   6.272   3.629  4.8866  2.9344 -0.1885
   47CHL1   C21 4636   3.740   6.185   3.643 -0.0807  0.1701  0.5059
   47CHL1  H21A 4637   3.747   6.200   3.533  0.0723 -0.7479  0.3850
   47CHL1  H21B 4638   3.795   6.093   3.673  2.7561  1.3690 -0.6536
   47CHL1  H21C 4639   3.784   6.272   3.696 -1.5793  1.4993 -0.3253
   47CHL1   C22 4640   3.575   6.244   3.837 -0.3705 -0.1341 -0.4248
   47CHL1  H22A 4641   3.481   6.211   3.887  1.3211 -2.1837  1.6240
   47CHL1  H22B 4642   3.654   6.197   3.899 -1.1290  0.0077  0.6825
   47CHL1   C23 4643   3.591   6.394   3.861  0.7547  0.1184  0.6731
   47CHL1  H23A 4644   3.692   6.424   3.824 -0.0291 -1.2156 -3.0600
   47CHL1  H23B 4645   3.517   6.450   3.799 -1.3738 -1.3041  1.8101
   47CHL1   C24 4646   3.564   6.437   4.008 -0.2294  0.3873  0.7293
   47CHL1  H24A 4647   3.456   6.419   4.023 -0.3244 -0.5498 -0.7677
   47CHL1  H24B 4648   3.619   6.371   4.078  2.0834  1.2898 -0.1281
   47CHL1   C25 4649   3.600   6.583   4.043  0.0021  0.0910 -0.9343
   47CHL1   H25 4650   3.570   6.605   4.147 -0.9283  2.1975 -1.5947
   47CHL1   C26 4651   3.747   6.605   4.011 -0.1226 -0.2152  0.9472
   47CHL1  H26A 4652   3.763   6.616   3.901 -1.9169  3.0896  0.9043
   47CHL1  H26B 4653   3.782   6.698   4.060 -0.0664  0.2796 -0.0099
   47CHL1  H26C 4654   3.809   6.518   4.041  0.8839  0.6329  1.3871
   47CHL1   C27 4655   3.527   6.683   3.954  0.1596  0.0076  0.2728
   47CHL1  H27A 4656   3.585   6.712   3.864  0.7414  0.0595  0.6610
   47CHL1  H27B 4657   3.435   6.630   3.919 -0.8805 -0.2632  3.1280
   47CHL1  H27C 4658   3.506   6.776   4.011 -0.4935 -0.6200  1.0803
   48CHL1    C3 4659   3.895   5.037   6.303 -0.1074 -0.6779  0.1684
   48CHL1    H3 4660   3.822   4.956   6.281 -0.6235 -0.2763  0.3959
   48CHL1    O3 4661   3.942   5.045   6.440 -0.4031 -0.9260 -0.3978
   48CHL1   H3' 4662   3.864   5.037   6.496  0.0771 -0.4215  0.3684
   48CHL1    C4 4663   4.016   5.003   6.213  0.7997 -0.7933 -0.1573
   48CHL1   H4A 4664   4.096   5.075   6.242 -0.4669  0.4144  0.5098
   48CHL1   H4B 4665   4.066   4.908   6.241 -0.6519 -1.5793 -0.1198
   48CHL1    C5 4666   3.971   5.010   6.068 -0.4029  0.1301 -0.6686
   48CHL1    C6 4667   3.999   4.903   5.992 -0.0234 -0.7067  0.3377
   48CHL1    H6 4668   4.054   4.815   6.029  1.0298  0.0806  0.7092
   48CHL1    C7 4669   3.971   4.900   5.847  0.1586  0.1376 -0.0369
   48CHL1   H7A 4670   4.058   4.860   5.790  0.3414 -0.5517  0.7176
   48CHL1   H7B 4671   3.886   4.835   5.819  1.7325 -0.7051 -3.5136
   48CHL1    C8 4672   3.939   5.044   5.785 -0.0294  0.2849 -0.5139
   48CHL1    H8 4673   4.032   5.103   5.772  1.0911 -1.3165 -0.0913
   48CHL1   C14 4674   3.865   5.037   5.654 -0.4611 -0.2123 -0.0266
   48CHL1   H14 4675   3.763   4.995   5.668 -2.1375  2.8672 -1.8942
   48CHL1   C15 4676   3.920   4.941   5.539  0.7702  0.4577  0.2536
   48CHL1  H15A 4677   4.029   4.963   5.542  0.6065  1.4919 -0.9376
   48CHL1  H15B 4678   3.891   4.836   5.563 -3.1854  0.8094 -2.0296
   48CHL1   C16 4679   3.854   4.991   5.408  0.4541  0.0312 -0.5104
   48CHL1  H16A 4680   3.929   5.013   5.329 -0.5408 -1.0970 -1.8178
   48CHL1  H16B 4681   3.788   4.913   5.365 -0.5351 -1.4543  3.2841
   48CHL1   C17 4682   3.783   5.123   5.443 -0.8034 -0.5162  0.0063
   48CHL1   H17 4683   3.675   5.100   5.459 -0.7605  0.3387  1.7357
   48CHL1   C13 4684   3.834   5.169   5.586  0.7758 -0.9685 -0.3431
   48CHL1   C18 4685   3.967   5.237   5.557  0.2986 -0.3495  0.7068
   48CHL1  H18A 4686   4.013   5.265   5.654 -0.8841  0.6400  1.0169
   48CHL1  H18B 4687   4.038   5.170   5.505  1.9758  0.8724  1.3124
   48CHL1  H18C 4688   3.963   5.331   5.497  0.5332  0.0418  1.2890
   48CHL1   C12 4689   3.738   5.251   5.671 -0.0277  0.6534 -0.7528
   48CHL1  H12A 4690   3.724   5.355   5.635 -2.6569  0.6494  0.0380
   48CHL1  H12B 4691   3.635   5.210   5.668  0.1085  0.1804  0.4155
   48CHL1   C11 4692   3.795   5.253   5.819 -0.0029 -0.1527  0.2552
   48CHL1  H11A 4693   3.878   5.327   5.821 -0.9535  0.9852  3.3251
   48CHL1  H11B 4694   3.716   5.293   5.885 -0.7542  1.3620 -1.4769
   48CHL1    C9 4695   3.841   5.118   5.877  0.6802 -0.7469  1.0133
   48CHL1    H9 4696   3.750   5.056   5.889 -0.1634  0.3266  0.2471
   48CHL1   C10 4697   3.901   5.140   6.020 -0.5094 -0.1948 -0.1637
   48CHL1   C19 4698   4.009   5.257   6.014  0.1487  0.0008 -0.2179
   48CHL1  H19A 4699   4.065   5.253   5.918  0.1792 -1.5025 -0.1666
   48CHL1  H19B 4700   3.949   5.350   6.023 -2.4045 -1.5618 -0.0944
   48CHL1  H19C 4701   4.075   5.249   6.104  0.7631  0.7574 -0.5866
   48CHL1    C1 4702   3.793   5.177   6.117  0.2718 -0.3080 -0.6817
   48CHL1   H1A 4703   3.747   5.277   6.108 -0.5061 -0.5132  0.6927
   48CHL1   H1B 4704   3.708   5.107   6.104 -0.4144  0.3314  0.2186
   48CHL1    C2 4705   3.836   5.170   6.267  0.1979  0.4464 -0.4762
   48CHL1   H2A 4706   3.746   5.173   6.332  0.1401  0.6278 -0.5664
   48CHL1   H2B 4707   3.898   5.254   6.304 -0.9010  0.6956  0.8933
   48CHL1   C20 4708   3.785   5.230   5.322  0.4464  0.6809 -0.8376
   48CHL1   H20 4709   3.892   5.244   5.296  0.4648 -1.5888 -2.2164
   48CHL1   C21 4710   3.727   5.365   5.358 -0.4502  0.2511 -0.4799
   48CHL1  H21A 4711   3.710   5.436   5.275 -0.5612  0.2576 -0.4521
   48CHL1  H21B 4712   3.626   5.361   5.404 -0.3820 -0.3311 -0.3708
   48CHL1  H21C 4713   3.780   5.418   5.441  0.7107 -0.6923 -0.5931
   48CHL1   C22 4714   3.718   5.179   5.197  0.1306  0.2366  0.0840
   48CHL1  H22A 4715   3.760   5.077   5.186 -1.1270 -0.5370  2.1260
   48CHL1  H22B 4716   3.608   5.173   5.206  0.2008 -0.6376  0.3914
   48CHL1   C23 4717   3.768   5.257   5.076  0.7413 -0.7351  0.5915
   48CHL1  H23A 4718   3.741   5.364   5.074  1.0429 -0.6572  0.6233
   48CHL1  H23B 4719   3.878   5.246   5.064  0.9065  1.1052  0.1821
   48CHL1   C24 4720   3.705   5.185   4.955  0.4047 -0.5595  0.3061
   48CHL1  H24A 4721   3.701   5.075   4.968  2.4208 -0.4749  2.2833
   48CHL1  H24B 4722   3.610   5.240   4.938  0.8573  0.1224 -0.0813
   48CHL1   C25 4723   3.794   5.215   4.834 -0.0736  0.5989  0.5436
   48CHL1   H25 4724   3.893   5.179   4.869 -1.0022 -1.6004  1.0553
   48CHL1   C26 4725   3.755   5.122   4.711  0.7414  0.0403 -0.6896
   48CHL1  H26A 4726   3.657   5.152   4.669  0.8397  1.8475  0.2363
   48CHL1  H26B 4727   3.818   5.120   4.620  0.8238 -0.4628 -0.6248
   48CHL1  H26C 4728   3.751   5.020   4.755  1.5351 -0.0037 -0.7000
   48CHL1   C27 4729   3.789   5.359   4.783  0.7417 -0.5395 -0.2222
   48CHL1  H27A 4730   3.843   5.429   4.850  0.2866 -1.2309  0.9140
   48CHL1  H27B 4731   3.831   5.363   4.681 -0.7008 -2.6724 -0.9875
   48CHL1  H27C 4732   3.687   5.403   4.788  1.5350  1.2430  1.3323
   49CHL1    C3 4733   0.557   6.038   6.156  0.2023 -0.6808  0.2178
   49CHL1    H3 4734   0.656   6.081   6.129  0.2650  0.4698  2.0658
   49CHL1    O3 4735   0.522   6.113   6.276  0.6960 -0.0439  0.3382
   49CHL1   H3' 4736   0.519   6.045   6.345  1.8300  1.6276  2.1499
   49CHL1    C4 4737   0.446   6.060   6.056  0.0260  0.6552  0.0203
   49CHL1   H4A 4738   0.346   6.028   6.094  0.6436 -2.4461 -0.7181
   49CHL1   H4B 4739   0.431   6.170   6.056  1.8910  0.9813  1.5462
   49CHL1    C5 4740   0.480   6.000   5.919 -0.7819 -0.1577  0.0011
   49CHL1    C6 4741   0.483   6.081   5.811  0.6099 -0.2913 -0.9031
   49CHL1    H6 4742   0.456   6.187   5.815  0.9498 -0.2396  0.3110
   49CHL1    C7 4743   0.529   6.039   5.675  0.0019 -0.7471 -0.5017
   49CHL1   H7A 4744   0.478   6.098   5.596  1.5736 -0.5067 -1.3716
   49CHL1   H7B 4745   0.631   6.083   5.672 -0.4933  0.5084  0.1693
   49CHL1    C8 4746   0.536   5.887   5.658  0.7205 -0.1395 -0.1210
   49CHL1    H8 4747   0.432   5.859   5.631  0.7436  1.6001 -2.3242
   49CHL1   C14 4748   0.627   5.855   5.543  0.8299 -0.4836 -0.5796
   49CHL1   H14 4749   0.726   5.889   5.581  0.6339 -1.7961  1.2011
   49CHL1   C15 4750   0.619   5.936   5.410  0.3826  0.2132  0.4184
   49CHL1  H15A 4751   0.513   5.943   5.379  0.7750  1.2886 -0.7992
   49CHL1  H15B 4752   0.666   6.036   5.423  0.1688  0.2712  0.7460
   49CHL1   C16 4753   0.689   5.843   5.316  0.7585  0.3349  0.6279
   49CHL1  H16A 4754   0.628   5.819   5.227  1.9564  0.3088 -0.2148
   49CHL1  H16B 4755   0.783   5.890   5.280  0.8172 -0.0799  0.2344
   49CHL1   C17 4756   0.718   5.705   5.388  0.3488 -0.2536  0.1397
   49CHL1   H17 4757   0.821   5.719   5.426  0.7921 -2.7150  0.0016
   49CHL1   C13 4758   0.627   5.704   5.512 -0.1899 -0.1602  0.0827
   49CHL1   C18 4759   0.487   5.652   5.468  0.4253 -0.8069 -0.9533
   49CHL1  H18A 4760   0.449   5.695   5.373 -2.5778 -1.0641  0.0226
   49CHL1  H18B 4761   0.500   5.542   5.459 -0.7396 -1.2048  1.5259
   49CHL1  H18C 4762   0.416   5.671   5.551  1.4504  1.4760 -0.5245
   49CHL1   C12 4763   0.676   5.618   5.627  0.0418  0.6202  0.3739
   49CHL1  H12A 4764   0.669   5.509   5.608  1.4934  0.3185  1.4122
   49CHL1  H12B 4765   0.786   5.630   5.641 -0.0664  1.4533  0.5397
   49CHL1   C11 4766   0.601   5.653   5.760  0.0252 -1.0888 -0.1945
   49CHL1  H11A 4767   0.498   5.610   5.761 -0.4046 -0.0850  0.1569
   49CHL1  H11B 4768   0.662   5.616   5.845  0.5321  1.3456  0.5890
   49CHL1    C9 4769   0.585   5.810   5.781 -0.1058  0.1473 -0.4364
   49CHL1    H9 4770   0.686   5.851   5.800  1.0815 -1.9332 -1.7958
   49CHL1   C10 4771   0.521   5.852   5.920 -0.1279 -0.3308  0.4157
   49CHL1   C19 4772   0.402   5.756   5.950 -0.1167 -0.4742  0.4557
   49CHL1  H19A 4773   0.434   5.650   5.964  2.8248  0.2935  0.2814
   49CHL1  H19B 4774   0.344   5.794   6.036 -0.4807  1.0642 -0.4339
   49CHL1  H19C 4775   0.325   5.761   5.870 -1.1421  0.1732  1.4553
   49CHL1    C1 4776   0.620   5.835   6.032  0.1001  0.6059 -0.1956
   49CHL1   H1A 4777   0.637   5.726   6.048 -1.7475  0.4910  1.2133
   49CHL1   H1B 4778   0.722   5.877   6.016  0.6659 -1.1493 -1.5492
   49CHL1    C2 4779   0.581   5.885   6.170 -0.0880  0.5366 -0.3416
   49CHL1   H2A 4780   0.671   5.889   6.235  0.3697 -0.8057 -0.8471
   49CHL1   H2B 4781   0.495   5.832   6.217  0.1950  0.7215  0.3897
   49CHL1   C20 4782   0.731   5.596   5.293  0.9098  0.3654  0.5811
   49CHL1   H20 4783   0.639   5.593   5.231  0.0239 -0.1767  1.8701
   49CHL1   C21 4784   0.755   5.467   5.362 -0.0675  0.1007 -0.1132
   49CHL1  H21A 4785   0.842   5.473   5.431 -0.4469 -1.9164  0.6247
   49CHL1  H21B 4786   0.782   5.385   5.291 -0.7868 -0.2202 -0.0346
   49CHL1  H21C 4787   0.665   5.424   5.412  2.2285 -0.6553  3.8188
   49CHL1   C22 4788   0.843   5.610   5.191 -0.2819 -0.0772  0.7992
   49CHL1  H22A 4789   0.856   5.711   5.148  4.4601 -1.2315 -1.0725
   49CHL1  H22B 4790   0.942   5.585   5.235 -1.4092 -3.2390  1.8716
   49CHL1   C23 4791   0.840   5.519   5.067  0.0687  0.8129  0.5919
   49CHL1  H23A 4792   0.842   5.414   5.104 -1.1133  0.4069 -0.4047
   49CHL1  H23B 4793   0.752   5.519   5.000 -0.1137  1.1145  0.8300
   49CHL1   C24 4794   0.960   5.541   4.977  0.4715 -0.4342 -0.0544
   49CHL1  H24A 4795   0.984   5.648   4.953  2.9632 -0.5666  1.4438
   49CHL1  H24B 4796   1.048   5.514   5.040  0.7051 -1.6698 -0.8913
   49CHL1   C25 4797   0.944   5.455   4.848 -0.0928 -0.0905  0.1511
   49CHL1   H25 4798   0.857   5.488   4.786 -0.4625 -1.0483  0.1431
   49CHL1   C26 4799   1.067   5.471   4.759  0.0289 -0.1069  0.1413
   49CHL1  H26A 4800   1.065   5.410   4.666  1.9712  3.1173 -2.1927
   49CHL1  H26B 4801   1.078   5.576   4.726  0.7105  1.1821  3.9947
   49CHL1  H26C 4802   1.157   5.456   4.822  0.7013  1.6840 -0.3440
   49CHL1   C27 4803   0.919   5.303   4.871  0.1636 -0.2231  0.2220
   49CHL1  H27A 4804   0.931   5.249   4.775 -0.4493 -0.7486  0.4427
   49CHL1  H27B 4805   0.990   5.261   4.946 -0.9799  1.1130  2.1588
   49CHL1  H27C 4806   0.821   5.284   4.918  1.5555  1.3494  4.2337
   50CHL1    C3 4807   0.694   6.294   3.016  0.0322 -0.5565  0.5822
   50CHL1    H3 4808   0.631   6.386   3.022 -1.5772 -1.6862  1.7307
   50CHL1    O3 4809   0.683   6.243   2.881  0.1812  0.0564  0.0664
   50CHL1   H3' 4810   0.732   6.161   2.887 -0.0185 -0.1028 -0.3999
   50CHL1    C4 4811   0.846   6.301   3.051 -0.0380  0.2603  0.2348
   50CHL1   H4A 4812   0.900   6.209   3.019  0.0729  0.7237 -0.9411
   50CHL1   H4B 4813   0.889   6.384   2.992 -0.3575 -1.1833 -2.1561
   50CHL1    C5 4814   0.878   6.339   3.194  0.0435  0.3421  1.2639
   50CHL1    C6 4815   0.949   6.444   3.226  0.3321 -0.7003 -0.2811
   50CHL1    H6 4816   1.001   6.494   3.143 -3.0388  0.7708 -1.6876
   50CHL1    C7 4817   0.982   6.494   3.364  0.0536 -0.2557 -0.1738
   50CHL1   H7A 4818   1.093   6.502   3.369  0.0361  0.6572 -0.9185
   50CHL1   H7B 4819   0.936   6.593   3.386  0.1123 -0.4649  0.9588
   50CHL1    C8 4820   0.926   6.401   3.475 -0.0024  0.8552 -0.1235
   50CHL1    H8 4821   0.996   6.318   3.499 -1.3848 -0.7159 -1.2384
   50CHL1   C14 4822   0.909   6.483   3.596 -0.2263  0.9308  0.2437
   50CHL1   H14 4823   0.833   6.559   3.568 -0.8802  0.4983  0.8017
   50CHL1   C15 4824   1.035   6.570   3.650  1.0396 -0.1949  0.9693
   50CHL1  H15A 4825   1.138   6.537   3.628  1.4979  1.3793  0.6524
   50CHL1  H15B 4826   1.019   6.670   3.605 -0.6531 -1.4114 -1.3677
   50CHL1   C16 4827   1.003   6.588   3.799 -0.2481 -0.6494  0.2990
   50CHL1  H16A 4828   1.078   6.525   3.851 -0.5838 -1.4990 -0.2194
   50CHL1  H16B 4829   1.017   6.692   3.835  0.3585 -0.0435 -1.5363
   50CHL1   C17 4830   0.853   6.538   3.815 -0.2047  0.0951 -0.2494
   50CHL1   H17 4831   0.783   6.619   3.784 -3.1583 -2.5302 -0.9113
   50CHL1   C13 4832   0.843   6.425   3.716 -0.8466  0.0625  0.3346
   50CHL1   C18 4833   0.925   6.300   3.759  0.0883 -0.0230  0.2146
   50CHL1  H18A 4834   0.942   6.232   3.673  2.4746  0.5948  0.1412
   50CHL1  H18B 4835   1.025   6.328   3.799 -0.1151  2.0753 -0.5915
   50CHL1  H18C 4836   0.877   6.250   3.845 -1.4268  0.3017 -0.3897
   50CHL1   C12 4837   0.704   6.375   3.673 -0.1644  0.0317 -0.5117
   50CHL1  H12A 4838   0.672   6.311   3.758  3.2866 -2.4618 -0.8775
   50CHL1  H12B 4839   0.648   6.470   3.660  1.0350  0.6404 -1.4059
   50CHL1   C11 4840   0.712   6.282   3.550  0.2103  0.7105  1.0723
   50CHL1  H11A 4841   0.751   6.183   3.581  0.2253  0.0358 -0.9152
   50CHL1  H11B 4842   0.605   6.262   3.529 -0.0791  0.9564  2.2430
   50CHL1    C9 4843   0.793   6.342   3.428  0.2111 -0.1516 -0.5211
   50CHL1    H9 4844   0.734   6.430   3.394  2.0635  2.0196  1.5620
   50CHL1   C10 4845   0.796   6.254   3.302  0.1961 -0.1132  0.3728
   50CHL1   C19 4846   0.869   6.122   3.329 -0.7486 -0.0801 -0.1810
   50CHL1  H19A 4847   0.971   6.152   3.361 -0.5965 -0.1872 -0.5608
   50CHL1  H19B 4848   0.830   6.070   3.419  0.3291  2.5142  1.9284
   50CHL1  H19C 4849   0.876   6.058   3.239 -1.3918  0.4478 -0.6208
   50CHL1    C1 4850   0.650   6.226   3.257 -0.1038 -0.5398 -0.0473
   50CHL1   H1A 4851   0.603   6.153   3.327 -2.5806  1.2755  0.2985
   50CHL1   H1B 4852   0.584   6.310   3.287 -1.8004 -1.6319 -0.6292
   50CHL1    C2 4853   0.622   6.192   3.109  0.6345 -0.8895 -0.5132
   50CHL1   H2A 4854   0.512   6.198   3.095  0.4679 -1.1978  0.6026
   50CHL1   H2B 4855   0.660   6.089   3.092 -0.1970 -1.4160  0.6945
   50CHL1   C20 4856   0.820   6.503   3.965 -0.1921  0.5303  0.2826
   50CHL1   H20 4857   0.844   6.395   3.981 -1.7847  0.1253  0.0952
   50CHL1   C21 4858   0.663   6.507   3.986  0.1475 -0.0348 -0.3398
   50CHL1  H21A 4859   0.637   6.452   4.078 -1.5174  1.8704  0.4171
   50CHL1  H21B 4860   0.605   6.460   3.904 -2.0846  0.7651  0.7105
   50CHL1  H21C 4861   0.626   6.612   3.995  0.6266  0.3105 -1.9279
   50CHL1   C22 4862   0.901   6.581   4.066  0.0467  0.4136 -1.0047
   50CHL1  H22A 4863   1.010   6.558   4.058  0.2394  0.2182  1.3280
   50CHL1  H22B 4864   0.898   6.691   4.047  2.1032  0.6333 -0.3366
   50CHL1   C23 4865   0.855   6.558   4.212  0.6035  0.3226 -0.4404
   50CHL1  H23A 4866   0.751   6.595   4.219  0.8456  1.0867 -0.8136
   50CHL1  H23B 4867   0.851   6.450   4.237 -0.7545 -0.0165 -1.9890
   50CHL1   C24 4868   0.955   6.628   4.299 -0.2088 -0.2803  0.2926
   50CHL1  H24A 4869   1.056   6.589   4.276 -0.3682 -0.7939  0.4590
   50CHL1  H24B 4870   0.945   6.735   4.271  0.2218 -0.5805 -1.0757
   50CHL1   C25 4871   0.931   6.617   4.444  0.2773 -0.1658 -0.7629
   50CHL1   H25 4872   0.965   6.516   4.473  0.8270  0.3111  0.3124
   50CHL1   C26 4873   1.031   6.710   4.520 -0.7814 -0.0253  0.8271
   50CHL1  H26A 4874   1.022   6.818   4.494  3.2679  0.4509  0.7100
   50CHL1  H26B 4875   1.012   6.705   4.630 -1.6739 -1.9163  0.6211
   50CHL1  H26C 4876   1.132   6.674   4.492  0.2857  1.8066  2.0927
   50CHL1   C27 4877   0.784   6.636   4.492  0.2136  0.5362  0.3237
   50CHL1  H27A 4878   0.742   6.736   4.468  0.4059  0.2860 -1.1745
   50CHL1  H27B 4879   0.716   6.559   4.449  2.7093 -1.2267 -0.7682
   50CHL1  H27C 4880   0.780   6.623   4.602 -1.5233 -0.7817  0.1424
   51CHL1    C3 4881   1.133   3.881   3.107 -0.4533 -0.6341 -0.4193
   51CHL1    H3 4882   1.230   3.826   3.099  0.4956  0.8817  0.2088
   51CHL1    O3 4883   1.127   3.982   3.008 -0.4570 -0.1261 -0.0142
   51CHL1   H3' 4884   1.054   4.041   3.028  2.0836  3.0373  0.7437
   51CHL1    C4 4885   1.014   3.782   3.092 -0.0982 -0.0304  0.3463
   51CHL1   H4A 4886   0.916   3.833   3.102 -1.0747 -1.8102  0.4308
   51CHL1   H4B 4887   1.017   3.744   2.988 -2.8014  1.4472 -0.3680
   51CHL1    C5 4888   1.040   3.674   3.196  1.0958 -0.0312  0.0373
   51CHL1    C6 4889   1.049   3.545   3.155 -0.6082 -0.3132 -0.0570
   51CHL1    H6 4890   1.041   3.520   3.048 -2.2977  1.7926 -0.4879
   51CHL1    C7 4891   1.064   3.437   3.256 -0.1770  0.0770 -0.2305
   51CHL1   H7A 4892   1.000   3.355   3.218 -0.1696 -0.5344  1.0053
   51CHL1   H7B 4893   1.172   3.409   3.257 -0.1556  0.0579 -1.3983
   51CHL1    C8 4894   1.018   3.474   3.400 -0.7785  0.0777  0.5656
   51CHL1    H8 4895   0.908   3.489   3.393 -0.7009  0.8858  0.9361
   51CHL1   C14 4896   1.061   3.363   3.500 -0.3511  0.1709 -0.4713
   51CHL1   H14 4897   1.171   3.358   3.488 -0.4190 -2.0629 -0.4548
   51CHL1   C15 4898   1.019   3.220   3.460 -0.4214 -0.0200 -0.2177
   51CHL1  H15A 4899   0.922   3.214   3.406 -1.1919 -0.9965  1.2314
   51CHL1  H15B 4900   1.092   3.173   3.389 -1.6330 -0.7587 -1.0178
   51CHL1   C16 4901   1.013   3.149   3.600 -0.0128  0.0317  0.3340
   51CHL1  H16A 4902   0.914   3.105   3.624  1.0711 -2.2299  0.9038
   51CHL1  H16B 4903   1.085   3.065   3.593 -0.5329 -0.3875  0.0148
   51CHL1   C17 4904   1.064   3.248   3.701 -0.5048  0.6567 -0.5885
   51CHL1   H17 4905   1.175   3.246   3.693 -0.2176  1.8682  1.9825
   51CHL1   C13 4906   1.028   3.385   3.643  0.0402 -0.1385 -0.0709
   51CHL1   C18 4907   0.875   3.406   3.662  0.6296 -0.3109 -0.0360
   51CHL1  H18A 4908   0.850   3.509   3.629  2.6011 -0.1176 -1.0409
   51CHL1  H18B 4909   0.809   3.340   3.601  1.0164 -2.3283  1.6037
   51CHL1  H18C 4910   0.839   3.390   3.766 -0.3474 -1.9529 -0.5846
   51CHL1   C12 4911   1.114   3.510   3.684  0.5819  0.7205 -0.8116
   51CHL1  H12A 4912   1.086   3.532   3.789 -1.0742 -0.1858 -1.0260
   51CHL1  H12B 4913   1.222   3.483   3.679  0.7551  1.3579 -0.5467
   51CHL1   C11 4914   1.085   3.638   3.596 -0.0186  0.1841 -0.6679
   51CHL1  H11A 4915   0.982   3.674   3.617  0.1464  0.7066 -0.7536
   51CHL1  H11B 4916   1.158   3.715   3.627 -1.5604  2.1202 -1.5954
   51CHL1    C9 4917   1.088   3.608   3.445 -0.7227  0.0079  0.2426
   51CHL1    H9 4918   1.197   3.593   3.434 -0.6797 -0.2083  0.9404
   51CHL1   C10 4919   1.046   3.720   3.345  0.6864 -0.1453  0.3239
   51CHL1   C19 4920   0.903   3.770   3.379  0.1071  0.3024 -0.9094
   51CHL1  H19A 4921   0.838   3.680   3.388  1.3594 -0.5727 -0.4027
   51CHL1  H19B 4922   0.912   3.814   3.481  1.0193 -2.3475  0.2327
   51CHL1  H19C 4923   0.873   3.852   3.310 -1.2126 -0.4449 -1.2568
   51CHL1    C1 4924   1.152   3.831   3.354  0.4603 -0.2921 -0.3912
   51CHL1   H1A 4925   1.144   3.889   3.449 -0.1505 -2.2378  0.8035
   51CHL1   H1B 4926   1.256   3.793   3.355  1.1663  1.5168 -0.9287
   51CHL1    C2 4927   1.136   3.941   3.245 -0.9580 -0.6931 -0.8536
   51CHL1   H2A 4928   1.220   4.014   3.241 -1.5858 -0.0027 -1.6604
   51CHL1   H2B 4929   1.041   3.991   3.271 -0.7330  0.2585 -1.7980
   51CHL1   C20 4930   1.030   3.205   3.847 -0.3787 -0.5674 -0.5710
   51CHL1   H20 4931   0.919   3.202   3.852 -0.5258  1.9739 -1.0204
   51CHL1   C21 4932   1.076   3.316   3.939  0.4625  0.0958 -0.4373
   51CHL1  H21A 4933   1.088   3.280   4.044 -0.6835 -1.7537 -0.8899
   51CHL1  H21B 4934   0.994   3.390   3.938  2.3473  2.2793 -1.1148
   51CHL1  H21C 4935   1.166   3.360   3.891 -1.0190  3.0896 -0.6586
   51CHL1   C22 4936   1.094   3.076   3.897 -0.6024  0.1108 -0.1033
   51CHL1  H22A 4937   1.080   3.062   4.007  0.1409  1.1531  0.1372
   51CHL1  H22B 4938   1.039   2.996   3.843  0.1113 -0.1498 -0.4624
   51CHL1   C23 4939   1.242   3.058   3.863 -0.6030  0.1384  0.0629
   51CHL1  H23A 4940   1.257   3.055   3.753 -0.1604  0.5860  0.1066
   51CHL1  H23B 4941   1.297   3.147   3.900  0.9021 -1.2203  1.1829
   51CHL1   C24 4942   1.301   2.937   3.934 -0.0381  0.0064 -0.0426
   51CHL1  H24A 4943   1.246   2.843   3.912  0.6675 -0.5466  0.5421
   51CHL1  H24B 4944   1.407   2.922   3.904  0.4346  0.6095  1.2493
   51CHL1   C25 4945   1.309   2.940   4.087  0.0445  0.0485  1.0039
   51CHL1   H25 4946   1.214   2.984   4.125 -0.6303  0.7833 -1.3552
   51CHL1   C26 4947   1.339   2.803   4.143  1.1022 -0.4192  0.0265
   51CHL1  H26A 4948   1.327   2.814   4.253  0.5151 -1.3005  0.0659
   51CHL1  H26B 4949   1.261   2.728   4.115  2.6902 -2.9307  1.8844
   51CHL1  H26C 4950   1.434   2.753   4.113  0.4918 -1.0119 -0.9802
   51CHL1   C27 4951   1.412   3.041   4.129  0.5446 -0.1614  0.8354
   51CHL1  H27A 4952   1.511   3.032   4.079  0.3815 -0.5572  0.5834
   51CHL1  H27B 4953   1.378   3.145   4.109  1.3969 -0.2517 -1.3386
   51CHL1  H27C 4954   1.421   3.032   4.239  0.9763 -4.1150  0.6021
   52CHL1    C3 4955   6.550   2.519   3.352  0.4296 -0.2211  0.1674
   52CHL1    H3 4956   6.591   2.417   3.337  1.9959  0.5854 -1.5126
   52CHL1    O3 4957   6.501   2.576   3.228  0.1715 -0.1772 -0.3660
   52CHL1   H3' 4958   6.412   2.610   3.243 -0.3601 -0.7781 -1.9403
   52CHL1    C4 4959   6.435   2.507   3.445 -0.6263  0.4870  0.2683
   52CHL1   H4A 4960   6.406   2.613   3.457  1.4152  1.5311 -2.7452
   52CHL1   H4B 4961   6.341   2.462   3.408 -0.1465  1.3180 -2.1347
   52CHL1    C5 4962   6.481   2.442   3.572 -0.1507  0.0690 -0.8311
   52CHL1    C6 4963   6.419   2.330   3.615 -0.1855  0.1686  0.5750
   52CHL1    H6 4964   6.334   2.284   3.564  0.0552 -2.2157  2.1521
   52CHL1    C7 4965   6.464   2.262   3.741  0.8730  0.6544  0.0927
   52CHL1   H7A 4966   6.376   2.216   3.791  1.7129 -0.0661  0.9660
   52CHL1   H7B 4967   6.530   2.178   3.711 -0.1735  0.3222 -1.3732
   52CHL1    C8 4968   6.541   2.353   3.832  0.1254  0.0685 -0.4796
   52CHL1    H8 4969   6.471   2.425   3.879 -1.1857 -0.9631 -0.8128
   52CHL1   C14 4970   6.600   2.270   3.949  0.0123 -0.6519 -0.4067
   52CHL1   H14 4971   6.653   2.186   3.898  0.6303 -0.1962 -0.5261
   52CHL1   C15 4972   6.500   2.197   4.041 -0.3272 -0.0549  0.2732
   52CHL1  H15A 4973   6.411   2.261   4.060 -2.0132 -2.2670  0.2736
   52CHL1  H15B 4974   6.468   2.102   3.993  2.5780 -1.3212  0.6320
   52CHL1   C16 4975   6.586   2.159   4.170  0.4081 -0.2474  0.1706
   52CHL1  H16A 4976   6.531   2.188   4.262 -0.4623 -2.8359  0.5365
   52CHL1  H16B 4977   6.608   2.051   4.177  0.1737 -0.4117 -1.2291
   52CHL1   C17 4978   6.715   2.245   4.148  0.4317  0.6757 -0.0397
   52CHL1   H17 4979   6.790   2.181   4.095  0.7962  1.3713 -0.3827
   52CHL1   C13 4980   6.688   2.353   4.044 -0.3224  0.7350  0.9533
   52CHL1   C18 4981   6.617   2.470   4.104  0.0167 -0.4476  0.0270
   52CHL1  H18A 4982   6.533   2.443   4.171  1.3234 -0.3299  1.7699
   52CHL1  H18B 4983   6.693   2.539   4.146  0.9581 -0.2507 -1.8869
   52CHL1  H18C 4984   6.569   2.532   4.025 -0.4378 -1.2349 -0.3308
   52CHL1   C12 4985   6.808   2.405   3.955 -0.0944 -0.9461  0.0548
   52CHL1  H12A 4986   6.873   2.466   4.021 -0.1780 -1.2427  0.4124
   52CHL1  H12B 4987   6.850   2.305   3.933  0.2509 -1.0539  1.1720
   52CHL1   C11 4988   6.756   2.489   3.838  0.2826  0.3056  0.4067
   52CHL1  H11A 4989   6.727   2.580   3.895  0.1427 -0.1757  1.1195
   52CHL1  H11B 4990   6.845   2.515   3.777 -0.8092  1.7718 -0.6259
   52CHL1    C9 4991   6.655   2.418   3.751  0.6266  0.9709 -0.3232
   52CHL1    H9 4992   6.709   2.335   3.702  1.8441  1.4555  0.1556
   52CHL1   C10 4993   6.602   2.504   3.645 -0.4937  0.3143  0.2594
   52CHL1   C19 4994   6.560   2.641   3.705 -0.0442  0.1138 -0.4003
   52CHL1  H19A 4995   6.499   2.697   3.629  2.3614 -0.4377 -2.9000
   52CHL1  H19B 4996   6.499   2.618   3.795  0.4849 -1.8763 -0.5029
   52CHL1  H19C 4997   6.651   2.698   3.731 -0.3818  0.1917  0.6602
   52CHL1    C1 4998   6.712   2.530   3.532  0.2494  0.1996 -0.8981
   52CHL1   H1A 4999   6.790   2.597   3.574  1.0101 -0.7960 -0.7084
   52CHL1   H1B 5000   6.753   2.431   3.504  0.1260 -0.8056  2.0763
   52CHL1    C2 5001   6.662   2.604   3.410  0.5970 -0.1982  0.2757
   52CHL1   H2A 5002   6.734   2.625   3.328 -0.3108 -1.2747 -0.8378
   52CHL1   H2B 5003   6.627   2.705   3.441  0.9768  0.2846 -0.8205
   52CHL1   C20 5004   6.780   2.274   4.284  0.4894 -0.5245 -0.1648
   52CHL1   H20 5005   6.720   2.343   4.347 -0.1022 -1.6795  0.5897
   52CHL1   C21 5006   6.900   2.356   4.259 -0.4535 -0.1469 -0.0909
   52CHL1  H21A 5007   6.970   2.305   4.189  0.7447  1.9431 -0.5223
   52CHL1  H21B 5008   6.962   2.393   4.343  0.8577  0.2451 -1.1918
   52CHL1  H21C 5009   6.875   2.454   4.213  1.8486  0.7236  0.3521
   52CHL1   C22 5010   6.806   2.154   4.376 -0.4961  0.5006  0.0015
   52CHL1  H22A 5011   6.711   2.112   4.416 -0.7391  2.0039  1.1023
   52CHL1  H22B 5012   6.868   2.077   4.327  0.5694  1.6369 -0.5055
   52CHL1   C23 5013   6.873   2.205   4.508 -0.0354  0.5601 -0.0678
   52CHL1  H23A 5014   6.969   2.257   4.486 -0.6004  1.4051 -0.5833
   52CHL1  H23B 5015   6.808   2.283   4.553 -0.7982  0.5528 -1.1074
   52CHL1   C24 5016   6.890   2.089   4.607 -0.1091 -0.1999 -0.2886
   52CHL1  H24A 5017   6.792   2.037   4.608 -0.1958 -0.0432  0.5409
   52CHL1  H24B 5018   6.965   2.020   4.564 -1.1785 -0.9564 -0.9925
   52CHL1   C25 5019   6.929   2.128   4.752  0.4254  0.1318 -0.0542
   52CHL1   H25 5020   6.839   2.175   4.797 -0.1295 -0.8671 -0.0997
   52CHL1   C26 5021   6.977   2.009   4.838 -0.5075  0.0624  0.7137
   52CHL1  H26A 5022   6.888   1.946   4.860 -0.8431  0.6339  1.0101
   52CHL1  H26B 5023   7.061   1.950   4.795 -1.1777 -1.0881  0.9354
   52CHL1  H26C 5024   7.013   2.054   4.933  1.1449  1.4083 -0.4760
   52CHL1   C27 5025   7.031   2.248   4.758  0.7912 -0.7506  0.8448
   52CHL1  H27A 5026   7.104   2.234   4.675 -1.0169  0.8776 -1.1399
   52CHL1  H27B 5027   6.995   2.352   4.740  2.3312 -0.4484 -0.7936
   52CHL1  H27C 5028   7.083   2.254   4.856  1.1054 -0.1732  0.6469
   53CHL1    C3 5029   5.527   2.605   3.030 -0.3330  0.2813  0.2464
   53CHL1    H3 5030   5.575   2.506   3.050  3.0515  1.4286 -1.4719
   53CHL1    O3 5031   5.527   2.637   2.891  0.1277 -0.2442  0.0729
   53CHL1   H3' 5032   5.465   2.571   2.856  1.3870 -1.5630  0.2308
   53CHL1    C4 5033   5.383   2.583   3.075 -0.0921  0.1920 -1.0965
   53CHL1   H4A 5034   5.337   2.683   3.062  0.3447  0.5241 -0.2475
   53CHL1   H4B 5035   5.346   2.509   3.002 -1.8099 -0.2717  0.1797
   53CHL1    C5 5036   5.374   2.543   3.224  0.6523 -0.6829 -0.2487
   53CHL1    C6 5037   5.312   2.432   3.271 -0.2999 -0.4476  0.4546
   53CHL1    H6 5038   5.267   2.366   3.195  1.9606  1.6391 -2.9731
   53CHL1    C7 5039   5.302   2.396   3.415 -0.3705 -0.3545 -0.3834
   53CHL1   H7A 5040   5.197   2.367   3.436 -0.7276  1.8301  1.2353
   53CHL1   H7B 5041   5.371   2.309   3.428 -2.1205 -1.6128  0.9673
   53CHL1    C8 5042   5.326   2.513   3.512  0.4182 -1.0157  0.2308
   53CHL1    H8 5043   5.232   2.573   3.504  0.2633 -1.2025  0.6075
   53CHL1   C14 5044   5.339   2.457   3.652 -0.0742  0.1102 -0.3248
   53CHL1   H14 5045   5.425   2.388   3.644 -0.2743 -0.1651 -0.1333
   53CHL1   C15 5046   5.222   2.388   3.718  0.5648 -0.7786 -0.0044
   53CHL1  H15A 5047   5.131   2.447   3.696  0.4755 -0.9979 -0.2299
   53CHL1  H15B 5048   5.197   2.288   3.675 -0.8022  0.0491 -1.2229
   53CHL1   C16 5049   5.244   2.390   3.868 -0.2499  0.1114  0.3042
   53CHL1  H16A 5050   5.161   2.433   3.929 -2.4184 -1.3899 -1.4055
   53CHL1  H16B 5051   5.257   2.285   3.901 -0.5761  0.6945  2.3806
   53CHL1   C17 5052   5.372   2.482   3.884  0.2234 -0.0629  0.7262
   53CHL1   H17 5053   5.460   2.417   3.869  0.0036 -0.5761  1.5911
   53CHL1   C13 5054   5.375   2.566   3.753 -0.0617 -1.0311 -0.3009
   53CHL1   C18 5055   5.258   2.671   3.767 -0.1194  0.0177  0.1419
   53CHL1  H18A 5056   5.298   2.755   3.827  0.5015 -2.8362  4.1669
   53CHL1  H18B 5057   5.214   2.699   3.669  1.5187  0.7332 -0.4245
   53CHL1  H18C 5058   5.174   2.634   3.830 -0.3388  3.8877  2.4710
   53CHL1   C12 5059   5.506   2.640   3.718  0.0233  0.0849 -0.2909
   53CHL1  H12A 5060   5.532   2.724   3.786  0.3879  0.4144 -0.8256
   53CHL1  H12B 5061   5.581   2.557   3.723 -1.3878 -1.2070  0.1736
   53CHL1   C11 5062   5.501   2.693   3.575 -0.8532 -0.0642 -0.7399
   53CHL1  H11A 5063   5.420   2.769   3.582 -1.1398 -0.4652  0.5087
   53CHL1  H11B 5064   5.600   2.736   3.550 -0.2978 -1.9080 -1.9598
   53CHL1    C9 5065   5.456   2.593   3.466  0.7273 -0.2298 -0.2501
   53CHL1    H9 5066   5.530   2.510   3.466  0.1071 -0.8212 -1.5525
   53CHL1   C10 5067   5.450   2.642   3.319  0.9480  0.9858  0.7289
   53CHL1   C19 5068   5.374   2.776   3.323  0.2655  0.3003 -0.7460
   53CHL1  H19A 5069   5.270   2.748   3.350  0.2270  1.2706  0.1560
   53CHL1  H19B 5070   5.417   2.848   3.397 -0.6176 -0.3011  0.3875
   53CHL1  H19C 5071   5.375   2.833   3.228  2.4374 -0.7047 -1.3983
   53CHL1    C1 5072   5.591   2.671   3.262 -0.6350  0.3532  0.1009
   53CHL1   H1A 5073   5.639   2.741   3.334  0.1727 -0.8686  0.8002
   53CHL1   H1B 5074   5.659   2.583   3.272 -0.9155  0.2342  0.9620
   53CHL1    C2 5075   5.601   2.704   3.117  0.5790  0.0973  1.0122
   53CHL1   H2A 5076   5.708   2.715   3.089  0.5809 -2.1873 -0.0125
   53CHL1   H2B 5077   5.558   2.803   3.089  0.8794 -0.1392 -0.3008
   53CHL1   C20 5078   5.388   2.539   4.024 -0.1747 -0.1079  0.0433
   53CHL1   H20 5079   5.297   2.598   4.047  1.3522  1.7485  1.6599
   53CHL1   C21 5080   5.516   2.625   4.021 -0.2563 -0.4517  0.3919
   53CHL1  H21A 5081   5.500   2.730   3.985  2.3975 -0.1132  0.0074
   53CHL1  H21B 5082   5.599   2.575   3.967 -1.3939 -0.9706 -0.9339
   53CHL1  H21C 5083   5.560   2.644   4.121  1.5700 -2.1969 -0.0360
   53CHL1   C22 5084   5.403   2.424   4.126  0.1777 -0.4362 -0.7118
   53CHL1  H22A 5085   5.318   2.354   4.112 -0.0600 -0.2067 -0.4203
   53CHL1  H22B 5086   5.499   2.369   4.122 -0.5301 -1.6481 -2.1984
   53CHL1   C23 5087   5.388   2.479   4.268 -0.0539 -0.6875 -0.7306
   53CHL1  H23A 5088   5.418   2.395   4.334  1.5482  1.2434  1.1570
   53CHL1  H23B 5089   5.465   2.558   4.286  0.8606 -1.4093 -1.3979
   53CHL1   C24 5090   5.248   2.530   4.306 -0.8381 -0.0651 -0.3595
   53CHL1  H24A 5091   5.224   2.630   4.264 -0.1027  1.2163  2.0877
   53CHL1  H24B 5092   5.177   2.452   4.272 -1.0366  0.5707 -1.4589
   53CHL1   C25 5093   5.226   2.545   4.459 -0.6374 -1.0722 -0.1657
   53CHL1   H25 5094   5.287   2.630   4.496 -0.3286 -1.3966  0.0804
   53CHL1   C26 5095   5.079   2.593   4.484  0.4250 -0.7265 -0.1638
   53CHL1  H26A 5096   5.064   2.686   4.425 -3.3025 -1.0484  0.0736
   53CHL1  H26B 5097   5.016   2.507   4.454 -1.9328  0.8286  0.1186
   53CHL1  H26C 5098   5.055   2.612   4.591 -0.8687 -0.2595 -0.5280
   53CHL1   C27 5099   5.254   2.416   4.533 -0.1136 -0.0129 -0.1286
   53CHL1  H27A 5100   5.206   2.416   4.633  2.0791  1.3412  1.0299
   53CHL1  H27B 5101   5.202   2.339   4.473  0.6741 -0.5421 -0.1497
   53CHL1  H27C 5102   5.363   2.399   4.546  0.2675  0.5927 -2.1771
   54CHL1    C3 5103   6.801   3.553   3.243 -0.1578 -0.5674  0.1847
   54CHL1    H3 5104   6.860   3.646   3.257 -1.6477  0.3221  0.7290
   54CHL1    O3 5105   6.779   3.541   3.109  0.0302 -0.1709 -0.7465
   54CHL1   H3' 5106   6.708   3.477   3.100 -0.1984 -0.5352  2.4182
   54CHL1    C4 5107   6.885   3.439   3.304  0.1121 -0.5061 -0.3955
   54CHL1   H4A 5108   6.816   3.353   3.289  1.9380 -1.8443 -1.4258
   54CHL1   H4B 5109   6.974   3.414   3.242  0.2365  1.6850 -1.1990
   54CHL1    C5 5110   6.899   3.445   3.455 -0.0008  0.2694 -0.6389
   54CHL1    C6 5111   7.023   3.442   3.511 -0.0278 -0.1638 -0.2317
   54CHL1    H6 5112   7.111   3.441   3.446  0.3239  0.6125  0.2278
   54CHL1    C7 5113   7.047   3.449   3.663  0.4505 -0.0570  0.5277
   54CHL1   H7A 5114   7.130   3.378   3.683 -1.0592 -1.7786  0.9896
   54CHL1   H7B 5115   7.087   3.549   3.690  0.7942  0.4682 -1.7535
   54CHL1    C8 5116   6.927   3.421   3.745 -0.3491  0.2722 -0.0797
   54CHL1    H8 5117   6.900   3.314   3.733  1.4073 -0.0916 -1.0782
   54CHL1   C14 5118   6.949   3.473   3.895  0.3746 -0.3593  0.1793
   54CHL1   H14 5119   6.977   3.580   3.889 -3.3093  0.6377 -1.9870
   54CHL1   C15 5120   7.067   3.393   3.965  0.0522  0.1184  0.1495
   54CHL1  H15A 5121   7.046   3.285   3.950  1.4616 -0.2525  0.6669
   54CHL1  H15B 5122   7.162   3.414   3.913 -0.8181  0.3545 -1.4112
   54CHL1   C16 5123   7.052   3.435   4.115 -0.6158 -0.0235  0.9901
   54CHL1  H16A 5124   7.065   3.346   4.180 -0.5999 -1.7771 -1.2807
   54CHL1  H16B 5125   7.130   3.513   4.128 -0.6884  0.7002 -2.1244
   54CHL1   C17 5126   6.913   3.502   4.129 -0.3407  0.0439  0.3879
   54CHL1   H17 5127   6.924   3.613   4.125  0.4541  0.1230  3.1635
   54CHL1   C13 5128   6.838   3.472   3.998 -0.0956  0.3300  0.3554
   54CHL1   C18 5129   6.775   3.330   4.012 -0.0981 -0.2544 -0.4504
   54CHL1  H18A 5130   6.685   3.348   4.075  1.1144 -1.9524  1.9096
   54CHL1  H18B 5131   6.740   3.305   3.909 -0.8351  1.2738 -0.6068
   54CHL1  H18C 5132   6.845   3.257   4.057 -0.1859  0.9697  1.7814
   54CHL1   C12 5133   6.729   3.567   3.935 -0.1169  0.5184 -0.3082
   54CHL1  H12A 5134   6.639   3.573   3.999 -0.1241  1.4694 -0.3923
   54CHL1  H12B 5135   6.761   3.673   3.927 -1.8336  1.0189 -1.0724
   54CHL1   C11 5136   6.686   3.529   3.790 -0.9688 -0.6440  0.4935
   54CHL1  H11A 5137   6.627   3.435   3.795  1.1800 -2.2737 -2.0376
   54CHL1  H11B 5138   6.621   3.613   3.756 -1.0695  0.7405  3.7275
   54CHL1    C9 5139   6.812   3.506   3.689 -0.1155  0.1422  0.5883
   54CHL1    H9 5140   6.853   3.608   3.672  0.4324 -0.0245  0.8699
   54CHL1   C10 5141   6.770   3.468   3.544 -0.1254 -0.3434 -0.3876
   54CHL1   C19 5142   6.664   3.352   3.534 -0.2941 -0.2576 -0.1183
   54CHL1  H19A 5143   6.568   3.394   3.570  0.0145 -0.7941  1.4096
   54CHL1  H19B 5144   6.653   3.321   3.428  1.8014 -1.1775 -0.1137
   54CHL1  H19C 5145   6.693   3.269   3.602  0.1141  1.5986  2.0966
   54CHL1    C1 5146   6.713   3.592   3.475  0.4580  0.3410 -0.7938
   54CHL1   H1A 5147   6.624   3.615   3.537 -0.4210  2.0584 -2.5618
   54CHL1   H1B 5148   6.769   3.687   3.490 -0.6470  0.8048  0.6250
   54CHL1    C2 5149   6.673   3.571   3.323 -0.3068 -0.4215  0.1880
   54CHL1   H2A 5150   6.619   3.661   3.288 -2.9117 -2.2039 -0.6852
   54CHL1   H2B 5151   6.596   3.491   3.317 -0.6383 -0.0103 -1.1329
   54CHL1   C20 5152   6.842   3.475   4.264  0.9213  0.9403  0.5560
   54CHL1   H20 5153   6.824   3.367   4.247 -1.0454  1.1168  1.2645
   54CHL1   C21 5154   6.697   3.541   4.281 -0.3165  0.5046  0.3179
   54CHL1  H21A 5155   6.629   3.488   4.211  0.6668 -0.4978  0.0908
   54CHL1  H21B 5156   6.691   3.649   4.257  0.8589 -0.0104 -2.6832
   54CHL1  H21C 5157   6.664   3.525   4.386 -0.2318  0.8617  0.4016
   54CHL1   C22 5158   6.925   3.496   4.386  0.0715  0.1548 -0.4998
   54CHL1  H22A 5159   6.871   3.470   4.480 -0.7259 -1.5335 -1.3977
   54CHL1  H22B 5160   7.001   3.417   4.397  0.4556  0.6350  0.4703
   54CHL1   C23 5161   6.970   3.642   4.395 -0.6910 -0.1750 -0.0761
   54CHL1  H23A 5162   7.065   3.663   4.341 -0.8183 -0.6535 -0.4990
   54CHL1  H23B 5163   6.902   3.713   4.342  0.7741  0.5485 -1.0608
   54CHL1   C24 5164   6.998   3.696   4.534 -0.5277  0.2536 -0.5598
   54CHL1  H24A 5165   7.019   3.805   4.534  1.2122 -0.0049  1.2975
   54CHL1  H24B 5166   6.903   3.677   4.588  0.0203 -2.1225 -0.2904
   54CHL1   C25 5167   7.111   3.627   4.602 -0.4062 -0.2071 -0.0763
   54CHL1   H25 5168   7.100   3.517   4.597  2.3197 -0.5572 -0.2257
   54CHL1   C26 5169   7.239   3.672   4.524 -0.2687 -0.0416 -0.1568
   54CHL1  H26A 5170   7.326   3.620   4.569  1.2275  0.0164 -2.7818
   54CHL1  H26B 5171   7.254   3.640   4.419 -1.5168 -3.9465  0.7234
   54CHL1  H26C 5172   7.254   3.782   4.539 -2.4143  0.2089  0.5071
   54CHL1   C27 5173   7.132   3.682   4.743 -0.2455  0.0764 -0.4813
   54CHL1  H27A 5174   7.227   3.644   4.787 -0.7892  0.3227  0.9654
   54CHL1  H27B 5175   7.147   3.792   4.737  1.9899 -0.2519 -2.8721
   54CHL1  H27C 5176   7.060   3.654   4.822  3.1048 -1.3469  2.3191
   55CHL1    C3 5177   2.706   0.750   2.765 -0.0180  0.5177 -0.7850
   55CHL1    H3 5178   2.628   0.672   2.774  0.5325  0.0564  0.1319
   55CHL1    O3 5179   2.717   0.769   2.630  0.1536  0.9081  0.3616
   55CHL1   H3' 5180   2.778   0.842   2.617 -1.2334  1.8331 -1.3898
   55CHL1    C4 5181   2.675   0.876   2.843 -0.8472  0.3016 -0.2586
   55CHL1   H4A 5182   2.747   0.954   2.812 -0.9380  0.7145  0.5497
   55CHL1   H4B 5183   2.576   0.906   2.802 -0.2578  0.0687 -1.9604
   55CHL1    C5 5184   2.678   0.855   2.992  0.5244  0.2513  0.3818
   55CHL1    C6 5185   2.573   0.879   3.070 -1.6654  0.2916  1.1468
   55CHL1    H6 5186   2.486   0.928   3.026 -0.3345  1.9911  0.2817
   55CHL1    C7 5187   2.562   0.866   3.213 -0.0232  0.1262  0.2902
   55CHL1   H7A 5188   2.514   0.959   3.251 -4.5538 -0.8546 -2.2181
   55CHL1   H7B 5189   2.501   0.776   3.236 -1.2095  0.2166 -2.1109
   55CHL1    C8 5190   2.698   0.856   3.275  0.3453  0.2350 -0.2992
   55CHL1    H8 5191   2.750   0.954   3.265 -1.1548  1.0520 -0.3433
   55CHL1   C14 5192   2.675   0.816   3.422 -0.3057  0.4068 -0.4343
   55CHL1   H14 5193   2.618   0.721   3.413  2.1130 -1.0621 -1.1028
   55CHL1   C15 5194   2.590   0.903   3.513  0.4583  0.6041  0.1889
   55CHL1  H15A 5195   2.616   1.008   3.487  1.6870 -0.0496 -1.3715
   55CHL1  H15B 5196   2.484   0.884   3.483  0.9066  0.5048 -1.4549
   55CHL1   C16 5197   2.622   0.868   3.656 -0.4382 -0.0940  0.2197
   55CHL1  H16A 5198   2.654   0.962   3.705  0.9486 -0.7992  0.7537
   55CHL1  H16B 5199   2.533   0.829   3.710 -0.3504  0.0914  0.4989
   55CHL1   C17 5200   2.736   0.763   3.652 -0.3392  0.5375  0.7848
   55CHL1   H17 5201   2.683   0.666   3.647  0.1905  0.3068 -1.8681
   55CHL1   C13 5202   2.800   0.786   3.505 -0.3612 -0.0547 -0.0736
   55CHL1   C18 5203   2.886   0.915   3.527 -0.3313 -0.2232  0.2982
   55CHL1  H18A 5204   2.968   0.881   3.594  0.1326  1.6285  0.7268
   55CHL1  H18B 5205   2.922   0.956   3.430 -0.7108  1.4885  0.8441
   55CHL1  H18C 5206   2.827   0.993   3.581  0.7122  0.1178  0.9810
   55CHL1   C12 5207   2.874   0.676   3.439 -0.5476  0.2791  0.3229
   55CHL1  H12A 5208   2.977   0.662   3.479 -0.5471  1.3902  0.7510
   55CHL1  H12B 5209   2.813   0.583   3.441 -0.4282  0.1850 -0.2473
   55CHL1   C11 5210   2.902   0.703   3.286 -0.0546 -0.2632 -0.1877
   55CHL1  H11A 5211   2.970   0.791   3.278 -0.4155 -0.1022 -1.8732
   55CHL1  H11B 5212   2.949   0.617   3.233  0.3030 -0.3801  0.3141
   55CHL1    C9 5213   2.780   0.747   3.204 -0.3785 -0.2594 -0.0291
   55CHL1    H9 5214   2.707   0.663   3.207 -1.6690  0.7530 -1.2625
   55CHL1   C10 5215   2.804   0.780   3.048  0.0281 -0.0323 -0.8321
   55CHL1   C19 5216   2.920   0.879   3.040  0.0820  0.1688  0.0320
   55CHL1  H19A 5217   3.018   0.837   3.073  0.9021  0.6892 -1.6056
   55CHL1  H19B 5218   2.942   0.925   2.941  2.6405  0.5469  0.6853
   55CHL1  H19C 5219   2.906   0.968   3.105  1.5838 -0.1773  0.8796
   55CHL1    C1 5220   2.825   0.649   2.967  0.6760 -0.4679  0.6263
   55CHL1   H1A 5221   2.926   0.620   3.003  1.0733  0.8985  0.6706
   55CHL1   H1B 5222   2.746   0.575   2.992 -1.6944  1.6616 -0.1962
   55CHL1    C2 5223   2.842   0.690   2.817  0.3728  1.0161  0.0652
   55CHL1   H2A 5224   2.851   0.602   2.749  0.5073  0.1779  1.1457
   55CHL1   H2B 5225   2.924   0.761   2.794  0.8631  0.8784  1.3469
   55CHL1   C20 5226   2.824   0.752   3.774  0.6573 -0.0477 -0.1488
   55CHL1   H20 5227   2.878   0.847   3.792 -1.0802  0.5335  2.7283
   55CHL1   C21 5228   2.912   0.631   3.753  0.5461 -0.2342  0.2691
   55CHL1  H21A 5229   2.851   0.550   3.708 -1.2085  0.8579  0.6186
   55CHL1  H21B 5230   2.964   0.592   3.843  0.7729  1.3619  0.8586
   55CHL1  H21C 5231   2.990   0.672   3.685 -0.0583  0.9468  0.2666
   55CHL1   C22 5232   2.732   0.722   3.910 -0.5448 -0.3749 -0.4196
   55CHL1  H22A 5233   2.642   0.787   3.904 -1.0434 -0.7815  1.9034
   55CHL1  H22B 5234   2.691   0.619   3.903 -2.3530  0.3956 -2.0203
   55CHL1   C23 5235   2.819   0.751   4.036  0.7226  0.7048  0.2277
   55CHL1  H23A 5236   2.924   0.718   4.027  0.4983  0.2257 -0.7807
   55CHL1  H23B 5237   2.818   0.860   4.059  0.2827  0.5443  1.0093
   55CHL1   C24 5238   2.768   0.682   4.163 -0.1186 -0.5986  0.1586
   55CHL1  H24A 5239   2.657   0.691   4.168 -0.0421 -0.2266  1.5075
   55CHL1  H24B 5240   2.775   0.571   4.166  1.6311 -0.5646 -1.2586
   55CHL1   C25 5241   2.818   0.755   4.292  0.0120  0.5109  0.4361
   55CHL1   H25 5242   2.761   0.850   4.303 -0.0727  0.3787  1.2375
   55CHL1   C26 5243   2.790   0.669   4.420 -0.0352  0.8098  0.5754
   55CHL1  H26A 5244   2.848   0.574   4.420 -0.1374  0.7366  1.9464
   55CHL1  H26B 5245   2.798   0.728   4.514 -1.8368  1.5775  0.2885
   55CHL1  H26C 5246   2.682   0.647   4.430  0.4197 -1.3458  1.0987
   55CHL1   C27 5247   2.974   0.766   4.287 -0.0706 -0.4614  0.1959
   55CHL1  H27A 5248   3.023   0.824   4.206 -0.1990 -0.3484  0.1983
   55CHL1  H27B 5249   3.005   0.815   4.382  0.6651  1.4382 -0.9606
   55CHL1  H27C 5250   3.026   0.668   4.292  0.9256 -0.0667 -1.7132
   56CHL1    C3 5251   4.443   2.033   2.923 -0.3121 -0.2121 -0.1721
   56CHL1    H3 5252   4.552   2.010   2.925 -0.6934 -2.3579 -1.3406
   56CHL1    O3 5253   4.400   2.045   2.789  0.4727  0.2319 -0.0028
   56CHL1   H3' 5254   4.432   1.965   2.746 -1.8222  0.2282 -1.9057
   56CHL1    C4 5255   4.359   1.928   2.995  0.1196  0.6254  0.9321
   56CHL1   H4A 5256   4.252   1.946   2.970  0.8189  4.4429  0.0934
   56CHL1   H4B 5257   4.390   1.833   2.946 -1.5867 -0.4847  1.8981
   56CHL1    C5 5258   4.389   1.911   3.141  0.1216 -0.1469  0.2975
   56CHL1    C6 5259   4.424   1.794   3.196 -0.3809  0.2069  0.2391
   56CHL1    H6 5260   4.412   1.701   3.139 -0.8195  0.3404  0.1093
   56CHL1    C7 5261   4.455   1.788   3.341  0.1701 -0.2001 -0.2563
   56CHL1   H7A 5262   4.429   1.688   3.382 -2.9043  0.3096 -0.6844
   56CHL1   H7B 5263   4.566   1.786   3.341  0.2325  1.1022  1.2743
   56CHL1    C8 5264   4.393   1.899   3.428 -0.2820 -0.4100  0.7866
   56CHL1    H8 5265   4.282   1.889   3.423 -0.3392  0.2173  0.7794
   56CHL1   C14 5266   4.449   1.886   3.571  0.0938 -0.7128  0.3930
   56CHL1   H14 5267   4.558   1.908   3.561 -0.1315  0.8418  1.0159
   56CHL1   C15 5268   4.419   1.762   3.646 -0.4328  0.1490 -0.0381
   56CHL1  H15A 5269   4.313   1.738   3.622 -0.3952 -1.7357  1.4213
   56CHL1  H15B 5270   4.481   1.677   3.609  0.3017  1.0878 -1.0257
   56CHL1   C16 5271   4.432   1.792   3.795  0.3989 -0.0984  0.3591
   56CHL1  H16A 5272   4.337   1.785   3.852  1.0645  0.5568  1.5932
   56CHL1  H16B 5273   4.495   1.725   3.857 -1.4994 -1.3015  1.0787
   56CHL1   C17 5274   4.466   1.939   3.805 -0.4524  0.2503  0.1021
   56CHL1   H17 5275   4.576   1.949   3.795 -0.3920  1.9320  1.7693
   56CHL1   C13 5276   4.403   1.994   3.674 -0.5818  0.1721  0.5795
   56CHL1   C18 5277   4.251   2.002   3.685  0.0279 -0.6151 -0.1567
   56CHL1  H18A 5278   4.200   1.917   3.735  1.1374 -0.4995  1.2438
   56CHL1  H18B 5279   4.229   2.097   3.739  0.5977 -1.3970  1.5022
   56CHL1  H18C 5280   4.205   2.026   3.586  0.0660  0.3485  0.0499
   56CHL1   C12 5281   4.448   2.125   3.600  0.0366 -0.6762 -0.0098
   56CHL1  H12A 5282   4.410   2.211   3.659  0.6082 -0.1946 -0.3368
   56CHL1  H12B 5283   4.557   2.146   3.606 -0.3325  1.0484  1.5942
   56CHL1   C11 5284   4.401   2.153   3.455 -0.5907  0.3685 -0.3175
   56CHL1  H11A 5285   4.290   2.161   3.466 -0.5620  0.3771 -0.0037
   56CHL1  H11B 5286   4.437   2.250   3.417 -2.3854  0.2484 -2.5266
   56CHL1    C9 5287   4.425   2.032   3.365  0.0044 -0.4950  0.3007
   56CHL1    H9 5288   4.535   2.028   3.347  0.2310 -0.3308  1.5242
   56CHL1   C10 5289   4.372   2.048   3.217  0.3434 -0.5849  0.2981
   56CHL1   C19 5290   4.222   2.083   3.212 -0.1698  0.3629  0.2589
   56CHL1  H19A 5291   4.171   2.091   3.114  1.6877  0.1235 -0.7643
   56CHL1  H19B 5292   4.161   2.005   3.263  0.8370  1.6128  3.7034
   56CHL1  H19C 5293   4.197   2.178   3.264  0.0120  0.6819 -0.2410
   56CHL1    C1 5294   4.464   2.151   3.141  0.1077  0.1539 -0.1056
   56CHL1   H1A 5295   4.445   2.250   3.187  1.9294 -0.0025  1.0929
   56CHL1   H1B 5296   4.572   2.127   3.156  0.4641  1.6887 -0.0628
   56CHL1    C2 5297   4.432   2.167   2.992 -0.1634 -0.3056 -0.0076
   56CHL1   H2A 5298   4.498   2.242   2.944 -0.2974 -1.9625 -2.9717
   56CHL1   H2B 5299   4.332   2.215   2.989  0.3409  0.7193 -1.4792
   56CHL1   C20 5300   4.422   2.005   3.938 -0.2317 -0.0235  0.1809
   56CHL1   H20 5301   4.318   1.970   3.956  0.3261 -1.7565  0.2854
   56CHL1   C21 5302   4.451   2.152   3.932  0.0315 -0.3882 -0.2781
   56CHL1  H21A 5303   4.546   2.162   3.876  0.4111  1.9892  0.6534
   56CHL1  H21B 5304   4.454   2.210   4.027 -0.3834  0.9666 -1.0622
   56CHL1  H21C 5305   4.377   2.205   3.868  0.8436 -0.7406 -1.5395
   56CHL1   C22 5306   4.505   1.946   4.056  0.1831 -0.8355 -0.9609
   56CHL1  H22A 5307   4.507   1.835   4.052  0.1937 -0.8543 -0.4372
   56CHL1  H22B 5308   4.608   1.989   4.057 -0.2221  0.1811 -1.4339
   56CHL1   C23 5309   4.435   1.991   4.184 -0.5321 -0.3349 -0.6968
   56CHL1  H23A 5310   4.435   2.100   4.200  1.0362 -0.3160 -0.6376
   56CHL1  H23B 5311   4.330   1.956   4.182 -0.9896  0.1783  3.6879
   56CHL1   C24 5312   4.495   1.924   4.314  0.0588 -0.6948  0.7118
   56CHL1  H24A 5313   4.489   1.813   4.309 -0.4842 -0.6373 -0.0077
   56CHL1  H24B 5314   4.602   1.952   4.323 -0.6780  2.3495  1.3228
   56CHL1   C25 5315   4.435   1.970   4.445 -0.0391  0.0239  0.0110
   56CHL1   H25 5316   4.325   1.989   4.437 -0.4162 -0.0623  3.5247
   56CHL1   C26 5317   4.456   1.862   4.553 -0.4394  0.6748 -0.1629
   56CHL1  H26A 5318   4.414   1.761   4.531 -1.3995  1.2325 -0.9752
   56CHL1  H26B 5319   4.564   1.864   4.581 -0.5602  1.3679  0.2712
   56CHL1  H26C 5320   4.406   1.895   4.646 -0.7168  0.1223 -0.1087
   56CHL1   C27 5321   4.496   2.099   4.496 -0.1930  0.8839 -0.4044
   56CHL1  H27A 5322   4.607   2.101   4.494 -0.1792  2.2973  0.3750
   56CHL1  H27B 5323   4.470   2.183   4.428 -0.7874  0.9588 -0.0946
   56CHL1  H27C 5324   4.474   2.129   4.601  0.8665  1.8524 -0.4444
   57CHL1    C3 5325   0.362   5.250   3.032  0.0649  0.1450 -0.3093
   57CHL1    H3 5326   0.255   5.253   3.062  0.2909  0.1733  0.4996
   57CHL1    O3 5327   0.377   5.259   2.890  0.0973 -0.4894 -0.8802
   57CHL1   H3' 5328   0.465   5.225   2.872 -0.2139 -2.4069  0.8753
   57CHL1    C4 5329   0.440   5.363   3.098 -0.3302  0.1414 -0.4937
   57CHL1   H4A 5330   0.544   5.380   3.061 -1.0833  2.4407 -1.7865
   57CHL1   H4B 5331   0.396   5.458   3.060 -2.2700  0.5574  2.4370
   57CHL1    C5 5332   0.442   5.361   3.255 -0.0172  0.2045 -0.7512
   57CHL1    C6 5333   0.408   5.469   3.327  0.0359 -0.4220 -0.4538
   57CHL1    H6 5334   0.384   5.563   3.274 -1.1829 -0.3966  0.0960
   57CHL1    C7 5335   0.408   5.471   3.479 -0.3149 -0.0786  0.2595
   57CHL1   H7A 5336   0.443   5.570   3.515  0.1166  0.4810 -1.6097
   57CHL1   H7B 5337   0.299   5.471   3.499 -0.2906  2.6725  0.6828
   57CHL1    C8 5338   0.479   5.340   3.540 -0.7274  0.3286 -0.2387
   57CHL1    H8 5339   0.587   5.368   3.538 -0.9328  1.2370  0.6365
   57CHL1   C14 5340   0.449   5.314   3.688 -0.3376  0.0353  0.1969
   57CHL1   H14 5341   0.344   5.279   3.698 -1.2350  2.4200 -0.3150
   57CHL1   C15 5342   0.464   5.439   3.785  0.0468 -0.1696 -0.0753
   57CHL1  H15A 5343   0.551   5.493   3.742  1.0481 -2.8260 -1.6688
   57CHL1  H15B 5344   0.366   5.490   3.776 -0.6017 -1.3392  0.1683
   57CHL1   C16 5345   0.491   5.380   3.924 -0.2780 -0.2021  0.6207
   57CHL1  H16A 5346   0.595   5.409   3.948 -0.0612 -0.2122 -0.2793
   57CHL1  H16B 5347   0.429   5.423   4.005  0.1905  0.9276  0.3877
   57CHL1   C17 5348   0.498   5.222   3.904 -0.0270 -0.2475  0.5568
   57CHL1   H17 5349   0.392   5.191   3.903 -0.3756  0.8668  0.9672
   57CHL1   C13 5350   0.535   5.201   3.757  0.1957 -0.2254  0.0087
   57CHL1   C18 5351   0.687   5.221   3.736 -0.1077  0.1260  0.3254
   57CHL1  H18A 5352   0.735   5.141   3.795  1.2132 -0.7123 -1.7758
   57CHL1  H18B 5353   0.721   5.223   3.630 -1.3149  1.8349 -0.0745
   57CHL1  H18C 5354   0.719   5.318   3.779  1.5262 -0.0530 -0.4373
   57CHL1   C12 5355   0.485   5.079   3.690  0.0829  0.1144  0.4851
   57CHL1  H12A 5356   0.549   4.991   3.713  0.7758  0.1934 -1.0032
   57CHL1  H12B 5357   0.378   5.061   3.714  0.6000 -1.4529  1.8172
   57CHL1   C11 5358   0.506   5.091   3.534 -0.2633 -0.0861 -0.8119
   57CHL1  H11A 5359   0.614   5.082   3.509 -0.3311 -0.8945 -0.8474
   57CHL1  H11B 5360   0.452   5.004   3.489 -1.5438 -1.0019  2.2500
   57CHL1    C9 5361   0.450   5.216   3.470  0.7719  0.6298  0.6003
   57CHL1    H9 5362   0.341   5.204   3.485  0.7791  0.5414  0.5788
   57CHL1   C10 5363   0.476   5.229   3.318 -0.2524  0.5007 -0.2705
   57CHL1   C19 5364   0.627   5.198   3.294  0.4077  0.5143  0.2630
   57CHL1  H19A 5365   0.664   5.212   3.190 -1.2427 -1.2275 -0.6321
   57CHL1  H19B 5366   0.699   5.241   3.366  0.8233  1.9399 -0.9638
   57CHL1  H19C 5367   0.635   5.087   3.298 -0.1125  0.4399 -0.4877
   57CHL1    C1 5368   0.402   5.119   3.236 -0.0079  0.1439 -0.0814
   57CHL1   H1A 5369   0.426   5.020   3.280 -1.0790 -0.1233 -0.0584
   57CHL1   H1B 5370   0.295   5.134   3.263  0.2961  1.1111  0.6644
   57CHL1    C2 5371   0.413   5.116   3.080  0.1552 -0.1715  0.5082
   57CHL1   H2A 5372   0.361   5.025   3.044  1.4018 -0.1141 -1.6160
   57CHL1   H2B 5373   0.520   5.102   3.053  0.1129  1.0305 -0.3350
   57CHL1   C20 5374   0.576   5.150   4.014 -0.1441 -0.1020  0.3077
   57CHL1   H20 5375   0.682   5.185   4.014 -0.3535  0.5773 -1.2664
   57CHL1   C21 5376   0.576   5.001   3.984  0.0097 -0.1147  0.6622
   57CHL1  H21A 5377   0.477   4.954   3.963 -0.8325  1.7091  0.3556
   57CHL1  H21B 5378   0.624   4.942   4.065  1.7885  2.2175  1.4134
   57CHL1  H21C 5379   0.634   4.992   3.889  0.1262  2.1441  0.4566
   57CHL1   C22 5380   0.530   5.177   4.151  0.1945 -0.2756  0.0844
   57CHL1  H22A 5381   0.566   5.104   4.227  0.6564  2.1575  2.3684
   57CHL1  H22B 5382   0.567   5.276   4.184  0.2419 -0.1993 -0.1966
   57CHL1   C23 5383   0.377   5.157   4.175 -0.2397 -0.3856  0.4567
   57CHL1  H23A 5384   0.322   5.203   4.090  1.6389  0.3955 -0.3909
   57CHL1  H23B 5385   0.343   5.051   4.175 -1.5435  0.0143  1.4097
   57CHL1   C24 5386   0.320   5.235   4.293 -0.3675 -0.3545 -0.3392
   57CHL1  H24A 5387   0.382   5.221   4.385 -0.3109 -0.4967 -0.3973
   57CHL1  H24B 5388   0.309   5.343   4.274 -2.6416 -0.7663 -1.7119
   57CHL1   C25 5389   0.178   5.210   4.334  0.3896  0.8047  0.5253
   57CHL1   H25 5390   0.169   5.104   4.367 -0.0151  0.7500  0.2498
   57CHL1   C26 5391   0.133   5.304   4.447  0.3794  0.1155 -0.6056
   57CHL1  H26A 5392   0.030   5.277   4.476  0.1949  0.7587 -0.6568
   57CHL1  H26B 5393   0.202   5.295   4.533 -2.2587  1.0919  1.7547
   57CHL1  H26C 5394   0.132   5.409   4.410 -0.3256  0.4083  0.2114
   57CHL1   C27 5395   0.071   5.225   4.224  0.1477  0.4987 -0.0906
   57CHL1  H27A 5396   0.093   5.162   4.135 -4.7618 -1.5179 -0.2071
   57CHL1  H27B 5397  -0.026   5.198   4.271 -0.9986  2.9080 -0.9028
   57CHL1  H27C 5398   0.064   5.332   4.195  1.1261  0.2976 -1.1326
   58CHL1    C3 5399   3.335   1.136   3.003 -0.0776  0.0588  0.2819
   58CHL1    H3 5400   3.414   1.084   2.945 -1.0256 -1.0266 -0.0840
   58CHL1    O3 5401   3.264   1.213   2.907  0.8130  0.2269  0.4034
   58CHL1   H3' 5402   3.320   1.279   2.865 -1.2939  2.1136  0.3477
   58CHL1    C4 5403   3.241   1.036   3.066  0.1945  0.5095 -0.1664
   58CHL1   H4A 5404   3.144   1.088   3.084  0.7952  1.2939  0.9074
   58CHL1   H4B 5405   3.226   0.955   2.991 -3.3067  1.2100 -0.4136
   58CHL1    C5 5406   3.276   0.977   3.201  0.2339 -0.2770 -0.2393
   58CHL1    C6 5407   3.277   0.840   3.227 -0.1960  0.8288 -0.0494
   58CHL1    H6 5408   3.241   0.777   3.144 -3.7019  0.2199  1.7242
   58CHL1    C7 5409   3.309   0.780   3.363  0.5814  0.0788 -0.4726
   58CHL1   H7A 5410   3.245   0.700   3.403  0.9640 -0.0920 -0.1949
   58CHL1   H7B 5411   3.415   0.747   3.363  0.9056  0.9957  1.0968
   58CHL1    C8 5412   3.301   0.891   3.471 -0.2679 -0.4129 -0.5110
   58CHL1    H8 5413   3.193   0.914   3.487 -0.7359 -2.4969 -0.3831
   58CHL1   C14 5414   3.357   0.836   3.603  0.7244  0.6788 -0.3380
   58CHL1   H14 5415   3.467   0.840   3.594  0.5757  1.8725 -2.0716
   58CHL1   C15 5416   3.316   0.692   3.640  0.3310 -0.2836  0.3491
   58CHL1  H15A 5417   3.209   0.663   3.634  0.1849  0.5774 -2.6606
   58CHL1  H15B 5418   3.376   0.617   3.585 -0.4200 -0.9962  0.4775
   58CHL1   C16 5419   3.356   0.690   3.794  0.1445 -0.8786  0.7735
   58CHL1  H16A 5420   3.277   0.639   3.853 -0.4918  1.1302  1.7351
   58CHL1  H16B 5421   3.453   0.640   3.818  2.2438  1.6110 -1.8142
   58CHL1   C17 5422   3.382   0.837   3.838 -1.5083 -0.4407  0.7844
   58CHL1   H17 5423   3.492   0.853   3.836 -1.8499  2.6731  1.2889
   58CHL1   C13 5424   3.334   0.926   3.726  0.4191 -0.1829  0.3248
   58CHL1   C18 5425   3.183   0.955   3.741 -0.8622  0.3304  1.3573
   58CHL1  H18A 5426   3.176   1.019   3.831 -0.1348  3.3888 -0.6067
   58CHL1  H18B 5427   3.144   1.036   3.676  1.2494  1.6447  1.6355
   58CHL1  H18C 5428   3.122   0.862   3.742  1.7875 -1.6688 -1.6270
   58CHL1   C12 5429   3.427   1.047   3.685 -0.4265 -0.3129  0.0369
   58CHL1  H12A 5430   3.412   1.122   3.766 -1.3665  0.4360 -0.7993
   58CHL1  H12B 5431   3.533   1.016   3.677 -0.1660 -0.2444  2.3511
   58CHL1   C11 5432   3.394   1.117   3.549 -0.0412 -0.1237  0.3211
   58CHL1  H11A 5433   3.309   1.183   3.576  0.3678  0.0985  1.1000
   58CHL1  H11B 5434   3.486   1.179   3.536  1.4929 -1.6091  3.1521
   58CHL1    C9 5435   3.381   1.019   3.430 -0.1163 -0.5004 -0.1568
   58CHL1    H9 5436   3.480   0.983   3.396  0.9963  1.5058  0.8270
   58CHL1   C10 5437   3.325   1.083   3.305  0.6353 -0.0681  0.5765
   58CHL1   C19 5438   3.210   1.175   3.347 -0.1077  0.0964  0.0488
   58CHL1  H19A 5439   3.150   1.202   3.258 -0.5367 -1.7263 -0.2681
   58CHL1  H19B 5440   3.146   1.130   3.427  1.1540 -1.3507  0.2848
   58CHL1  H19C 5441   3.249   1.273   3.380 -0.5779  1.0449 -2.0407
   58CHL1    C1 5442   3.439   1.158   3.225  0.2055 -0.5837 -0.3329
   58CHL1   H1A 5443   3.482   1.226   3.301 -1.1728 -0.1801  0.1244
   58CHL1   H1B 5444   3.521   1.087   3.202  0.9150  0.0695  0.1621
   58CHL1    C2 5445   3.388   1.237   3.104 -0.2099 -0.2024  0.8230
   58CHL1   H2A 5446   3.464   1.303   3.057  0.0954  0.3140  2.0117
   58CHL1   H2B 5447   3.311   1.311   3.135 -1.5129 -1.0581 -0.2307
   58CHL1   C20 5448   3.338   0.872   3.981 -0.1136 -0.9042  0.4329
   58CHL1   H20 5449   3.229   0.893   3.991 -0.2353  0.0656 -2.1661
   58CHL1   C21 5450   3.399   0.995   4.032 -0.3887 -0.0955 -0.0264
   58CHL1  H21A 5451   3.363   1.007   4.136  2.6461  0.4996  1.0778
   58CHL1  H21B 5452   3.372   1.088   3.978  0.1019  0.3288  0.4539
   58CHL1  H21C 5453   3.510   0.992   4.038 -0.3387 -0.5422 -0.9986
   58CHL1   C22 5454   3.355   0.752   4.075 -0.1493  0.2435  0.1902
   58CHL1  H22A 5455   3.323   0.780   4.178  1.0359 -0.5505  0.7892
   58CHL1  H22B 5456   3.285   0.669   4.054  0.6563 -0.9049  1.8684
   58CHL1   C23 5457   3.487   0.690   4.102  0.1586 -0.9479  0.8928
   58CHL1  H23A 5458   3.526   0.639   4.011 -1.6046  1.5040 -1.3866
   58CHL1  H23B 5459   3.566   0.761   4.135  0.4251  0.0259 -1.6245
   58CHL1   C24 5460   3.480   0.577   4.210  0.0111 -0.2653  0.1658
   58CHL1  H24A 5461   3.462   0.634   4.304 -1.8319 -1.5661  0.6567
   58CHL1  H24B 5462   3.395   0.508   4.188 -1.4198  1.5475 -0.2491
   58CHL1   C25 5463   3.601   0.488   4.234 -0.9336  0.0484  0.0492
   58CHL1   H25 5464   3.613   0.427   4.142 -1.3551  1.9187 -1.3058
   58CHL1   C26 5465   3.726   0.569   4.265  0.1162  0.4551 -0.6003
   58CHL1  H26A 5466   3.713   0.613   4.366 -0.7214  1.7056 -1.2174
   58CHL1  H26B 5467   3.808   0.494   4.273 -0.8487 -0.6355 -0.5959
   58CHL1  H26C 5468   3.749   0.650   4.193  2.2724  1.9568  1.6210
   58CHL1   C27 5469   3.585   0.391   4.350 -0.4813 -0.6873 -0.0466
   58CHL1  H27A 5470   3.560   0.438   4.447  0.3903 -0.7481  0.2137
   58CHL1  H27B 5471   3.509   0.314   4.322 -0.1944 -0.7289 -0.7428
   58CHL1  H27C 5472   3.687   0.358   4.375  0.7840  2.0164 -1.2230
   59CHL1    C3 5473   0.506   3.654   3.238  0.4432  0.6156  0.8289
   59CHL1    H3 5474   0.614   3.638   3.255  0.6027  2.5988  1.9671
   59CHL1    O3 5475   0.474   3.601   3.107 -0.0437 -0.0748  0.2619
   59CHL1   H3' 5476   0.380   3.582   3.096  0.2379 -1.2662 -0.2499
   59CHL1    C4 5477   0.438   3.570   3.343  0.6501  0.3380  0.1793
   59CHL1   H4A 5478   0.329   3.571   3.322  0.0781 -2.0520  2.5157
   59CHL1   H4B 5479   0.470   3.466   3.322 -1.1431 -0.1304 -0.3932
   59CHL1    C5 5480   0.478   3.619   3.480  0.0526 -0.0176 -0.3230
   59CHL1    C6 5481   0.542   3.537   3.563  0.0084  0.4016 -0.3085
   59CHL1    H6 5482   0.556   3.433   3.531 -0.9832 -0.0456  0.6589
   59CHL1    C7 5483   0.567   3.579   3.706  0.3300  0.0154  0.0028
   59CHL1   H7A 5484   0.553   3.493   3.776  0.3986 -0.7822 -0.9330
   59CHL1   H7B 5485   0.669   3.617   3.729 -0.5483  1.8073  1.0988
   59CHL1    C8 5486   0.477   3.698   3.748  0.0380 -0.3220  0.0365
   59CHL1    H8 5487   0.373   3.664   3.767 -0.0193  0.1782  0.6940
   59CHL1   C14 5488   0.526   3.756   3.882 -0.4044  0.5174  0.2017
   59CHL1   H14 5489   0.623   3.811   3.879  0.4618 -0.7486  2.3652
   59CHL1   C15 5490   0.528   3.663   4.002 -0.2159 -0.2353 -0.0303
   59CHL1  H15A 5491   0.432   3.608   4.003 -0.0093 -0.7365  3.0743
   59CHL1  H15B 5492   0.609   3.587   4.016 -1.0628 -0.9725  1.1038
   59CHL1   C16 5493   0.538   3.755   4.125  0.4135 -0.1692  0.9330
   59CHL1  H16A 5494   0.475   3.715   4.208 -2.0437  0.3451 -0.5601
   59CHL1  H16B 5495   0.643   3.750   4.161  0.6574  2.3852  0.7361
   59CHL1   C17 5496   0.498   3.900   4.079  0.0810 -0.2357  0.4833
   59CHL1   H17 5497   0.594   3.956   4.075  0.4782 -0.8629  0.9847
   59CHL1   C13 5498   0.437   3.868   3.940  0.2358 -0.6606  1.1268
   59CHL1   C18 5499   0.286   3.838   3.960 -0.3049  0.0814 -0.0482
   59CHL1  H18A 5500   0.229   3.928   3.989  0.4707  1.6521 -2.9565
   59CHL1  H18B 5501   0.250   3.813   3.858  1.3058 -1.0288 -0.3813
   59CHL1  H18C 5502   0.270   3.760   4.037  1.2264 -0.0670  0.1670
   59CHL1   C12 5503   0.452   3.986   3.840  0.6904  0.4335  0.0800
   59CHL1  H12A 5504   0.393   4.076   3.865  1.1544  0.2474  1.9534
   59CHL1  H12B 5505   0.560   4.013   3.844  1.4506 -2.2146 -0.5843
   59CHL1   C11 5506   0.417   3.947   3.693 -0.2659  0.2107 -0.2261
   59CHL1  H11A 5507   0.306   3.943   3.698 -0.3615  2.3380  0.1312
   59CHL1  H11B 5508   0.449   4.038   3.639  1.9613 -1.1518 -1.3472
   59CHL1    C9 5509   0.477   3.813   3.646 -0.1869 -0.2689 -0.1017
   59CHL1    H9 5510   0.582   3.845   3.625 -1.2287  2.6543 -1.3756
   59CHL1   C10 5511   0.431   3.765   3.510  0.5118 -0.4924  0.1534
   59CHL1   C19 5512   0.282   3.774   3.510 -0.4598  0.2293 -0.1396
   59CHL1  H19A 5513   0.231   3.740   3.602 -1.8402  1.1852 -0.5161
   59CHL1  H19B 5514   0.253   3.881   3.507  0.9371  0.7171  1.9118
   59CHL1  H19C 5515   0.228   3.720   3.429 -1.1170 -1.3653  1.3098
   59CHL1    C1 5516   0.480   3.867   3.398  0.0152 -0.0370  0.6364
   59CHL1   H1A 5517   0.436   3.969   3.402 -1.9752 -0.1852 -5.8503
   59CHL1   H1B 5518   0.588   3.874   3.425  0.3000  1.3932 -0.7305
   59CHL1    C2 5519   0.472   3.809   3.250  0.0465  0.6612 -0.4862
   59CHL1   H2A 5520   0.534   3.863   3.176  0.1959  1.2418  0.0551
   59CHL1   H2B 5521   0.364   3.823   3.225  0.4502  1.7344 -1.7238
   59CHL1   C20 5522   0.419   3.984   4.186  0.1170 -0.2063  0.1527
   59CHL1   H20 5523   0.316   3.942   4.188 -0.0733  0.2957  1.0717
   59CHL1   C21 5524   0.414   4.125   4.130 -0.4076 -0.4814  0.0782
   59CHL1  H21A 5525   0.512   4.164   4.095 -1.2044  1.3035 -0.2379
   59CHL1  H21B 5526   0.386   4.196   4.211 -1.6779  0.8114 -1.4414
   59CHL1  H21C 5527   0.337   4.120   4.050 -0.3388 -0.2891  0.0006
   59CHL1   C22 5528   0.467   3.989   4.330  0.7042  0.2123  0.3342
   59CHL1  H22A 5529   0.399   4.048   4.395  1.5076 -0.3395  1.7393
   59CHL1  H22B 5530   0.463   3.882   4.361 -1.0940  0.7775  2.3093
   59CHL1   C23 5531   0.610   4.043   4.363  0.0233  0.5549  0.1107
   59CHL1  H23A 5532   0.681   3.999   4.290 -1.7053 -0.0768 -1.2460
   59CHL1  H23B 5533   0.620   4.153   4.349  2.4159  0.2902 -0.7125
   59CHL1   C24 5534   0.650   4.003   4.511  0.2837 -0.4228  0.4997
   59CHL1  H24A 5535   0.621   4.089   4.575  0.0186 -1.5493  1.9281
   59CHL1  H24B 5536   0.601   3.909   4.543 -0.2315  0.3209  1.9809
   59CHL1   C25 5537   0.802   3.983   4.527  0.2391  0.9920 -0.3988
   59CHL1   H25 5538   0.842   3.920   4.444  0.9383 -1.0577  1.3846
   59CHL1   C26 5539   0.877   4.116   4.531 -0.3898  0.2209  0.5111
   59CHL1  H26A 5540   0.872   4.165   4.432  1.1066  1.7427  1.1271
   59CHL1  H26B 5541   0.847   4.187   4.612  1.9835  0.9128  0.8457
   59CHL1  H26C 5542   0.983   4.090   4.550 -0.2605 -0.9522 -1.5779
   59CHL1   C27 5543   0.827   3.896   4.652 -0.8373  0.9081  0.4158
   59CHL1  H27A 5544   0.924   3.843   4.648 -1.7457 -0.9655  1.7693
   59CHL1  H27B 5545   0.834   3.962   4.742  0.7472 -0.6839  1.5396
   59CHL1  H27C 5546   0.743   3.827   4.675 -1.8893  2.6316  2.1569
   60CHL1    C3 5547   2.707   4.538   3.236  0.2252 -0.5505 -0.2020
   60CHL1    H3 5548   2.809   4.581   3.222  0.6210 -0.7913  1.6634
   60CHL1    O3 5549   2.652   4.511   3.112 -0.9864 -0.3674 -0.0213
   60CHL1   H3' 5550   2.595   4.437   3.134 -1.4888  0.4127  1.4358
   60CHL1    C4 5551   2.726   4.396   3.305  0.2727 -0.5527 -0.2727
   60CHL1   H4A 5552   2.625   4.352   3.326 -1.2425  3.1328  0.9864
   60CHL1   H4B 5553   2.774   4.319   3.240 -1.3510 -3.2124  1.4519
   60CHL1    C5 5554   2.799   4.414   3.437 -0.3171  0.2418 -0.3905
   60CHL1    C6 5555   2.909   4.334   3.468  0.7201 -0.0383  0.1816
   60CHL1    H6 5556   2.937   4.259   3.393  3.1043  0.6751  0.2847
   60CHL1    C7 5557   2.987   4.339   3.590 -0.0618 -0.1936  0.1079
   60CHL1   H7A 5558   3.002   4.240   3.638 -1.7127 -0.5332 -0.0258
   60CHL1   H7B 5559   3.082   4.393   3.571  0.6855 -0.7856  1.8677
   60CHL1    C8 5560   2.919   4.424   3.700 -0.7869  0.2523 -0.3112
   60CHL1    H8 5561   2.847   4.359   3.756 -2.2806  2.4313  0.4455
   60CHL1   C14 5562   3.027   4.481   3.801  0.3691 -0.0105  0.3033
   60CHL1   H14 5563   3.081   4.556   3.740 -2.8905  1.8536 -0.5599
   60CHL1   C15 5564   3.134   4.383   3.850  0.6525 -1.2089  0.1080
   60CHL1  H15A 5565   3.101   4.282   3.881 -3.0027  0.2043  1.2647
   60CHL1  H15B 5566   3.214   4.368   3.774  1.8337  1.1060  0.7938
   60CHL1   C16 5567   3.190   4.462   3.972 -0.2294  0.5377 -0.3752
   60CHL1  H16A 5568   3.183   4.404   4.066 -3.0740 -2.1528 -2.0418
   60CHL1  H16B 5569   3.297   4.487   3.954 -0.5648  0.7952 -2.2485
   60CHL1   C17 5570   3.106   4.585   3.991  0.4418 -0.6930  0.0661
   60CHL1   H17 5571   3.153   4.673   3.943  1.6775 -2.3674 -1.9028
   60CHL1   C13 5572   2.970   4.558   3.922 -0.4909  0.3124 -0.0216
   60CHL1   C18 5573   2.872   4.471   4.012  0.1273  0.3781 -0.4755
   60CHL1  H18A 5574   2.820   4.541   4.081  1.0316  1.6367 -1.0238
   60CHL1  H18B 5575   2.800   4.415   3.948 -0.5393 -0.8919  1.3070
   60CHL1  H18C 5576   2.922   4.388   4.067 -0.5641 -1.2708 -2.2306
   60CHL1   C12 5577   2.895   4.684   3.864 -0.7204  0.3029 -0.7299
   60CHL1  H12A 5578   2.859   4.722   3.962  0.5915 -1.1406  0.3617
   60CHL1  H12B 5579   2.966   4.763   3.830 -0.7376  0.3989 -0.5421
   60CHL1   C11 5580   2.795   4.641   3.763  0.3330  0.3436 -0.5856
   60CHL1  H11A 5581   2.715   4.586   3.817  0.0431  0.2330 -1.1194
   60CHL1  H11B 5582   2.736   4.727   3.724 -0.2724 -0.3721 -1.3008
   60CHL1    C9 5583   2.846   4.550   3.646 -0.0400  0.7398  0.5130
   60CHL1    H9 5584   2.927   4.603   3.592  0.3412 -0.7728 -0.4508
   60CHL1   C10 5585   2.743   4.519   3.542  0.1917  0.3201 -0.0181
   60CHL1   C19 5586   2.609   4.453   3.608  0.1871 -0.3320 -0.4249
   60CHL1  H19A 5587   2.568   4.519   3.688  1.4400  1.7563 -1.4236
   60CHL1  H19B 5588   2.524   4.434   3.539 -0.7053  0.0979  0.5183
   60CHL1  H19C 5589   2.640   4.355   3.650  2.2427  0.5693  0.2758
   60CHL1    C1 5590   2.709   4.653   3.463  0.5381 -0.1079  0.2031
   60CHL1   H1A 5591   2.654   4.728   3.523 -2.5049 -0.4061 -1.9762
   60CHL1   H1B 5592   2.802   4.696   3.419 -0.4895  2.2049  0.1763
   60CHL1    C2 5593   2.635   4.629   3.333 -0.6555  0.5963  0.0926
   60CHL1   H2A 5594   2.622   4.722   3.273  0.5680 -0.0621 -1.2527
   60CHL1   H2B 5595   2.535   4.586   3.355 -0.9709  1.9900  1.5164
   60CHL1   C20 5596   3.093   4.611   4.148 -0.2236  0.1402  0.1653
   60CHL1   H20 5597   3.045   4.522   4.194  2.4566 -1.3942  0.2203
   60CHL1   C21 5598   3.021   4.737   4.190 -0.6711  0.6707 -0.0609
   60CHL1  H21A 5599   3.029   4.741   4.301  1.5423 -0.3174 -0.1433
   60CHL1  H21B 5600   2.913   4.735   4.163 -1.0095 -0.8953  1.2884
   60CHL1  H21C 5601   3.069   4.820   4.134 -1.0451 -0.0326 -1.4519
   60CHL1   C22 5602   3.236   4.617   4.214  0.4914  0.3352  0.4390
   60CHL1  H22A 5603   3.218   4.645   4.320 -0.3786 -0.0737  0.4031
   60CHL1  H22B 5604   3.275   4.512   4.215  1.5701  0.6893 -0.7828
   60CHL1   C23 5605   3.329   4.726   4.159  0.3699 -0.2737  0.1845
   60CHL1  H23A 5606   3.361   4.696   4.057 -0.6050  1.1774 -0.5815
   60CHL1  H23B 5607   3.274   4.822   4.165  0.1289 -0.2447 -1.9443
   60CHL1   C24 5608   3.450   4.734   4.255  0.1808 -0.5561  0.8026
   60CHL1  H24A 5609   3.410   4.784   4.346 -1.8754  1.4707 -1.0776
   60CHL1  H24B 5610   3.504   4.638   4.272  1.2518 -0.7802 -2.9797
   60CHL1   C25 5611   3.563   4.826   4.214 -0.2582  0.3288  0.5411
   60CHL1   H25 5612   3.621   4.778   4.133  2.0735  0.3037  2.1213
   60CHL1   C26 5613   3.517   4.958   4.166  0.3244 -0.7268  0.6506
   60CHL1  H26A 5614   3.466   5.008   4.251 -0.1350 -1.4966  0.8438
   60CHL1  H26B 5615   3.600   5.023   4.132  1.0162 -1.3831  1.0410
   60CHL1  H26C 5616   3.446   4.947   4.082 -1.7881 -2.9526  2.5713
   60CHL1   C27 5617   3.655   4.839   4.330 -0.2425  0.4222  0.0889
   60CHL1  H27A 5618   3.753   4.876   4.294 -1.5326  0.6083 -3.7636
   60CHL1  H27B 5619   3.605   4.914   4.395  1.3202 -0.2545  2.1498
   60CHL1  H27C 5620   3.670   4.739   4.376 -0.6314  0.7108  0.8559
   61CHL1    C3 5621   4.757   1.209   3.047 -0.2181  0.2010  0.3459
   61CHL1    H3 5622   4.665   1.271   3.039 -1.1773 -0.9444  1.8839
   61CHL1    O3 5623   4.815   1.197   2.921  0.4711 -0.2584 -0.1485
   61CHL1   H3' 5624   4.742   1.195   2.859  0.8815  2.2592 -0.8303
   61CHL1    C4 5625   4.845   1.289   3.147 -0.5717 -1.0948 -1.2109
   61CHL1   H4A 5626   4.943   1.238   3.136  0.0740  0.0446 -0.8758
   61CHL1   H4B 5627   4.856   1.393   3.108 -1.4622 -0.3317  0.4535
   61CHL1    C5 5628   4.793   1.292   3.287  0.1476 -0.2279 -0.0483
   61CHL1    C6 5629   4.761   1.412   3.341 -0.3031  0.3442 -0.1359
   61CHL1    H6 5630   4.783   1.508   3.292 -0.0434  1.4218  1.9909
   61CHL1    C7 5631   4.713   1.415   3.484  0.1993 -0.1153 -0.3484
   61CHL1   H7A 5632   4.760   1.490   3.551  1.7050 -1.1241 -0.2300
   61CHL1   H7B 5633   4.612   1.460   3.486  0.2356 -0.0518  0.8482
   61CHL1    C8 5634   4.721   1.281   3.561  0.1335 -0.1376  0.1288
   61CHL1    H8 5635   4.820   1.247   3.599  0.9794 -0.0783 -1.9206
   61CHL1   C14 5636   4.621   1.282   3.674  0.3672 -0.2708  0.8512
   61CHL1   H14 5637   4.522   1.280   3.624  1.4460  1.6837 -1.5675
   61CHL1   C15 5638   4.615   1.403   3.764  0.0925  0.5965 -0.6067
   61CHL1  H15A 5639   4.719   1.417   3.800  0.2223  0.8664 -1.0840
   61CHL1  H15B 5640   4.576   1.486   3.702  0.5934  0.8711 -0.5526
   61CHL1   C16 5641   4.528   1.363   3.881 -0.0306 -0.4446 -0.1876
   61CHL1  H16A 5642   4.590   1.397   3.967 -3.4429  0.9706  1.9062
   61CHL1  H16B 5643   4.423   1.396   3.890 -0.2044 -1.3092  1.1622
   61CHL1   C17 5644   4.522   1.206   3.872  0.0029 -0.3344 -0.0286
   61CHL1   H17 5645   4.422   1.193   3.826  0.2730 -0.8949 -0.4793
   61CHL1   C13 5646   4.625   1.159   3.768 -0.5809  0.4918 -0.9004
   61CHL1   C18 5647   4.767   1.131   3.831 -0.0414  0.1359 -0.2558
   61CHL1  H18A 5648   4.848   1.106   3.758  0.2185  3.0066 -1.0750
   61CHL1  H18B 5649   4.798   1.219   3.891 -1.4044 -0.6506  1.7315
   61CHL1  H18C 5650   4.761   1.058   3.915 -1.1174 -0.0662 -0.5031
   61CHL1   C12 5651   4.588   1.041   3.685 -0.1552  0.1732 -0.0085
   61CHL1  H12A 5652   4.594   0.948   3.746  1.4002  0.1606 -0.1491
   61CHL1  H12B 5653   4.477   1.035   3.677 -0.4356 -1.7022  3.3035
   61CHL1   C11 5654   4.668   1.033   3.555  0.5837 -0.1041  0.0676
   61CHL1  H11A 5655   4.770   1.001   3.585  0.8653  0.5631 -0.1717
   61CHL1  H11B 5656   4.629   0.943   3.503  0.5596 -0.5864  0.9002
   61CHL1    C9 5657   4.678   1.165   3.472 -0.2812  0.6387  0.6040
   61CHL1    H9 5658   4.576   1.190   3.436 -0.2397 -0.0322 -0.0061
   61CHL1   C10 5659   4.763   1.156   3.341  0.1496  0.7929 -0.2709
   61CHL1   C19 5660   4.888   1.070   3.366 -0.5798 -1.0041  0.6718
   61CHL1  H19A 5661   4.955   1.125   3.436 -1.2018  3.4964 -1.8737
   61CHL1  H19B 5662   4.863   0.967   3.398  0.6713 -1.9053 -1.0757
   61CHL1  H19C 5663   4.932   1.058   3.265 -1.2761  0.2127  0.2000
   61CHL1    C1 5664   4.669   1.087   3.236 -0.7163 -0.5075  0.3215
   61CHL1   H1A 5665   4.643   0.982   3.264 -0.5894 -0.5206  0.3891
   61CHL1   H1B 5666   4.572   1.141   3.232  0.0595  0.8271 -1.8233
   61CHL1    C2 5667   4.720   1.072   3.093 -0.2685  0.0947  0.4022
   61CHL1   H2A 5668   4.644   1.027   3.024 -1.5471  1.9730  0.5156
   61CHL1   H2B 5669   4.809   1.006   3.095  2.1648  3.1500 -0.1765
   61CHL1   C20 5670   4.517   1.136   4.016  0.3996 -0.0831  0.7713
   61CHL1   H20 5671   4.619   1.119   4.056 -0.4367 -1.1534  2.5530
   61CHL1   C21 5672   4.459   0.999   3.997 -0.2716 -0.1593  0.9078
   61CHL1  H21A 5673   4.423   0.959   4.095 -1.5314  2.7721  1.7647
   61CHL1  H21B 5674   4.537   0.925   3.971 -1.2570 -0.6697 -0.7564
   61CHL1  H21C 5675   4.364   1.004   3.939  2.4873  0.3928 -4.0572
   61CHL1   C22 5676   4.438   1.212   4.123 -0.7635 -0.2730 -0.4704
   61CHL1  H22A 5677   4.448   1.165   4.223  0.9539 -0.9978 -0.9411
   61CHL1  H22B 5678   4.488   1.310   4.140  0.7374 -0.7346 -1.9293
   61CHL1   C23 5679   4.284   1.227   4.088 -0.3860 -0.1902 -0.2953
   61CHL1  H23A 5680   4.273   1.288   3.996 -1.1734  0.3919  0.1685
   61CHL1  H23B 5681   4.242   1.126   4.070  1.0568 -0.6966 -0.9337
   61CHL1   C24 5682   4.206   1.299   4.197  0.0523 -0.9187 -0.0364
   61CHL1  H24A 5683   4.252   1.399   4.204  2.7052 -2.0340 -0.3360
   61CHL1  H24B 5684   4.101   1.311   4.163  0.6168  0.0461 -1.5148
   61CHL1   C25 5685   4.209   1.231   4.340  0.3654 -0.0963  0.6970
   61CHL1   H25 5686   4.315   1.216   4.371  0.9983 -0.1017 -1.3128
   61CHL1   C26 5687   4.147   1.320   4.447  0.1038 -0.4674 -0.0739
   61CHL1  H26A 5688   4.168   1.274   4.546 -0.5345 -0.7880 -0.0809
   61CHL1  H26B 5689   4.206   1.413   4.439  0.2216 -0.5484 -0.1570
   61CHL1  H26C 5690   4.040   1.344   4.431  0.3558  0.5165 -0.3170
   61CHL1   C27 5691   4.141   1.090   4.340 -0.1323 -0.7995  0.3194
   61CHL1  H27A 5692   4.157   1.043   4.439  3.0506 -0.5952  0.0198
   61CHL1  H27B 5693   4.033   1.096   4.315 -0.1718  2.3534  0.8345
   61CHL1  H27C 5694   4.188   1.028   4.261 -0.6285 -3.4150  1.9750
   62CHL1    C3 5695   4.758   6.316   2.851 -0.0301  1.1238  0.3935
   62CHL1    H3 5696   4.689   6.234   2.882 -0.1060  0.5519 -1.1918
   62CHL1    O3 5697   4.770   6.301   2.710  0.0288 -0.0920 -0.0528
   62CHL1   H3' 5698   4.862   6.325   2.691  1.1504 -2.5249  1.8617
   62CHL1    C4 5699   4.690   6.454   2.886 -0.4737 -0.4149 -0.0869
   62CHL1   H4A 5700   4.757   6.531   2.843  0.7318 -1.6903 -0.6052
   62CHL1   H4B 5701   4.589   6.449   2.841  0.1027 -3.3863 -1.3059
   62CHL1    C5 5702   4.695   6.474   3.039 -0.2659 -0.5201  0.6699
   62CHL1    C6 5703   4.582   6.505   3.099  0.2943  0.3068  0.4353
   62CHL1    H6 5704   4.491   6.516   3.038  1.4134 -0.4209 -1.4372
   62CHL1    C7 5705   4.559   6.506   3.247 -0.0329 -0.3378 -0.1001
   62CHL1   H7A 5706   4.487   6.586   3.274 -1.6155 -1.2517 -1.4421
   62CHL1   H7B 5707   4.522   6.407   3.283 -0.9818 -0.4884 -1.4210
   62CHL1    C8 5708   4.694   6.533   3.316  0.0166 -0.2552 -0.0654
   62CHL1    H8 5709   4.715   6.642   3.303  0.3507 -0.2813  0.2417
   62CHL1   C14 5710   4.686   6.511   3.463 -0.0470  0.0420 -0.5135
   62CHL1   H14 5711   4.668   6.404   3.489 -1.3367  0.6853  1.4567
   62CHL1   C15 5712   4.559   6.573   3.522  0.4078 -0.3610 -0.0621
   62CHL1  H15A 5713   4.542   6.675   3.481  0.9218 -0.7602 -1.3107
   62CHL1  H15B 5714   4.458   6.530   3.509  0.1692  0.2015 -0.1287
   62CHL1   C16 5715   4.595   6.591   3.673 -0.3330  0.5496 -0.1611
   62CHL1  H16A 5716   4.602   6.700   3.696  0.9327  0.6568 -0.9966
   62CHL1  H16B 5717   4.533   6.532   3.744  0.2030  0.9044  0.6149
   62CHL1   C17 5718   4.744   6.546   3.692  0.9309 -0.3068  0.9259
   62CHL1   H17 5719   4.735   6.436   3.704 -4.1122 -0.3892 -1.1631
   62CHL1   C13 5720   4.801   6.558   3.550  0.4653  0.1340 -0.0319
   62CHL1   C18 5721   4.838   6.710   3.531 -0.2803  0.2431 -0.2723
   62CHL1  H18A 5722   4.921   6.743   3.597 -0.4689  0.5215 -0.1763
   62CHL1  H18B 5723   4.887   6.719   3.431  1.1511  1.0102  0.4631
   62CHL1  H18C 5724   4.748   6.774   3.539 -0.1790  0.4142 -0.4869
   62CHL1   C12 5725   4.915   6.471   3.505  0.3422  0.7192 -0.5841
   62CHL1  H12A 5726   5.015   6.495   3.546  0.3465 -1.6903  1.0112
   62CHL1  H12B 5727   4.895   6.364   3.528  0.7175  0.6184 -0.7262
   62CHL1   C11 5728   4.939   6.472   3.347 -1.0086 -0.2877 -0.8861
   62CHL1  H11A 5729   4.995   6.566   3.328 -2.1186  0.9182  1.3705
   62CHL1  H11B 5730   5.017   6.396   3.326 -0.4862  0.5470 -2.0033
   62CHL1    C9 5731   4.806   6.447   3.267 -0.2805  0.6196  0.6040
   62CHL1    H9 5732   4.778   6.342   3.286  1.8380 -0.5018 -1.8183
   62CHL1   C10 5733   4.827   6.456   3.112  0.4378 -0.1482  0.5740
   62CHL1   C19 5734   4.919   6.576   3.075  0.0230 -0.6410 -0.2061
   62CHL1  H19A 5735   5.022   6.558   3.113  0.4693 -0.4390 -1.2689
   62CHL1  H19B 5736   4.915   6.594   2.965 -0.7424 -1.8429 -0.3944
   62CHL1  H19C 5737   4.872   6.667   3.117  2.9793  0.4847  0.9158
   62CHL1    C1 5738   4.895   6.318   3.072  0.4249  0.2409  0.4810
   62CHL1   H1A 5739   5.000   6.303   3.108  0.6886  1.3748  0.2296
   62CHL1   H1B 5740   4.837   6.235   3.117  0.2294 -0.5740 -1.2016
   62CHL1    C2 5741   4.888   6.294   2.921 -0.2278 -0.6784 -0.4172
   62CHL1   H2A 5742   4.939   6.197   2.900  0.5299 -0.6330  1.0841
   62CHL1   H2B 5743   4.959   6.363   2.870 -0.2504 -0.8404 -0.6735
   62CHL1   C20 5744   4.827   6.601   3.807  0.4347  0.4635 -0.0477
   62CHL1   H20 5745   4.864   6.702   3.780 -0.7571  0.6356 -1.1247
   62CHL1   C21 5746   4.943   6.505   3.828 -0.2669 -0.1378 -0.0539
   62CHL1  H21A 5747   4.900   6.410   3.866 -0.2395 -1.4715 -3.0803
   62CHL1  H21B 5748   5.021   6.549   3.894 -0.0311  1.6376 -1.4166
   62CHL1  H21C 5749   4.991   6.477   3.732 -0.7446  0.4214 -0.4707
   62CHL1   C22 5750   4.753   6.599   3.942 -0.4341  0.1695 -0.8592
   62CHL1  H22A 5751   4.681   6.681   3.921 -0.4914  0.4467  0.3449
   62CHL1  H22B 5752   4.701   6.502   3.948  0.3271 -0.1877  0.1914
   62CHL1   C23 5753   4.846   6.620   4.075 -0.5953  0.2407  1.0408
   62CHL1  H23A 5754   4.905   6.525   4.078 -2.0967 -1.1354 -3.8390
   62CHL1  H23B 5755   4.904   6.707   4.038  0.0020 -0.3468  0.5559
   62CHL1   C24 5756   4.784   6.653   4.214 -0.8024  1.1894  0.8168
   62CHL1  H24A 5757   4.720   6.743   4.202 -2.0372  0.1594 -0.8099
   62CHL1  H24B 5758   4.715   6.570   4.243  0.9363  0.2667  2.4846
   62CHL1   C25 5759   4.885   6.672   4.322 -0.0430 -0.1310  0.0260
   62CHL1   H25 5760   4.957   6.751   4.293 -0.0673 -0.9074 -2.3704
   62CHL1   C26 5761   4.816   6.703   4.453  0.4026  0.3496 -0.1080
   62CHL1  H26A 5762   4.753   6.617   4.483  2.6526 -0.8187  1.5260
   62CHL1  H26B 5763   4.888   6.713   4.537  0.0849 -1.8670  0.4797
   62CHL1  H26C 5764   4.745   6.789   4.447  0.1285  0.1582  0.3615
   62CHL1   C27 5765   4.979   6.552   4.346  0.1838  0.1744 -0.3324
   62CHL1  H27A 5766   4.910   6.472   4.380 -0.3687  1.0602  0.6868
   62CHL1  H27B 5767   5.035   6.512   4.258 -0.3602 -0.5730 -0.3431
   62CHL1  H27C 5768   5.046   6.567   4.433  0.1262 -0.0299 -0.2519
   63CHL1    C3 5769   1.826   3.311   2.959  0.1529  0.1610 -0.3354
   63CHL1    H3 5770   1.934   3.300   2.984 -0.1139  0.6847  1.1284
   63CHL1    O3 5771   1.814   3.298   2.821 -0.1787  0.1104  0.4641
   63CHL1   H3' 5772   1.757   3.222   2.804 -3.1903  1.8890  1.7463
   63CHL1    C4 5773   1.752   3.198   3.028  0.3373 -0.3195 -0.4510
   63CHL1   H4A 5774   1.647   3.199   2.990  0.0122 -1.4409  0.3632
   63CHL1   H4B 5775   1.789   3.100   2.990 -0.8286 -1.1040  0.3611
   63CHL1    C5 5776   1.752   3.209   3.186 -0.3659  0.5046  0.1640
   63CHL1    C6 5777   1.801   3.102   3.259  0.0283  0.5800 -0.3966
   63CHL1    H6 5778   1.847   3.012   3.217 -1.0008  0.0434 -0.4027
   63CHL1    C7 5779   1.787   3.100   3.406 -0.5283 -0.2284 -0.2939
   63CHL1   H7A 5780   1.744   3.003   3.438  0.2146 -0.3038  0.5197
   63CHL1   H7B 5781   1.886   3.116   3.454 -2.0497  0.8770  2.7432
   63CHL1    C8 5782   1.699   3.222   3.457  0.0439  0.3788  0.0607
   63CHL1    H8 5783   1.596   3.184   3.441  0.8158 -2.3618  0.9825
   63CHL1   C14 5784   1.739   3.251   3.603  0.1408  0.1075  0.1313
   63CHL1   H14 5785   1.845   3.285   3.603  0.6765 -1.4417  0.7628
   63CHL1   C15 5786   1.737   3.121   3.696 -0.3262  0.1342 -0.2105
   63CHL1  H15A 5787   1.652   3.059   3.661  0.0969  0.1603 -1.3229
   63CHL1  H15B 5788   1.824   3.052   3.690  0.3615  0.8478  1.0898
   63CHL1   C16 5789   1.720   3.176   3.839 -0.6834 -0.0417  0.3200
   63CHL1  H16A 5790   1.633   3.124   3.884  0.8045 -1.3186  1.8748
   63CHL1  H16B 5791   1.812   3.146   3.894  0.6753 -0.5835 -2.0721
   63CHL1   C17 5792   1.706   3.330   3.815  0.8287  0.4297  0.1133
   63CHL1   H17 5793   1.812   3.362   3.821  0.4607  1.4147  3.6823
   63CHL1   C13 5794   1.647   3.357   3.673 -0.8768  0.9726 -0.0907
   63CHL1   C18 5795   1.501   3.310   3.668 -0.3362 -0.2358  0.2667
   63CHL1  H18A 5796   1.451   3.408   3.684 -0.9567 -0.5804  0.4375
   63CHL1  H18B 5797   1.490   3.263   3.568  1.0038 -2.1561  0.9668
   63CHL1  H18C 5798   1.481   3.235   3.747 -0.5014  0.0849  0.5325
   63CHL1   C12 5799   1.677   3.485   3.600 -0.3763 -1.0758  0.0758
   63CHL1  H12A 5800   1.615   3.569   3.638 -0.3415  0.8418 -3.7094
   63CHL1  H12B 5801   1.780   3.522   3.622  0.2614 -3.0953  0.7994
   63CHL1   C11 5802   1.646   3.471   3.451  0.3687 -0.4786 -0.3924
   63CHL1  H11A 5803   1.539   3.440   3.442  0.3364 -0.2507 -0.8097
   63CHL1  H11B 5804   1.661   3.564   3.394 -0.7727  0.4486  0.7542
   63CHL1    C9 5805   1.721   3.357   3.384 -0.9219  0.1669 -0.0104
   63CHL1    H9 5806   1.827   3.385   3.402 -0.9410 -0.6291  1.5354
   63CHL1   C10 5807   1.698   3.344   3.229 -0.4628  0.3696 -0.1252
   63CHL1   C19 5808   1.545   3.346   3.199  0.3169  0.3280  0.3928
   63CHL1  H19A 5809   1.536   3.337   3.089  2.7203 -0.9774  0.2279
   63CHL1  H19B 5810   1.493   3.256   3.237  0.2017  0.4090  0.4286
   63CHL1  H19C 5811   1.504   3.445   3.230  1.3572  0.9005 -0.0174
   63CHL1    C1 5812   1.769   3.462   3.160 -0.1887  0.1984  1.0820
   63CHL1   H1A 5813   1.726   3.564   3.174  1.9451  1.4427 -0.7767
   63CHL1   H1B 5814   1.871   3.471   3.203 -1.2659  1.6936  3.5737
   63CHL1    C2 5815   1.777   3.446   3.007 -0.7218 -0.5349  0.0267
   63CHL1   H2A 5816   1.851   3.519   2.969 -0.9155  0.4636  1.5149
   63CHL1   H2B 5817   1.678   3.454   2.958  0.4247  1.5988 -2.1850
   63CHL1   C20 5818   1.634   3.393   3.934  0.2931 -0.2105  0.5449
   63CHL1   H20 5819   1.527   3.366   3.933 -0.1116  1.2993 -1.2866
   63CHL1   C21 5820   1.644   3.543   3.919 -0.3316 -0.5675 -0.3470
   63CHL1  H21A 5821   1.572   3.571   3.840 -0.6336  2.9565  1.0125
   63CHL1  H21B 5822   1.749   3.569   3.898 -0.7875  2.2390  0.4317
   63CHL1  H21C 5823   1.619   3.590   4.017  1.3922  1.3950 -0.7725
   63CHL1   C22 5824   1.686   3.354   4.072 -0.3836 -0.0626  0.5362
   63CHL1  H22A 5825   1.701   3.245   4.087  0.1217 -0.3258 -1.5398
   63CHL1  H22B 5826   1.784   3.405   4.082 -0.2598  0.6046 -2.7665
   63CHL1   C23 5827   1.589   3.398   4.181  0.4710 -0.7814  0.5381
   63CHL1  H23A 5828   1.550   3.501   4.178  1.7877 -0.2793 -1.5689
   63CHL1  H23B 5829   1.495   3.339   4.189 -0.4947  0.7349  0.5860
   63CHL1   C24 5830   1.661   3.396   4.306 -0.6796 -0.2393 -0.3415
   63CHL1  H24A 5831   1.724   3.305   4.316  2.6556  1.7262 -1.9250
   63CHL1  H24B 5832   1.728   3.484   4.309 -1.3726  0.4013 -2.1607
   63CHL1   C25 5833   1.573   3.398   4.443 -0.5012  0.5478 -0.1167
   63CHL1   H25 5834   1.515   3.303   4.442  1.1339 -0.5003 -2.1220
   63CHL1   C26 5835   1.671   3.411   4.566  0.0868  0.0762 -0.6558
   63CHL1  H26A 5836   1.614   3.416   4.662  1.2887  0.9347  0.0335
   63CHL1  H26B 5837   1.733   3.320   4.565 -0.2517 -0.1617 -0.4316
   63CHL1  H26C 5838   1.741   3.497   4.562  1.3243 -0.8590  0.1539
   63CHL1   C27 5839   1.481   3.517   4.453  0.0161 -0.6065  0.4530
   63CHL1  H27A 5840   1.410   3.527   4.368 -2.4890  0.1805  2.5294
   63CHL1  H27B 5841   1.416   3.503   4.542 -1.6309 -0.4714 -0.6821
   63CHL1  H27C 5842   1.536   3.612   4.474  0.6220 -0.9611  0.4839
   64CHL1    C3 5843   5.936   2.163   2.967  0.3492  0.2641  0.0678
   64CHL1    H3 5844   5.853   2.091   2.950  0.2887  0.9123 -2.8465
   64CHL1    O3 5845   5.976   2.198   2.832  0.8332 -0.4298 -0.2124
   64CHL1   H3' 5846   6.024   2.122   2.800 -1.0962 -0.5858 -3.1106
   64CHL1    C4 5847   5.906   2.289   3.046 -0.1352  0.3368  0.3297
   64CHL1   H4A 5848   5.991   2.360   3.039 -0.3020  0.4427 -0.8477
   64CHL1   H4B 5849   5.828   2.343   2.990 -0.1656 -2.6821 -2.9516
   64CHL1    C5 5850   5.875   2.265   3.193 -0.7086  0.3725  0.2233
   64CHL1    C6 5851   5.757   2.295   3.248  0.1423  0.8608 -0.7627
   64CHL1    H6 5852   5.677   2.342   3.189  1.1152  3.2371 -0.3130
   64CHL1    C7 5853   5.737   2.259   3.394 -0.3818 -0.0890 -0.1489
   64CHL1   H7A 5854   5.680   2.346   3.434 -1.8387 -0.0341 -2.1989
   64CHL1   H7B 5855   5.675   2.166   3.402 -1.5831  0.7977  1.7698
   64CHL1    C8 5856   5.867   2.242   3.473  0.5424 -0.3306 -0.2803
   64CHL1    H8 5857   5.908   2.345   3.478 -0.9608  0.3323 -0.8720
   64CHL1   C14 5858   5.832   2.197   3.609  0.1816  0.1099  0.1040
   64CHL1   H14 5859   5.803   2.090   3.600  1.8716 -0.3188 -0.6573
   64CHL1   C15 5860   5.717   2.272   3.691 -0.5031 -0.2225  0.4028
   64CHL1  H15A 5861   5.723   2.382   3.684 -2.4348 -0.0633  0.6058
   64CHL1  H15B 5862   5.615   2.251   3.651 -0.8524 -1.0709  1.6840
   64CHL1   C16 5863   5.734   2.229   3.836 -0.2696 -0.0380  0.4059
   64CHL1  H16A 5864   5.757   2.322   3.891 -0.8003 -0.4637  1.3717
   64CHL1  H16B 5865   5.656   2.169   3.887 -0.3555  1.7623  2.5211
   64CHL1   C17 5866   5.866   2.149   3.835 -0.0530  0.1749 -0.5490
   64CHL1   H17 5867   5.831   2.044   3.825  0.7290 -0.2481  0.8823
   64CHL1   C13 5868   5.948   2.183   3.711 -0.6895  0.5412  0.6763
   64CHL1   C18 5869   6.013   2.324   3.723  0.5732 -0.6925  0.1695
   64CHL1  H18A 5870   5.936   2.397   3.753  0.8715  0.0136 -0.7363
   64CHL1  H18B 5871   6.093   2.319   3.800  0.8262  0.5726  0.0108
   64CHL1  H18C 5872   6.051   2.365   3.627  2.1928  1.1257  1.5124
   64CHL1   C12 5873   6.043   2.073   3.648 -1.3641  0.0417 -0.2563
   64CHL1  H12A 5874   6.134   2.075   3.711 -1.6103  2.1294  0.0951
   64CHL1  H12B 5875   5.998   1.972   3.654 -1.9070  0.3795  2.0000
   64CHL1   C11 5876   6.085   2.104   3.495 -0.7891 -0.6999 -0.6243
   64CHL1  H11A 5877   6.134   2.203   3.501 -0.5649 -0.8119 -0.5824
   64CHL1  H11B 5878   6.161   2.034   3.456  1.0508  2.1388 -2.4833
   64CHL1    C9 5879   5.956   2.137   3.404 -0.3460 -0.0019  0.0740
   64CHL1    H9 5880   5.908   2.036   3.399  1.0414 -0.6620 -0.5745
   64CHL1   C10 5881   5.988   2.188   3.261 -0.0026  0.0745 -0.4466
   64CHL1   C19 5882   6.107   2.288   3.263  0.5040  0.3433  0.1561
   64CHL1  H19A 5883   6.202   2.232   3.257  0.5774  0.3130  1.3908
   64CHL1  H19B 5884   6.116   2.372   3.190  1.0269  1.6712  1.6769
   64CHL1  H19C 5885   6.111   2.353   3.353  1.0548  0.4256  0.0739
   64CHL1    C1 5886   6.025   2.062   3.175 -0.4950 -0.5404  0.1084
   64CHL1   H1A 5887   6.117   2.017   3.217 -0.4390  0.4099  1.0508
   64CHL1   H1B 5888   5.944   1.988   3.159 -1.4262  0.6683 -0.9170
   64CHL1    C2 5889   6.059   2.100   3.028  0.3158 -0.1880  0.4839
   64CHL1   H2A 5890   6.102   2.010   2.978  0.7011 -1.0076  2.2035
   64CHL1   H2B 5891   6.141   2.174   3.027 -1.7038  2.2177  1.4757
   64CHL1   C20 5892   5.915   2.152   3.982 -0.0506  0.4945 -0.0492
   64CHL1   H20 5893   5.935   2.256   4.013 -0.3366  0.2807  0.8869
   64CHL1   C21 5894   6.035   2.061   3.988 -0.2101  0.5982 -0.6142
   64CHL1  H21A 5895   6.052   2.044   4.096 -1.1877  1.0831 -0.3688
   64CHL1  H21B 5896   6.124   2.101   3.935  0.1721 -1.2969 -1.5037
   64CHL1  H21C 5897   6.006   1.961   3.947 -2.1788 -0.0921  2.1892
   64CHL1   C22 5898   5.813   2.096   4.088  0.4823 -0.1592  0.2966
   64CHL1  H22A 5899   5.711   2.132   4.066 -0.4432 -1.8711  1.5152
   64CHL1  H22B 5900   5.818   1.985   4.085  0.9084 -0.1462  0.3818
   64CHL1   C23 5901   5.847   2.149   4.227 -0.0831 -0.3413  0.2815
   64CHL1  H23A 5902   5.935   2.094   4.268  1.5543  0.1292 -2.3441
   64CHL1  H23B 5903   5.872   2.257   4.226  0.7249 -0.4884  1.5149
   64CHL1   C24 5904   5.744   2.130   4.344 -0.0958  0.3017  0.5311
   64CHL1  H24A 5905   5.651   2.186   4.324 -1.4692 -1.4358  1.7815
   64CHL1  H24B 5906   5.714   2.024   4.350  3.9872 -1.0340  0.5857
   64CHL1   C25 5907   5.800   2.175   4.482 -0.2681 -0.7456 -0.2887
   64CHL1   H25 5908   5.911   2.170   4.471 -0.4240 -1.3659 -1.7522
   64CHL1   C26 5909   5.765   2.321   4.509 -0.5749  0.6222 -0.7738
   64CHL1  H26A 5910   5.655   2.323   4.519 -0.7343  4.3764 -1.8059
   64CHL1  H26B 5911   5.799   2.362   4.606  0.3903  0.7551 -1.1539
   64CHL1  H26C 5912   5.807   2.386   4.429  0.4520  0.1123 -0.6648
   64CHL1   C27 5913   5.753   2.086   4.597 -0.7215 -0.1807 -0.1726
   64CHL1  H27A 5914   5.781   1.980   4.579 -2.7639 -0.9741  0.8732
   64CHL1  H27B 5915   5.801   2.119   4.691 -0.0055 -0.0625 -0.5719
   64CHL1  H27C 5916   5.641   2.086   4.595 -0.8109 -2.6162 -2.7543
   65CHL1    C3 5917   5.451   6.544   2.910  0.6430  0.9780  0.5632
   65CHL1    H3 5918   5.514   6.630   2.942  0.8620  0.0791  2.7474
   65CHL1    O3 5919   5.444   6.516   2.773 -0.2920  0.5694  0.0672
   65CHL1   H3' 5920   5.492   6.433   2.768 -0.9522  0.1675  0.2795
   65CHL1    C4 5921   5.510   6.416   2.981  0.0305 -0.4776 -0.2316
   65CHL1   H4A 5922   5.444   6.330   2.958 -1.6585  1.0097 -1.2891
   65CHL1   H4B 5923   5.610   6.397   2.934  0.2697  0.9367 -0.3410
   65CHL1    C5 5924   5.534   6.436   3.130  0.1548 -0.2255  0.6141
   65CHL1    C6 5925   5.656   6.438   3.191 -0.6456  0.6940  0.1880
   65CHL1    H6 5926   5.742   6.405   3.132 -0.9334  0.3735 -0.0588
   65CHL1    C7 5927   5.672   6.450   3.337 -0.9015 -0.1256  0.0861
   65CHL1   H7A 5928   5.759   6.384   3.361 -0.7387 -0.0036 -0.1641
   65CHL1   H7B 5929   5.707   6.553   3.360  1.2613 -0.5800 -0.8725
   65CHL1    C8 5930   5.535   6.418   3.413  0.2615  0.8202  0.6953
   65CHL1    H8 5931   5.513   6.310   3.425  0.1560  0.7986  0.3248
   65CHL1   C14 5932   5.545   6.467   3.555  0.5555 -0.1758 -0.6798
   65CHL1   H14 5933   5.559   6.578   3.552  2.0865 -0.3692 -1.7145
   65CHL1   C15 5934   5.652   6.405   3.641 -0.0655  0.4271 -1.0709
   65CHL1  H15A 5935   5.660   6.294   3.631 -0.7064  0.1066  1.4127
   65CHL1  H15B 5936   5.745   6.451   3.603 -0.2408  2.2425  0.5690
   65CHL1   C16 5937   5.611   6.427   3.789  0.0204  0.0509  0.3448
   65CHL1  H16A 5938   5.591   6.327   3.833  1.2393 -2.1115 -3.5574
   65CHL1  H16B 5939   5.697   6.471   3.845  0.6251 -2.4626  1.5048
   65CHL1   C17 5940   5.476   6.503   3.782  0.2350  0.1125  0.1947
   65CHL1   H17 5941   5.499   6.611   3.781  0.8719 -0.0006  1.0809
   65CHL1   C13 5942   5.413   6.462   3.645 -0.9351  0.5221  0.8484
   65CHL1   C18 5943   5.348   6.317   3.655 -0.0715  0.1237 -0.0000
   65CHL1  H18A 5944   5.411   6.245   3.713  0.7193  0.4076 -0.4912
   65CHL1  H18B 5945   5.247   6.327   3.699  0.0711  3.6302 -0.2377
   65CHL1  H18C 5946   5.333   6.277   3.552 -1.0118  3.0336 -1.0895
   65CHL1   C12 5947   5.311   6.552   3.577 -0.0035 -0.0247 -0.2304
   65CHL1  H12A 5948   5.214   6.532   3.626 -0.1323  0.2972 -0.3538
   65CHL1  H12B 5949   5.350   6.656   3.591 -2.2142  0.6444  1.5451
   65CHL1   C11 5950   5.293   6.525   3.430  0.1778 -0.2473 -0.2093
   65CHL1  H11A 5951   5.247   6.424   3.428 -0.4069  0.0097 -0.0929
   65CHL1  H11B 5952   5.220   6.597   3.387 -0.0117 -0.1516  0.2653
   65CHL1    C9 5953   5.425   6.505   3.342  0.3712  0.6707  0.3552
   65CHL1    H9 5954   5.466   6.608   3.334 -0.7053  1.0901  0.0639
   65CHL1   C10 5955   5.401   6.453   3.200  0.3656  0.0113 -0.1293
   65CHL1   C19 5956   5.316   6.319   3.204  0.5366 -0.3292 -0.3288
   65CHL1  H19A 5957   5.310   6.276   3.102  0.9748 -0.5284 -0.2759
   65CHL1  H19B 5958   5.355   6.238   3.270 -0.6850 -0.2332  0.5444
   65CHL1  H19C 5959   5.210   6.330   3.235  1.2635  0.6776  2.0415
   65CHL1    C1 5960   5.327   6.570   3.128  0.9550 -0.0256 -0.2173
   65CHL1   H1A 5961   5.228   6.576   3.178  0.8949  0.2408 -0.3650
   65CHL1   H1B 5962   5.391   6.660   3.144  1.5108 -0.0881 -1.9202
   65CHL1    C2 5963   5.312   6.554   2.977 -0.4860 -0.4642 -0.1404
   65CHL1   H2A 5964   5.247   6.633   2.933 -1.8032 -1.6626 -0.4166
   65CHL1   H2B 5965   5.265   6.455   2.958  0.4581 -0.9234 -0.1511
   65CHL1   C20 5966   5.385   6.492   3.904 -0.4617  0.1040  0.0532
   65CHL1   H20 5967   5.316   6.406   3.892  0.2917 -0.4413 -0.4908
   65CHL1   C21 5968   5.298   6.615   3.915 -0.2880 -0.7366  0.2696
   65CHL1  H21A 5969   5.251   6.611   3.815  0.0008  2.5433 -0.1175
   65CHL1  H21B 5970   5.359   6.707   3.923 -0.3676 -0.6580 -0.0125
   65CHL1  H21C 5971   5.218   6.620   3.992 -0.8409  1.7948 -0.3803
   65CHL1   C22 5972   5.473   6.478   4.033  0.3382 -0.2430  0.6022
   65CHL1  H22A 5973   5.534   6.385   4.025 -0.9888 -1.0555 -0.3984
   65CHL1  H22B 5974   5.543   6.562   4.051  0.5811 -0.5054  0.9027
   65CHL1   C23 5975   5.395   6.459   4.164 -0.0992  0.5165 -0.2420
   65CHL1  H23A 5976   5.325   6.541   4.191 -1.1877 -0.7985  1.0995
   65CHL1  H23B 5977   5.341   6.362   4.155  0.3371  0.3431 -1.0560
   65CHL1   C24 5978   5.496   6.447   4.280 -0.3431 -0.6977 -0.5968
   65CHL1  H24A 5979   5.563   6.359   4.270  0.1712 -0.4886  0.8263
   65CHL1  H24B 5980   5.543   6.547   4.291  2.0199 -1.7659 -0.4160
   65CHL1   C25 5981   5.430   6.415   4.421  0.4841  0.1300  0.4521
   65CHL1   H25 5982   5.359   6.329   4.410 -2.4205  1.9910  2.9117
   65CHL1   C26 5983   5.534   6.380   4.528 -0.0899  0.0423  0.3915
   65CHL1  H26A 5984   5.598   6.468   4.549  1.7195 -0.6212 -1.8697
   65CHL1  H26B 5985   5.481   6.342   4.618 -2.3563 -1.6741 -1.5449
   65CHL1  H26C 5986   5.611   6.307   4.493  0.1309  0.5647 -0.2196
   65CHL1   C27 5987   5.336   6.512   4.472  0.0037 -0.1486  0.2260
   65CHL1  H27A 5988   5.385   6.612   4.474  1.7757 -0.9891  0.0885
   65CHL1  H27B 5989   5.251   6.518   4.400  0.3824 -0.2292 -0.2258
   65CHL1  H27C 5990   5.294   6.496   4.574  0.1174  3.5277  1.0167
   66CHL1    C3 5991   2.085   0.800   2.738 -0.2152 -0.0970  0.2135
   66CHL1    H3 5992   2.169   0.871   2.753 -2.5457  3.0051 -0.3471
   66CHL1    O3 5993   2.053   0.801   2.600 -0.5017 -0.2532 -0.0203
   66CHL1   H3' 5994   2.006   0.717   2.590  0.3138 -1.1548  2.8099
   66CHL1    C4 5995   2.128   0.663   2.778 -0.5816  0.1942  0.1155
   66CHL1   H4A 5996   2.049   0.589   2.754 -0.9030  0.7875 -0.7257
   66CHL1   H4B 5997   2.211   0.631   2.711 -1.0444  0.9796 -0.8603
   66CHL1    C5 5998   2.168   0.645   2.923 -0.8760 -0.6737 -0.2823
   66CHL1    C6 5999   2.291   0.594   2.948  0.1825  0.1249 -0.0030
   66CHL1    H6 6000   2.357   0.555   2.869 -0.2117  0.3419 -0.4435
   66CHL1    C7 6001   2.333   0.569   3.088 -0.1056  0.5759 -0.1692
   66CHL1   H7A 6002   2.371   0.464   3.088 -4.3936 -1.1910  1.3110
   66CHL1   H7B 6003   2.416   0.632   3.126  0.5235 -0.3494  0.0264
   66CHL1    C8 6004   2.220   0.575   3.190 -0.4349  0.0101  0.2232
   66CHL1    H8 6005   2.157   0.483   3.183 -0.9189  0.3845 -0.5093
   66CHL1   C14 6006   2.278   0.578   3.330  0.8956 -0.7273 -0.0779
   66CHL1   H14 6007   2.338   0.670   3.340 -1.7967  1.3660 -1.7687
   66CHL1   C15 6008   2.366   0.458   3.383  0.3914  0.5589  0.0276
   66CHL1  H15A 6009   2.319   0.373   3.330  2.2018  0.2847 -1.2635
   66CHL1  H15B 6010   2.468   0.477   3.343  0.4703  0.2807  0.0960
   66CHL1   C16 6011   2.353   0.469   3.532 -0.1004  0.4696  0.4672
   66CHL1  H16A 6012   2.324   0.371   3.577 -0.8092  0.9581  1.0813
   66CHL1  H16B 6013   2.455   0.490   3.569 -0.1688 -0.1687  1.0432
   66CHL1   C17 6014   2.253   0.586   3.564 -0.3876  0.3185  0.4072
   66CHL1   H17 6015   2.308   0.682   3.559  0.6123 -0.2784 -0.2138
   66CHL1   C13 6016   2.165   0.587   3.437 -0.4157 -0.4559 -0.1727
   66CHL1   C18 6017   2.073   0.461   3.440  0.2700 -0.3457 -0.4068
   66CHL1  H18A 6018   2.028   0.435   3.342  1.6031  1.3353 -1.5365
   66CHL1  H18B 6019   2.131   0.374   3.477  1.3223 -0.5435 -2.3878
   66CHL1  H18C 6020   1.985   0.480   3.504  1.0694  0.8408  0.3918
   66CHL1   C12 6021   2.090   0.720   3.413 -0.3612  0.4369  0.1459
   66CHL1  H12A 6022   2.011   0.731   3.491 -2.4396  0.5634 -1.8766
   66CHL1  H12B 6023   2.164   0.803   3.415 -0.3171  0.5785 -2.9956
   66CHL1   C11 6024   2.029   0.730   3.277  0.0062 -0.0929  1.1114
   66CHL1  H11A 6025   1.945   0.658   3.283 -1.7619  1.7251 -0.5908
   66CHL1  H11B 6026   1.985   0.829   3.255 -1.6495 -0.5983  2.0300
   66CHL1    C9 6027   2.131   0.693   3.160  0.0744 -0.5584 -0.2409
   66CHL1    H9 6028   2.188   0.788   3.149  0.5106 -0.8512 -0.5334
   66CHL1   C10 6029   2.069   0.687   3.022  0.1157  0.7337  0.4421
   66CHL1   C19 6030   1.956   0.581   3.025 -0.2636 -0.7031  0.6109
   66CHL1  H19A 6031   1.928   0.547   2.923 -2.0948  0.3342  0.7239
   66CHL1  H19B 6032   1.973   0.496   3.095  1.6237  2.2078  3.9505
   66CHL1  H19C 6033   1.861   0.626   3.062  0.3330  2.1736 -1.0522
   66CHL1    C1 6034   2.009   0.823   2.976  0.6766  0.9994  0.1169
   66CHL1   H1A 6035   1.918   0.855   3.032 -0.4386  1.5863 -1.9077
   66CHL1   H1B 6036   2.080   0.908   2.987 -0.6416  2.3565 -1.2583
   66CHL1    C2 6037   1.966   0.843   2.824  0.4678  0.0201  0.8155
   66CHL1   H2A 6038   1.933   0.948   2.810 -0.7925 -0.6840 -2.5979
   66CHL1   H2B 6039   1.873   0.785   2.807  0.7045 -0.8615  2.3674
   66CHL1   C20 6040   2.188   0.578   3.705  0.3223 -0.3418  0.1255
   66CHL1   H20 6041   2.084   0.613   3.690  0.2137 -1.5298 -2.4041
   66CHL1   C21 6042   2.265   0.665   3.802  0.5089 -0.3097 -0.1717
   66CHL1  H21A 6043   2.261   0.772   3.772  0.2017  0.0123  0.9587
   66CHL1  H21B 6044   2.373   0.643   3.815  0.9022  0.4907 -1.7222
   66CHL1  H21C 6045   2.217   0.671   3.902  1.0743 -0.8220  0.1343
   66CHL1   C22 6046   2.182   0.434   3.763 -0.4078  0.3061 -0.1895
   66CHL1  H22A 6047   2.121   0.380   3.687 -0.8705 -0.0208  0.4040
   66CHL1  H22B 6048   2.280   0.383   3.772 -0.0453  1.1764  0.9443
   66CHL1   C23 6049   2.114   0.428   3.903  0.2535  0.0684  0.2133
   66CHL1  H23A 6050   2.186   0.470   3.976  2.4251 -1.8345 -0.7062
   66CHL1  H23B 6051   2.022   0.489   3.904 -0.6576 -1.2313  2.5136
   66CHL1   C24 6052   2.080   0.287   3.963  0.4205  0.2382 -0.0479
   66CHL1  H24A 6053   2.150   0.213   3.918  0.6109  1.1622 -1.3323
   66CHL1  H24B 6054   2.105   0.293   4.071 -0.1657  1.4649  0.0377
   66CHL1   C25 6055   1.936   0.235   3.944  0.9097 -0.2978  0.2851
   66CHL1   H25 6056   1.951   0.127   3.924  1.9787 -0.1322  0.1586
   66CHL1   C26 6057   1.845   0.249   4.068  0.0892 -0.2034 -0.2894
   66CHL1  H26A 6058   1.890   0.206   4.160  1.3573  1.8381  0.1183
   66CHL1  H26B 6059   1.834   0.359   4.083 -2.4323 -0.3640 -0.6058
   66CHL1  H26C 6060   1.742   0.211   4.051 -1.1219  2.8964 -0.5474
   66CHL1   C27 6061   1.877   0.281   3.811  0.1463 -0.8796 -0.0309
   66CHL1  H27A 6062   1.872   0.392   3.805 -1.3157 -0.6898  3.1383
   66CHL1  H27B 6063   1.776   0.240   3.791 -0.4217 -0.2340  1.3642
   66CHL1  H27C 6064   1.931   0.243   3.721  1.4047  2.5346 -0.8847
   67CHL1    C3 6065   1.075   4.813   3.031 -0.3782 -0.3831 -0.2285
   67CHL1    H3 6066   0.980   4.762   3.059  0.5200 -1.2851  1.3063
   67CHL1    O3 6067   1.093   4.809   2.893 -0.2356  0.6481 -0.1625
   67CHL1   H3' 6068   1.178   4.852   2.880  0.3474  0.2787  2.0503
   67CHL1    C4 6069   1.068   4.958   3.066 -0.4349 -0.3445 -0.0681
   67CHL1   H4A 6070   1.150   5.014   3.017 -0.2557  2.2117  2.8566
   67CHL1   H4B 6071   0.971   4.990   3.022 -0.7123  0.2991  0.9833
   67CHL1    C5 6072   1.077   4.996   3.212  0.1019  0.2614  0.2074
   67CHL1    C6 6073   0.989   5.083   3.268 -0.0183 -0.5156 -0.5959
   67CHL1    H6 6074   0.903   5.120   3.211  0.2394  1.4411  0.2068
   67CHL1    C7 6075   1.008   5.132   3.409  0.2566 -0.1696  0.5793
   67CHL1   H7A 6076   0.991   5.242   3.405 -1.8790 -0.2677  3.5040
   67CHL1   H7B 6077   0.928   5.090   3.474 -0.0400 -1.2782 -0.4770
   67CHL1    C8 6078   1.156   5.101   3.458  0.7372  0.6128  0.0284
   67CHL1    H8 6079   1.236   5.157   3.404  1.6150 -0.0990  0.5648
   67CHL1   C14 6080   1.165   5.142   3.605 -0.5794  0.5166  0.5472
   67CHL1   H14 6081   1.076   5.089   3.645 -1.9794  0.6841 -2.1680
   67CHL1   C15 6082   1.144   5.289   3.630 -0.3016 -0.8162  0.3768
   67CHL1  H15A 6083   1.223   5.343   3.574  0.5762 -0.0701  2.2412
   67CHL1  H15B 6084   1.042   5.331   3.618 -0.5343 -1.8650 -1.7099
   67CHL1   C16 6085   1.199   5.309   3.771  1.1834 -0.3584 -0.1780
   67CHL1  H16A 6086   1.262   5.400   3.780 -1.3384  1.6062 -1.1599
   67CHL1  H16B 6087   1.106   5.332   3.827  0.6201 -1.0848 -0.7865
   67CHL1   C17 6088   1.258   5.167   3.806 -0.2225 -0.1893  0.3032
   67CHL1   H17 6089   1.167   5.113   3.842  0.4537 -1.5239  0.0942
   67CHL1   C13 6090   1.290   5.099   3.672 -0.5087  0.4737 -0.2434
   67CHL1   C18 6091   1.417   5.164   3.616 -0.5700  0.0605  0.2960
   67CHL1  H18A 6092   1.460   5.110   3.529 -0.2014  0.6703  0.0869
   67CHL1  H18B 6093   1.409   5.274   3.598  0.4656  0.2887  1.1431
   67CHL1  H18C 6094   1.499   5.165   3.691 -0.7372  0.0980  0.4790
   67CHL1   C12 6095   1.305   4.948   3.677 -0.0196  0.9180 -0.2858
   67CHL1  H12A 6096   1.406   4.919   3.713 -0.5290  1.7536  1.9557
   67CHL1  H12B 6097   1.227   4.893   3.733 -0.6847  1.9626 -0.1696
   67CHL1   C11 6098   1.303   4.894   3.533  0.6930 -0.4232  0.0449
   67CHL1  H11A 6099   1.406   4.909   3.494  0.3955  2.6450  0.2017
   67CHL1  H11B 6100   1.289   4.783   3.533  2.1683 -0.6370 -0.9125
   67CHL1    C9 6101   1.189   4.952   3.435  0.4158  0.1257  0.2173
   67CHL1    H9 6102   1.100   4.902   3.477  0.8465 -0.0418  0.9427
   67CHL1   C10 6103   1.192   4.924   3.284 -0.1064  0.3499  0.0227
   67CHL1   C19 6104   1.328   4.975   3.232  0.0050  0.1687 -0.2245
   67CHL1  H19A 6105   1.408   4.899   3.246 -1.5618 -1.8243 -1.5337
   67CHL1  H19B 6106   1.330   4.993   3.122  1.0383 -0.2829 -0.2964
   67CHL1  H19C 6107   1.352   5.067   3.290 -3.1698  0.2250  1.1649
   67CHL1    C1 6108   1.197   4.774   3.260 -0.1247 -0.5062  0.1079
   67CHL1   H1A 6109   1.285   4.727   3.309 -0.0500 -1.2410 -0.6950
   67CHL1   H1B 6110   1.107   4.731   3.309  0.2662 -0.5171  0.8191
   67CHL1    C2 6111   1.191   4.737   3.106  0.6750  0.2635 -0.3540
   67CHL1   H2A 6112   1.174   4.628   3.097 -0.0076 -0.0589  3.2422
   67CHL1   H2B 6113   1.286   4.753   3.051  1.4864  1.1666  1.2385
   67CHL1   C20 6114   1.357   5.174   3.926 -0.0764 -0.2756 -0.0236
   67CHL1   H20 6115   1.407   5.076   3.912  1.7106  0.6136 -0.0614
   67CHL1   C21 6116   1.273   5.169   4.053 -0.2229 -0.2745 -0.0408
   67CHL1  H21A 6117   1.344   5.173   4.139 -0.5396  1.1854  0.1802
   67CHL1  H21B 6118   1.207   5.080   4.053 -0.2494 -0.2623  0.8848
   67CHL1  H21C 6119   1.219   5.263   4.075  0.3179 -0.1470  0.7866
   67CHL1   C22 6120   1.471   5.280   3.926  0.2783 -0.0353 -0.2188
   67CHL1  H22A 6121   1.513   5.307   3.827 -1.7160  1.4697 -0.7267
   67CHL1  H22B 6122   1.431   5.375   3.967  2.6193  1.6860 -1.6544
   67CHL1   C23 6123   1.585   5.241   4.024  0.1024 -0.0367 -0.1395
   67CHL1  H23A 6124   1.545   5.263   4.125  0.0223 -0.1422 -0.1483
   67CHL1  H23B 6125   1.612   5.133   4.022  0.0400 -0.1250  2.0576
   67CHL1   C24 6126   1.712   5.328   4.001 -0.3670  0.2556 -0.0139
   67CHL1  H24A 6127   1.758   5.308   3.902 -2.5234  1.1096 -1.2725
   67CHL1  H24B 6128   1.678   5.434   4.004 -0.1069  0.3180  1.9122
   67CHL1   C25 6129   1.819   5.310   4.114  0.9372  0.6214 -0.1835
   67CHL1   H25 6130   1.841   5.201   4.119  1.6309  0.8016  1.2768
   67CHL1   C26 6131   1.943   5.379   4.082 -0.0459 -0.2910 -0.1114
   67CHL1  H26A 6132   1.950   5.490   4.089  0.9207 -0.3965  1.1110
   67CHL1  H26B 6133   2.023   5.355   4.156  1.0920  2.4860 -0.2971
   67CHL1  H26C 6134   1.985   5.339   3.988 -2.3305 -0.4835 -1.1107
   67CHL1   C27 6135   1.778   5.346   4.261 -0.0769  0.2049 -0.2929
   67CHL1  H27A 6136   1.775   5.457   4.256 -0.3085  0.1417 -3.0374
   67CHL1  H27B 6137   1.677   5.305   4.285 -1.3875  3.2970 -0.0428
   67CHL1  H27C 6138   1.854   5.309   4.333  1.4830  2.8990 -0.4365
   68CHL1    C3 6139   6.672   4.034   3.146 -0.4712 -0.7782 -0.1725
   68CHL1    H3 6140   6.573   3.988   3.168 -1.2339  0.1501 -1.4809
   68CHL1    O3 6141   6.687   4.042   3.010 -0.2842  0.3200 -0.5384
   68CHL1   H3' 6142   6.779   4.064   2.994 -0.0971  1.2382  1.5584
   68CHL1    C4 6143   6.687   4.174   3.207  0.0870 -0.2550  0.1856
   68CHL1   H4A 6144   6.768   4.233   3.160  0.2390  0.8894  1.8003
   68CHL1   H4B 6145   6.600   4.238   3.182 -0.4709  0.1239  2.8242
   68CHL1    C5 6146   6.702   4.192   3.353 -0.3779  0.0205 -0.1194
   68CHL1    C6 6147   6.614   4.266   3.422  0.9986 -0.3653 -0.0563
   68CHL1    H6 6148   6.538   4.325   3.368  1.4910  0.7445  0.4424
   68CHL1    C7 6149   6.614   4.280   3.570 -0.1914 -0.0219 -0.6151
   68CHL1   H7A 6150   6.621   4.383   3.611  1.2691 -0.7161  0.9690
   68CHL1   H7B 6151   6.522   4.232   3.610  2.3044 -1.3683  4.3138
   68CHL1    C8 6152   6.744   4.225   3.636 -0.0094  0.3487 -0.0463
   68CHL1    H8 6153   6.831   4.293   3.625  0.1674  0.5674  2.3193
   68CHL1   C14 6154   6.713   4.210   3.783 -0.1365  0.0331 -0.4120
   68CHL1   H14 6155   6.621   4.148   3.774 -0.9415  1.0058  0.6823
   68CHL1   C15 6156   6.682   4.334   3.866  0.1613  0.1441 -0.0958
   68CHL1  H15A 6157   6.745   4.423   3.846 -1.1988  0.9289 -0.9814
   68CHL1  H15B 6158   6.578   4.368   3.851  0.2931  2.2620  2.9540
   68CHL1   C16 6159   6.704   4.292   4.011 -0.1074 -0.0961 -0.0942
   68CHL1  H16A 6160   6.790   4.351   4.050 -1.3235  4.2486 -3.1246
   68CHL1  H16B 6161   6.617   4.315   4.076 -1.1099  2.0271 -2.0088
   68CHL1   C17 6162   6.741   4.137   4.001 -0.1396  0.2117 -0.1087
   68CHL1   H17 6163   6.648   4.077   3.992  0.3483 -0.4304 -1.1032
   68CHL1   C13 6164   6.813   4.132   3.867  0.2638 -0.5448  0.5463
   68CHL1   C18 6165   6.954   4.204   3.883 -0.1586  0.3347 -0.3179
   68CHL1  H18A 6166   7.028   4.140   3.936  0.5880  2.5533  1.4256
   68CHL1  H18B 6167   6.990   4.219   3.779  2.6921  0.1263  0.5576
   68CHL1  H18C 6168   6.961   4.304   3.931  0.6868  0.3560 -0.4558
   68CHL1   C12 6169   6.844   3.993   3.806 -0.0095 -1.5430 -0.2540
   68CHL1  H12A 6170   6.931   3.949   3.860  0.0692  0.3613  1.2671
   68CHL1  H12B 6171   6.762   3.919   3.823  0.9367 -2.1400  2.1830
   68CHL1   C11 6172   6.885   4.004   3.657  0.0663  0.2934 -1.2498
   68CHL1  H11A 6173   6.989   4.043   3.657  1.3298 -2.7594 -2.3184
   68CHL1  H11B 6174   6.903   3.905   3.610  0.1535 -0.0310 -0.5459
   68CHL1    C9 6175   6.784   4.084   3.571  0.1329 -0.1670  0.4778
   68CHL1    H9 6176   6.688   4.029   3.578  2.3480 -4.3043  1.2033
   68CHL1   C10 6177   6.804   4.098   3.421  0.1713  0.1553 -0.2425
   68CHL1   C19 6178   6.953   4.142   3.398 -0.3773  0.2799  0.5071
   68CHL1  H19A 6179   6.976   4.179   3.296  1.8202  0.5944  1.0584
   68CHL1  H19B 6180   6.992   4.211   3.476 -0.7514  0.9706  0.0924
   68CHL1  H19C 6181   7.016   4.052   3.416  2.7959  2.2428 -0.0159
   68CHL1    C1 6182   6.776   3.954   3.363 -0.3978 -0.7038 -0.1144
   68CHL1   H1A 6183   6.841   3.869   3.393 -0.2997 -1.9809 -3.5296
   68CHL1   H1B 6184   6.684   3.911   3.408 -0.3399  0.3218  1.0071
   68CHL1    C2 6185   6.781   3.945   3.209 -0.0564 -0.0415  0.2091
   68CHL1   H2A 6186   6.771   3.841   3.172 -2.2846  0.7221 -1.5417
   68CHL1   H2B 6187   6.879   3.986   3.175  0.1906 -2.1465 -1.8670
   68CHL1   C20 6188   6.806   4.084   4.133 -0.3368 -0.5514  0.3179
   68CHL1   H20 6189   6.904   4.135   4.146  0.1416 -0.6495 -2.3666
   68CHL1   C21 6190   6.815   3.924   4.124  0.0624  0.4046 -0.1485
   68CHL1  H21A 6191   6.821   3.886   4.228 -1.4767  1.1035  0.2203
   68CHL1  H21B 6192   6.902   3.900   4.058 -0.4092  0.1309 -0.6750
   68CHL1  H21C 6193   6.724   3.878   4.081  0.4617 -2.8227  2.1105
   68CHL1   C22 6194   6.726   4.129   4.264 -0.0503  0.0795  0.3304
   68CHL1  H22A 6195   6.706   4.238   4.274 -0.8127 -0.2364  2.7558
   68CHL1  H22B 6196   6.629   4.077   4.247 -0.7635  0.8695  1.8836
   68CHL1   C23 6197   6.786   4.067   4.397 -0.0997 -0.6323  0.5635
   68CHL1  H23A 6198   6.749   3.964   4.415  2.4237 -1.3556  2.1457
   68CHL1  H23B 6199   6.895   4.086   4.406 -0.5231  1.1157  3.6637
   68CHL1   C24 6200   6.729   4.142   4.517  0.3718  0.5508 -0.1383
   68CHL1  H24A 6201   6.741   4.251   4.500  0.4566  0.7163  0.9560
   68CHL1  H24B 6202   6.622   4.116   4.529  0.9878 -1.6222  1.2743
   68CHL1   C25 6203   6.804   4.102   4.644  1.4007 -0.3515  0.1383
   68CHL1   H25 6204   6.911   4.092   4.616  0.7332 -0.9712 -2.4767
   68CHL1   C26 6205   6.790   4.213   4.752 -0.2524  0.2315 -0.2387
   68CHL1  H26A 6206   6.855   4.201   4.841  1.7877  3.5104 -1.1011
   68CHL1  H26B 6207   6.824   4.304   4.697  1.1337  0.5843  1.1255
   68CHL1  H26C 6208   6.686   4.232   4.787 -0.9065  2.1938 -2.8972
   68CHL1   C27 6209   6.760   3.966   4.695 -0.0593 -0.6494 -0.0546
   68CHL1  H27A 6210   6.824   3.931   4.779  1.0887  0.3846 -0.4658
   68CHL1  H27B 6211   6.653   3.972   4.725 -1.1977  0.0112 -3.7550
   68CHL1  H27C 6212   6.756   3.894   4.611  0.8032  0.9700 -1.5607
   69CHL1    C3 6213   4.451   4.804   6.210 -0.5642 -0.2788 -0.2076
   69CHL1    H3 6214   4.558   4.826   6.228 -0.6504  0.4776 -0.5898
   69CHL1    O3 6215   4.381   4.805   6.336 -0.2503  0.7082  0.0910
   69CHL1   H3' 6216   4.292   4.782   6.310  0.2881 -2.7380  0.8661
   69CHL1    C4 6217   4.405   4.931   6.122  0.1144 -0.7468  0.0157
   69CHL1   H4A 6218   4.295   4.930   6.102 -0.6563 -0.3507  3.6465
   69CHL1   H4B 6219   4.424   5.013   6.194 -2.8250 -0.3986  0.5364
   69CHL1    C5 6220   4.484   4.950   5.991 -0.1081  0.3689  0.4446
   69CHL1    C6 6221   4.552   5.058   5.947 -0.0606  0.1520 -0.9504
   69CHL1    H6 6222   4.539   5.147   6.011  0.0624 -1.4836  1.4471
   69CHL1    C7 6223   4.623   5.076   5.816  0.5057 -0.3166  0.2891
   69CHL1   H7A 6224   4.595   5.171   5.764 -1.9792 -1.6062 -0.8800
   69CHL1   H7B 6225   4.734   5.085   5.827  1.6583 -1.8245 -6.1575
   69CHL1    C8 6226   4.593   4.959   5.719 -0.8327 -0.4666 -0.8851
   69CHL1    H8 6227   4.494   4.969   5.670 -0.1070 -0.5011 -2.4504
   69CHL1   C14 6228   4.691   4.950   5.599  0.2440 -0.3185 -1.0058
   69CHL1   H14 6229   4.792   4.942   5.643 -1.0699 -1.6493  2.0500
   69CHL1   C15 6230   4.688   5.076   5.510 -0.2210  0.8879 -0.2427
   69CHL1  H15A 6231   4.581   5.097   5.488  0.2322  0.8199 -2.7561
   69CHL1  H15B 6232   4.749   5.162   5.544 -3.1805  2.6235  1.1789
   69CHL1   C16 6233   4.743   5.019   5.374 -0.1199 -0.0831 -0.0313
   69CHL1  H16A 6234   4.677   5.045   5.288  1.7701 -0.5007 -1.6929
   69CHL1  H16B 6235   4.839   5.065   5.341  0.2398  0.5369  1.7606
   69CHL1   C17 6236   4.765   4.874   5.392  0.0272  0.0198 -0.6588
   69CHL1   H17 6237   4.866   4.863   5.437  0.0845 -1.0743 -1.0237
   69CHL1   C13 6238   4.667   4.836   5.498 -0.1356 -0.5916 -0.3111
   69CHL1   C18 6239   4.519   4.834   5.440 -0.4606  0.3171  0.0471
   69CHL1  H18A 6240   4.520   4.749   5.369  0.5743 -0.0894  0.5252
   69CHL1  H18B 6241   4.433   4.831   5.511 -1.4219  2.1893 -0.9646
   69CHL1  H18C 6242   4.501   4.926   5.380  0.9011  0.9041  0.4972
   69CHL1   C12 6243   4.698   4.704   5.571 -0.4042 -0.0423 -0.1296
   69CHL1  H12A 6244   4.693   4.618   5.500 -1.7391 -1.3992  1.5296
   69CHL1  H12B 6245   4.802   4.723   5.606 -0.6969  1.1730  0.1206
   69CHL1   C11 6246   4.611   4.692   5.699  0.6425  0.2424  0.5780
   69CHL1  H11A 6247   4.511   4.657   5.666  0.6096 -0.5426  1.4574
   69CHL1  H11B 6248   4.655   4.616   5.766  1.2497 -0.4413 -0.5832
   69CHL1    C9 6249   4.599   4.822   5.796  0.1855 -0.5509  0.2312
   69CHL1    H9 6250   4.700   4.819   5.844  0.2002 -0.7944  0.1859
   69CHL1   C10 6251   4.487   4.821   5.902 -0.2866  0.2951 -0.1257
   69CHL1   C19 6252   4.351   4.806   5.836 -0.3899 -0.6185  0.1984
   69CHL1  H19A 6253   4.273   4.818   5.914  0.2015  4.0616  0.3371
   69CHL1  H19B 6254   4.339   4.881   5.754  0.4440 -2.1824 -1.4370
   69CHL1  H19C 6255   4.335   4.706   5.791 -1.7913 -0.4526  0.2825
   69CHL1    C1 6256   4.515   4.696   5.992  0.3178 -0.1821 -0.0229
   69CHL1   H1A 6257   4.497   4.602   5.936  3.5633 -0.3790 -0.9608
   69CHL1   H1B 6258   4.620   4.704   6.028  0.6985 -2.0179 -0.6538
   69CHL1    C2 6259   4.438   4.681   6.126 -0.1298 -0.7038 -0.3728
   69CHL1   H2A 6260   4.467   4.589   6.182 -0.2556 -0.5575 -0.0647
   69CHL1   H2B 6261   4.331   4.667   6.099 -0.2775  0.1989 -0.2726
   69CHL1   C20 6262   4.779   4.793   5.263 -0.8960 -0.3282  0.2389
   69CHL1   H20 6263   4.742   4.689   5.279  0.1741 -0.7691 -0.0632
   69CHL1   C21 6264   4.932   4.786   5.240  0.8811 -0.3513  0.1614
   69CHL1  H21A 6265   4.953   4.746   5.138 -0.2096 -0.4730 -0.0268
   69CHL1  H21B 6266   4.976   4.726   5.323  0.9231 -0.8349 -0.2076
   69CHL1  H21C 6267   4.976   4.887   5.227 -1.6352  0.5745 -1.7797
   69CHL1   C22 6268   4.709   4.856   5.135 -0.1320  0.1252  1.7780
   69CHL1  H22A 6269   4.611   4.890   5.173  0.1847  1.6815  1.2619
   69CHL1  H22B 6270   4.752   4.947   5.087 -1.6682  0.9000  1.8163
   69CHL1   C23 6271   4.681   4.754   5.034 -0.6181 -0.2137  0.2496
   69CHL1  H23A 6272   4.780   4.739   4.987  0.0903 -2.8755  2.2783
   69CHL1  H23B 6273   4.642   4.660   5.080 -2.8102  0.8148  0.6430
   69CHL1   C24 6274   4.591   4.797   4.927  0.2008 -0.1282 -0.2510
   69CHL1  H24A 6275   4.492   4.816   4.974  0.5008 -0.4443  0.5231
   69CHL1  H24B 6276   4.627   4.892   4.882 -1.2902  0.5863 -0.0056
   69CHL1   C25 6277   4.586   4.702   4.809 -0.1175  0.5060 -0.0911
   69CHL1   H25 6278   4.680   4.709   4.751  0.1747  0.2943  0.3513
   69CHL1   C26 6279   4.551   4.552   4.840  0.2109 -0.0589 -0.4766
   69CHL1  H26A 6280   4.627   4.506   4.906 -0.0622 -0.9137 -0.7436
   69CHL1  H26B 6281   4.459   4.554   4.902  0.1571 -0.3731 -0.5444
   69CHL1  H26C 6282   4.534   4.497   4.745  0.9225 -0.1504 -0.5537
   69CHL1   C27 6283   4.463   4.746   4.721  0.5766 -0.0758 -0.4888
   69CHL1  H27A 6284   4.451   4.682   4.631  0.8139 -0.5610 -0.1748
   69CHL1  H27B 6285   4.367   4.732   4.774  0.0496 -0.7140 -1.5745
   69CHL1  H27C 6286   4.470   4.852   4.688  0.3265  0.3226  0.7042
   70CHL1    C3 6287   5.829   6.766   3.034 -0.4317 -0.2144 -0.2570
   70CHL1    H3 6288   5.755   6.683   3.045 -1.9108  1.1949  0.8487
   70CHL1    O3 6289   5.854   6.790   2.895  0.8812 -0.3695  0.2279
   70CHL1   H3' 6290   5.880   6.882   2.884  0.4865 -0.3825 -1.0326
   70CHL1    C4 6291   5.751   6.888   3.088 -0.0052  0.7764 -0.0165
   70CHL1   H4A 6292   5.802   6.980   3.051  0.8252 -0.5369 -2.3405
   70CHL1   H4B 6293   5.654   6.897   3.033  0.7547  1.5136 -1.2828
   70CHL1    C5 6294   5.728   6.886   3.232 -0.0368 -0.6204 -0.3700
   70CHL1    C6 6295   5.605   6.905   3.291 -0.2555 -0.8385  0.3259
   70CHL1    H6 6296   5.513   6.926   3.233  1.5782  0.9209 -2.1541
   70CHL1    C7 6297   5.585   6.910   3.444  0.3413  0.2269  0.5564
   70CHL1   H7A 6298   5.516   6.996   3.463 -0.2202  0.1522 -1.0180
   70CHL1   H7B 6299   5.521   6.820   3.459 -0.0898 -0.4383 -3.8345
   70CHL1    C8 6300   5.715   6.914   3.530 -0.4676 -0.3696 -0.3368
   70CHL1    H8 6301   5.745   7.021   3.529 -1.2985 -0.1161 -1.7095
   70CHL1   C14 6302   5.685   6.867   3.677  0.2968  0.0187 -0.0481
   70CHL1   H14 6303   5.660   6.759   3.667 -0.3970  0.3571 -3.1682
   70CHL1   C15 6304   5.562   6.934   3.748  0.0950 -0.2752 -0.7512
   70CHL1  H15A 6305   5.557   7.045   3.736 -1.6112 -0.5279 -3.1603
   70CHL1  H15B 6306   5.469   6.882   3.717 -1.3102 -0.0312  2.6142
   70CHL1   C16 6307   5.597   6.911   3.899 -0.4048 -0.0498  0.3906
   70CHL1  H16A 6308   5.608   7.013   3.943 -0.1882  0.2529 -0.3422
   70CHL1  H16B 6309   5.516   6.859   3.954  0.7104 -0.5389  1.6180
   70CHL1   C17 6310   5.729   6.832   3.912 -0.4664 -0.0151  0.0860
   70CHL1   H17 6311   5.708   6.724   3.900 -0.0401 -0.0233 -0.6063
   70CHL1   C13 6312   5.805   6.874   3.775 -0.4709  0.8970 -0.3089
   70CHL1   C18 6313   5.844   7.022   3.783 -0.7087  0.1928 -0.0664
   70CHL1  H18A 6314   5.769   7.097   3.814 -1.4354 -0.1179 -1.0414
   70CHL1  H18B 6315   5.913   7.037   3.870  0.9451  1.7610 -1.5609
   70CHL1  H18C 6316   5.902   7.061   3.697 -1.0843  3.1874  0.9230
   70CHL1   C12 6317   5.912   6.783   3.705 -0.5467 -0.0598 -0.1812
   70CHL1  H12A 6318   6.006   6.785   3.764  0.5212 -0.7641 -1.7984
   70CHL1  H12B 6319   5.859   6.685   3.704 -1.2774  0.2759  1.3418
   70CHL1   C11 6320   5.946   6.822   3.565  1.0233  0.2544  0.1889
   70CHL1  H11A 6321   5.996   6.921   3.564 -0.5817  1.1355  1.8906
   70CHL1  H11B 6322   6.007   6.738   3.526 -3.4012 -2.1059 -2.5233
   70CHL1    C9 6323   5.823   6.824   3.471  0.5011  0.0227  0.9174
   70CHL1    H9 6324   5.777   6.723   3.465 -0.2731  0.3248  1.6687
   70CHL1   C10 6325   5.856   6.858   3.320 -0.0640  0.0870  0.5000
   70CHL1   C19 6326   5.939   6.984   3.311 -0.6017  0.0882 -0.0616
   70CHL1  H19A 6327   6.040   6.967   3.353  0.7107  3.4277 -1.5229
   70CHL1  H19B 6328   5.951   7.023   3.208 -1.1174  1.7765  0.4853
   70CHL1  H19C 6329   5.895   7.070   3.367  0.4089  1.4044 -1.2097
   70CHL1    C1 6330   5.925   6.735   3.268 -0.0065 -0.1078  0.1819
   70CHL1   H1A 6331   6.024   6.715   3.315 -0.1558  0.4983  0.7643
   70CHL1   H1B 6332   5.863   6.643   3.276 -0.6072  0.0515 -2.1106
   70CHL1    C2 6333   5.958   6.733   3.110 -0.0717 -0.1941 -0.9101
   70CHL1   H2A 6334   6.014   6.640   3.084  1.8934  0.9559 -1.0057
   70CHL1   H2B 6335   6.028   6.818   3.094  0.8374 -0.8913 -0.7257
   70CHL1   C20 6336   5.810   6.856   4.039  0.1319 -0.7761 -0.0737
   70CHL1   H20 6337   5.850   6.959   4.050  0.6075 -1.2049  3.1898
   70CHL1   C21 6338   5.948   6.784   4.038  0.3738  0.0269  0.0902
   70CHL1  H21A 6339   5.931   6.674   4.032  0.7367 -0.2062  2.4709
   70CHL1  H21B 6340   5.990   6.802   4.139 -1.2191 -1.3540  1.0649
   70CHL1  H21C 6341   6.014   6.812   3.953 -0.5114 -1.6054 -1.1896
   70CHL1   C22 6342   5.730   6.832   4.170  0.2938 -0.4677  0.2069
   70CHL1  H22A 6343   5.642   6.900   4.176 -1.5282 -2.5331 -1.3016
   70CHL1  H22B 6344   5.678   6.733   4.169 -0.5715 -0.1781 -4.1608
   70CHL1   C23 6345   5.804   6.847   4.306 -0.5346 -0.3188 -0.0863
   70CHL1  H23A 6346   5.886   6.773   4.314 -0.5467 -0.9048 -3.7788
   70CHL1  H23B 6347   5.848   6.949   4.298 -0.0968 -0.6305 -2.6827
   70CHL1   C24 6348   5.716   6.838   4.425 -0.3377 -0.4584 -0.1158
   70CHL1  H24A 6349   5.629   6.906   4.411  0.6906  0.7139 -0.9823
   70CHL1  H24B 6350   5.666   6.739   4.434 -0.2816 -0.7154 -2.2218
   70CHL1   C25 6351   5.796   6.872   4.554 -0.0435  0.3420  0.9584
   70CHL1   H25 6352   5.895   6.822   4.552 -0.0925  0.2492  0.8828
   70CHL1   C26 6353   5.807   7.024   4.567 -0.0370 -0.4438 -0.5863
   70CHL1  H26A 6354   5.860   7.069   4.481  0.0378  1.9101  0.6109
   70CHL1  H26B 6355   5.707   7.071   4.577 -0.2952 -0.8907 -1.0713
   70CHL1  H26C 6356   5.865   7.049   4.659  2.6014 -1.3496 -1.8973
   70CHL1   C27 6357   5.714   6.811   4.672  0.0242 -0.4264  0.2766
   70CHL1  H27A 6358   5.713   6.700   4.683  0.5429 -0.3626  1.0966
   70CHL1  H27B 6359   5.763   6.841   4.768 -1.1670 -0.7417  0.9996
   70CHL1  H27C 6360   5.609   6.847   4.678  0.7837  2.2457 -1.1637
   71CHL1    C3 6361   4.408   5.360   3.020 -0.7589  0.0674  0.4005
   71CHL1    H3 6362   4.302   5.378   3.049 -1.2923 -0.4266 -1.1863
   71CHL1    O3 6363   4.418   5.372   2.880  0.0616  0.3271 -0.0573
   71CHL1   H3' 6364   4.424   5.466   2.862  0.7997  0.1037 -1.1543
   71CHL1    C4 6365   4.503   5.461   3.091  0.8456 -0.6526  0.3102
   71CHL1   H4A 6366   4.606   5.451   3.050 -0.2598  0.0977 -2.9366
   71CHL1   H4B 6367   4.479   5.565   3.060 -0.4915 -0.3100  2.3251
   71CHL1    C5 6368   4.499   5.436   3.240  0.1679  0.2163 -0.9038
   71CHL1    C6 6369   4.459   5.539   3.322  0.2997  0.3006  0.0141
   71CHL1    H6 6370   4.440   5.638   3.276 -2.7917 -0.2797 -0.2045
   71CHL1    C7 6371   4.443   5.532   3.471  0.1570 -0.2111  0.1894
   71CHL1   H7A 6372   4.474   5.627   3.519 -0.0750  0.6213 -1.2681
   71CHL1   H7B 6373   4.336   5.534   3.499  0.2763  0.9580  0.6036
   71CHL1    C8 6374   4.513   5.407   3.523 -0.2384 -0.2407 -0.1971
   71CHL1    H8 6375   4.623   5.427   3.519 -0.1183  0.2994  3.1055
   71CHL1   C14 6376   4.488   5.387   3.672 -0.0244 -0.5360 -0.6277
   71CHL1   H14 6377   4.377   5.382   3.684  0.0585  0.5951  0.8336
   71CHL1   C15 6378   4.532   5.495   3.766  0.3602 -0.5957  0.0336
   71CHL1  H15A 6379   4.641   5.501   3.745  1.0124 -2.4910  2.4662
   71CHL1  H15B 6380   4.470   5.587   3.758 -0.0985 -1.0020 -1.3417
   71CHL1   C16 6381   4.521   5.440   3.906  0.6933  0.3991  0.2098
   71CHL1  H16A 6382   4.616   5.470   3.956  0.6548  0.7889  0.0540
   71CHL1  H16B 6383   4.427   5.480   3.950  0.4148  3.3383 -2.6772
   71CHL1   C17 6384   4.502   5.276   3.882  0.0367  0.1998  0.5415
   71CHL1   H17 6385   4.392   5.268   3.883 -0.1372  2.1078  1.9242
   71CHL1   C13 6386   4.536   5.261   3.731  0.4846  0.4496  0.1108
   71CHL1   C18 6387   4.685   5.249   3.719 -0.3623  0.0586  0.1697
   71CHL1  H18A 6388   4.735   5.316   3.792 -0.3384 -1.5871  1.7268
   71CHL1  H18B 6389   4.718   5.148   3.750  0.4786  0.2593 -0.0408
   71CHL1  H18C 6390   4.732   5.273   3.621 -1.6341 -0.8058 -0.6728
   71CHL1   C12 6391   4.459   5.145   3.657  0.9143 -0.4284 -0.4356
   71CHL1  H12A 6392   4.485   5.046   3.701  2.7399  0.8521  1.6042
   71CHL1  H12B 6393   4.350   5.162   3.668  1.0404 -1.0955  2.7832
   71CHL1   C11 6394   4.499   5.149   3.509  0.3358 -0.6130  0.6846
   71CHL1  H11A 6395   4.605   5.119   3.493  0.3668  0.4691 -1.4540
   71CHL1  H11B 6396   4.437   5.075   3.455  0.7915  0.7470 -1.8731
   71CHL1    C9 6397   4.468   5.285   3.441  0.3078 -0.1389  0.3100
   71CHL1    H9 6398   4.358   5.291   3.450  0.4873  1.8049  2.0875
   71CHL1   C10 6399   4.515   5.297   3.292 -0.0770  0.5928 -0.1820
   71CHL1   C19 6400   4.668   5.256   3.287 -0.0276  0.2236  0.0889
   71CHL1  H19A 6401   4.680   5.147   3.304 -0.2463 -0.0522 -1.3971
   71CHL1  H19B 6402   4.716   5.281   3.190  1.9338  0.4480  1.0779
   71CHL1  H19C 6403   4.719   5.306   3.372 -2.2642 -0.3701  1.8790
   71CHL1    C1 6404   4.432   5.198   3.203  0.1871  0.1975  0.2905
   71CHL1   H1A 6405   4.446   5.094   3.238 -2.4340 -0.4219 -0.2839
   71CHL1   H1B 6406   4.327   5.225   3.229 -0.5696 -0.7181 -1.5882
   71CHL1    C2 6407   4.444   5.217   3.049  0.0768 -0.5121 -0.1613
   71CHL1   H2A 6408   4.378   5.147   2.993 -2.0440  0.5017  0.9455
   71CHL1   H2B 6409   4.552   5.194   3.034  0.5589  1.3761  0.1992
   71CHL1   C20 6410   4.572   5.190   3.982  0.0587  0.3385 -0.4495
   71CHL1   H20 6411   4.682   5.199   3.975  0.0633 -0.0909 -0.9112
   71CHL1   C21 6412   4.552   5.039   3.957  0.4499  0.2807  0.5536
   71CHL1  H21A 6413   4.588   4.972   4.038  1.7313  2.4785  1.9081
   71CHL1  H21B 6414   4.601   5.012   3.860 -1.4077 -2.4234  0.2674
   71CHL1  H21C 6415   4.444   5.019   3.944  0.5289 -1.3563  2.0319
   71CHL1   C22 6416   4.544   5.228   4.130 -0.0255  0.1891  0.5552
   71CHL1  H22A 6417   4.576   5.334   4.138  0.5206  0.2147 -1.4165
   71CHL1  H22B 6418   4.434   5.228   4.149  0.1384  1.4259  1.5842
   71CHL1   C23 6419   4.609   5.143   4.239  0.2426 -0.3324 -0.8168
   71CHL1  H23A 6420   4.534   5.068   4.271 -0.7633  0.7107 -0.6743
   71CHL1  H23B 6421   4.702   5.095   4.202  0.6878  0.5097 -0.8285
   71CHL1   C24 6422   4.653   5.220   4.369 -0.4145  0.0862 -0.6410
   71CHL1  H24A 6423   4.723   5.301   4.340 -0.9438  0.2733 -1.3995
   71CHL1  H24B 6424   4.567   5.260   4.426 -0.2131 -0.8863  0.4037
   71CHL1   C25 6425   4.726   5.128   4.471  0.0147 -0.3560 -0.0745
   71CHL1   H25 6426   4.802   5.067   4.419  0.6882 -1.1317  1.7297
   71CHL1   C26 6427   4.806   5.214   4.569  0.2148  1.1462  0.1729
   71CHL1  H26A 6428   4.875   5.140   4.616  0.1438  0.2390 -1.0803
   71CHL1  H26B 6429   4.863   5.292   4.514  0.8946  0.3206 -0.3317
   71CHL1  H26C 6430   4.746   5.260   4.650  1.8243 -1.5328  3.1358
   71CHL1   C27 6431   4.619   5.036   4.539  0.1854  0.0455  0.7078
   71CHL1  H27A 6432   4.680   4.976   4.610 -1.0704 -1.7121  0.3786
   71CHL1  H27B 6433   4.549   5.102   4.593  1.6528  0.8062  1.7405
   71CHL1  H27C 6434   4.573   4.973   4.459  1.3197 -0.4580  0.4247
   72CHL1    C3 6435   5.588   1.968   3.141  0.5422 -0.1410  0.8148
   72CHL1    H3 6436   5.647   2.056   3.176  1.3507  0.1878 -1.2457
   72CHL1    O3 6437   5.611   1.948   3.004  0.8411 -0.2233  0.0827
   72CHL1   H3' 6438   5.616   2.034   2.963  0.3542 -0.0712  0.3279
   72CHL1    C4 6439   5.628   1.835   3.208  0.1917 -0.8247 -0.3120
   72CHL1   H4A 6440   5.573   1.747   3.166  0.1121 -0.3312 -1.2656
   72CHL1   H4B 6441   5.737   1.826   3.189  0.0572 -0.9873 -1.0508
   72CHL1    C5 6442   5.599   1.841   3.359  0.1291  0.0411 -0.0935
   72CHL1    C6 6443   5.695   1.814   3.445  0.1789  0.8204 -0.2895
   72CHL1    H6 6444   5.796   1.787   3.411  0.0908  2.0287 -1.6234
   72CHL1    C7 6445   5.677   1.816   3.594  0.0817  0.3017  0.6752
   72CHL1   H7A 6446   5.715   1.718   3.631 -0.1966 -0.2919 -0.5572
   72CHL1   H7B 6447   5.745   1.897   3.628 -0.8243  1.1599  0.4834
   72CHL1    C8 6448   5.532   1.834   3.641 -0.5029  0.2203  0.7816
   72CHL1    H8 6449   5.476   1.738   3.640 -0.6544  0.2379 -2.1039
   72CHL1   C14 6450   5.533   1.887   3.781 -0.0571  0.4180 -0.1855
   72CHL1   H14 6451   5.587   1.984   3.776  0.5600  0.0306 -1.3250
   72CHL1   C15 6452   5.611   1.793   3.875 -0.1862 -0.2390  0.0439
   72CHL1  H15A 6453   5.596   1.683   3.865  2.9155 -0.6759 -0.8671
   72CHL1  H15B 6454   5.718   1.821   3.864 -0.8026  1.7765 -1.4170
   72CHL1   C16 6455   5.549   1.835   4.011 -0.0123 -0.0411 -0.3244
   72CHL1  H16A 6456   5.507   1.745   4.061  0.7515 -0.8026 -1.0058
   72CHL1  H16B 6457   5.625   1.886   4.074  0.6655 -1.6781  0.2345
   72CHL1   C17 6458   5.428   1.938   3.982 -0.8239 -0.7851  0.1963
   72CHL1   H17 6459   5.477   2.037   3.995 -1.7771 -0.4002  1.0136
   72CHL1   C13 6460   5.393   1.910   3.833 -0.2798  0.0711 -0.4196
   72CHL1   C18 6461   5.300   1.781   3.838  0.7366  0.4052  0.4282
   72CHL1  H18A 6462   5.351   1.699   3.893 -1.7461 -1.3793  0.2318
   72CHL1  H18B 6463   5.200   1.814   3.874  0.4181 -0.7890  0.6819
   72CHL1  H18C 6464   5.278   1.732   3.741 -1.1056 -0.7154  1.3492
   72CHL1   C12 6465   5.336   2.026   3.754  0.1656  0.1780  0.0559
   72CHL1  H12A 6466   5.232   2.039   3.793  0.0368 -3.3337  1.3128
   72CHL1  H12B 6467   5.404   2.111   3.774  2.1176 -1.0242 -1.1683
   72CHL1   C11 6468   5.319   1.981   3.608 -0.3198 -0.2501 -0.4335
   72CHL1  H11A 6469   5.244   1.899   3.598 -1.2875  0.1622  2.5375
   72CHL1  H11B 6470   5.289   2.073   3.553  2.3396  0.8813 -0.0980
   72CHL1    C9 6471   5.458   1.933   3.552 -0.0948  1.0273  0.3451
   72CHL1    H9 6472   5.522   2.024   3.560  0.9125  0.6717 -2.6499
   72CHL1   C10 6473   5.461   1.899   3.403 -0.4954 -0.6478  0.1469
   72CHL1   C19 6474   5.358   1.778   3.381 -0.0526  1.2830  0.0083
   72CHL1  H19A 6475   5.352   1.754   3.273 -1.8885 -1.0129  0.5548
   72CHL1  H19B 6476   5.385   1.685   3.435  0.1558  1.1277 -0.3582
   72CHL1  H19C 6477   5.253   1.810   3.397 -1.1162 -1.8338 -0.1119
   72CHL1    C1 6478   5.417   2.021   3.321 -0.1790 -0.4772  0.4894
   72CHL1   H1A 6479   5.314   2.043   3.356 -0.4801 -3.1969  1.5300
   72CHL1   H1B 6480   5.470   2.102   3.376  1.2635 -2.2384  1.8018
   72CHL1    C2 6481   5.439   2.011   3.170  0.0628 -0.0072  0.0569
   72CHL1   H2A 6482   5.410   2.099   3.109 -0.2812  0.6110  1.0898
   72CHL1   H2B 6483   5.371   1.932   3.130 -0.0423  0.3840 -0.5488
   72CHL1   C20 6484   5.309   1.946   4.089 -0.0060  0.3429  0.3177
   72CHL1   H20 6485   5.241   1.861   4.069 -1.1945  1.2694  0.3245
   72CHL1   C21 6486   5.243   2.082   4.080 -0.4025 -0.3412  0.6294
   72CHL1  H21A 6487   5.170   2.104   4.161 -0.2515 -1.0711  0.9651
   72CHL1  H21B 6488   5.193   2.104   3.983  1.1713 -1.3213 -0.4479
   72CHL1  H21C 6489   5.327   2.152   4.097  0.3782 -1.2214  0.4330
   72CHL1   C22 6490   5.372   1.941   4.225 -0.5849  0.3900 -0.3542
   72CHL1  H22A 6491   5.414   1.839   4.242 -0.8509  0.4810  0.9142
   72CHL1  H22B 6492   5.462   2.005   4.221 -0.3533  0.2136  1.3198
   72CHL1   C23 6493   5.307   1.986   4.358  0.3321  0.0440  0.6035
   72CHL1  H23A 6494   5.293   2.096   4.350 -0.1005 -0.1164 -1.5645
   72CHL1  H23B 6495   5.204   1.946   4.364 -0.7553  2.8426  2.9208
   72CHL1   C24 6496   5.385   1.957   4.483 -0.7090  0.1265 -0.3397
   72CHL1  H24A 6497   5.488   1.999   4.474 -0.6733  0.2776  0.7343
   72CHL1  H24B 6498   5.344   2.017   4.567 -0.1037  0.4515 -0.2714
   72CHL1   C25 6499   5.402   1.806   4.516  0.4231 -0.5942 -0.4931
   72CHL1   H25 6500   5.328   1.747   4.458 -0.3448 -0.4223  0.2908
   72CHL1   C26 6501   5.543   1.760   4.476  0.1967 -0.5023 -0.1125
   72CHL1  H26A 6502   5.554   1.653   4.504  2.7629 -0.3370 -0.2956
   72CHL1  H26B 6503   5.570   1.772   4.369 -1.4003  0.3636 -0.4518
   72CHL1  H26C 6504   5.624   1.820   4.524  0.2603 -0.3768 -0.3706
   72CHL1   C27 6505   5.371   1.789   4.663  0.6237  0.1105  0.0620
   72CHL1  H27A 6506   5.280   1.838   4.704  0.7769 -2.0238  3.2779
   72CHL1  H27B 6507   5.360   1.682   4.689  2.9330  0.7282  4.4462
   72CHL1  H27C 6508   5.463   1.814   4.720  0.3140 -0.0388  0.6356
   73CHL1    C3 6509   6.328   5.166   3.101 -0.2232 -0.5749  0.2031
   73CHL1    H3 6510   6.414   5.229   3.129  0.3324 -1.8524  1.4894
   73CHL1    O3 6511   6.298   5.201   2.963 -0.4916 -0.6692 -0.3582
   73CHL1   H3' 6512   6.202   5.195   2.965 -0.6470  0.6323 -1.8751
   73CHL1    C4 6513   6.359   5.022   3.109 -0.0923  0.2818  0.7841
   73CHL1   H4A 6514   6.297   4.950   3.051  2.2326 -0.7793 -0.5125
   73CHL1   H4B 6515   6.451   5.014   3.048 -0.4247 -0.8586  0.4038
   73CHL1    C5 6516   6.380   4.960   3.246  0.1954  0.4148 -0.0829
   73CHL1    C6 6517   6.486   4.887   3.278 -0.0569 -0.1931 -0.0964
   73CHL1    H6 6518   6.565   4.874   3.203  1.6174  1.4509  1.2733
   73CHL1    C7 6519   6.510   4.814   3.411 -0.0277 -0.3653  0.7021
   73CHL1   H7A 6520   6.544   4.713   3.378 -0.3949  0.4144 -2.3256
   73CHL1   H7B 6521   6.598   4.867   3.453 -0.2879  1.9551 -1.4659
   73CHL1    C8 6522   6.386   4.816   3.494  0.2432 -0.1518 -0.0469
   73CHL1    H8 6523   6.307   4.741   3.473 -0.3130 -0.2785  2.2223
   73CHL1   C14 6524   6.426   4.778   3.638  0.1034 -0.5382  0.0520
   73CHL1   H14 6525   6.488   4.868   3.659 -0.7468 -0.2784  1.6097
   73CHL1   C15 6526   6.507   4.653   3.667 -0.2787 -0.0792  0.5272
   73CHL1  H15A 6527   6.467   4.574   3.600  0.5411  1.2148 -1.6125
   73CHL1  H15B 6528   6.614   4.674   3.644 -0.4580 -0.1677 -0.4196
   73CHL1   C16 6529   6.489   4.634   3.814 -0.1183  0.1183 -0.1150
   73CHL1  H16A 6530   6.435   4.539   3.835 -2.3157  1.3030 -0.1382
   73CHL1  H16B 6531   6.585   4.632   3.869 -0.2035 -2.7708  0.0910
   73CHL1   C17 6532   6.398   4.747   3.866 -0.0878  0.5270 -0.1992
   73CHL1   H17 6533   6.459   4.839   3.883 -2.3131  1.8758  1.0361
   73CHL1   C13 6534   6.313   4.785   3.742  0.0493  0.1860 -0.0152
   73CHL1   C18 6535   6.208   4.680   3.716 -0.5757 -0.1355  0.1390
   73CHL1  H18A 6536   6.248   4.576   3.729 -0.3762  0.0175  0.8269
   73CHL1  H18B 6537   6.132   4.688   3.797 -0.6811  0.7520 -0.0411
   73CHL1  H18C 6538   6.147   4.697   3.626 -0.6674  1.4959  0.4918
   73CHL1   C12 6539   6.249   4.929   3.735  0.3102  0.2673  0.2125
   73CHL1  H12A 6540   6.159   4.938   3.800 -1.1700  4.3258 -2.0254
   73CHL1  H12B 6541   6.328   5.001   3.767 -1.7576  3.1047 -0.6644
   73CHL1   C11 6542   6.203   4.963   3.594  0.0065 -0.1740  0.2888
   73CHL1  H11A 6543   6.118   4.901   3.559 -0.3891  0.1315  0.6986
   73CHL1  H11B 6544   6.161   5.066   3.593  2.1735  0.7663  0.1947
   73CHL1    C9 6545   6.317   4.953   3.489 -0.0736  0.6964 -0.3185
   73CHL1    H9 6546   6.392   5.030   3.516 -1.2674  1.9135 -0.3559
   73CHL1   C10 6547   6.273   4.982   3.341 -0.0261 -0.1011 -0.5418
   73CHL1   C19 6548   6.156   4.891   3.307  0.0706  0.1035  0.4690
   73CHL1  H19A 6549   6.126   4.901   3.200  0.1401  1.1614  0.5401
   73CHL1  H19B 6550   6.180   4.783   3.315  0.1445  0.0946  0.1596
   73CHL1  H19C 6551   6.062   4.922   3.355 -2.2499  1.3493 -4.2368
   73CHL1    C1 6552   6.229   5.126   3.330 -0.5326  0.1429  0.1013
   73CHL1   H1A 6553   6.128   5.140   3.373 -1.4350 -1.7226 -1.2597
   73CHL1   H1B 6554   6.294   5.202   3.378 -1.0895 -0.3135  1.6416
   73CHL1    C2 6555   6.203   5.189   3.187 -0.1538  0.3172  0.3783
   73CHL1   H2A 6556   6.187   5.299   3.195  1.8904  0.8139 -1.2942
   73CHL1   H2B 6557   6.119   5.135   3.138  0.3892  0.3334 -0.5994
   73CHL1   C20 6558   6.324   4.712   3.994  0.5541  0.3932  0.5742
   73CHL1   H20 6559   6.254   4.629   3.969  0.3367  0.8841 -0.5473
   73CHL1   C21 6560   6.236   4.820   4.056 -0.4308 -0.4186 -0.2478
   73CHL1  H21A 6561   6.304   4.901   4.090 -1.0988 -1.2268  3.3111
   73CHL1  H21B 6562   6.186   4.789   4.149  1.2705 -0.7252  0.6093
   73CHL1  H21C 6563   6.152   4.848   3.989 -0.5782 -1.4866 -0.5205
   73CHL1   C22 6564   6.422   4.659   4.104 -1.0275 -0.2011  0.4706
   73CHL1  H22A 6565   6.347   4.657   4.186 -1.7430  1.1423 -0.1207
   73CHL1  H22B 6566   6.454   4.555   4.081  1.1789  0.2913  1.1382
   73CHL1   C23 6567   6.539   4.753   4.139 -0.4459 -0.2899 -0.3307
   73CHL1  H23A 6568   6.617   4.732   4.064  1.5040 -2.3374  2.0889
   73CHL1  H23B 6569   6.510   4.860   4.134 -1.8730 -0.6423 -0.0536
   73CHL1   C24 6570   6.607   4.709   4.274  0.7840  0.2780  0.2884
   73CHL1  H24A 6571   6.551   4.743   4.364  0.8765 -0.1384  0.5078
   73CHL1  H24B 6572   6.623   4.599   4.273  1.2735  0.3276  1.1773
   73CHL1   C25 6573   6.746   4.764   4.312  0.0615  0.7493 -0.1387
   73CHL1   H25 6574   6.813   4.733   4.230 -1.9500 -2.5502 -0.7233
   73CHL1   C26 6575   6.751   4.917   4.316  0.5854  0.0613 -0.5532
   73CHL1  H26A 6576   6.683   4.951   4.397  1.6404  0.0881  0.3432
   73CHL1  H26B 6577   6.854   4.938   4.350  0.9877 -0.9081 -1.1242
   73CHL1  H26C 6578   6.727   4.961   4.217 -0.1329  0.1278 -0.3581
   73CHL1   C27 6579   6.785   4.689   4.440 -0.3643 -0.8527 -0.3283
   73CHL1  H27A 6580   6.719   4.697   4.530  0.2221  2.2083 -0.0596
   73CHL1  H27B 6581   6.781   4.580   4.419  1.9657 -0.8433 -1.0573
   73CHL1  H27C 6582   6.883   4.717   4.483  0.7153 -2.3841 -1.6794
   74CHL1    C3 6583   4.532   4.388   2.762  0.4037 -0.3614 -0.4067
   74CHL1    H3 6584   4.563   4.494   2.765 -0.1720 -0.1671 -1.1436
   74CHL1    O3 6585   4.512   4.360   2.626 -0.4071  0.4139  0.1785
   74CHL1   H3' 6586   4.477   4.271   2.631 -0.4355  0.4675  3.5109
   74CHL1    C4 6587   4.641   4.299   2.809  0.2179  0.0785 -0.1980
   74CHL1   H4A 6588   4.596   4.198   2.798 -3.0823  1.2778  0.9681
   74CHL1   H4B 6589   4.733   4.312   2.748  1.7923 -0.9979  1.8273
   74CHL1    C5 6590   4.668   4.325   2.955  1.4870 -0.0911 -0.6087
   74CHL1    C6 6591   4.792   4.348   2.994  0.4273  0.4269  0.5509
   74CHL1    H6 6592   4.871   4.352   2.917  0.2255  2.3034  0.3766
   74CHL1    C7 6593   4.834   4.359   3.137 -0.7697 -0.4516 -0.4431
   74CHL1   H7A 6594   4.931   4.305   3.151  0.5155  1.6565 -0.7499
   74CHL1   H7B 6595   4.862   4.463   3.164  2.3148 -1.3810  0.4546
   74CHL1    C8 6596   4.718   4.314   3.232  0.4283  0.7400 -0.7304
   74CHL1    H8 6597   4.728   4.204   3.222  1.2546  0.9215 -2.1881
   74CHL1   C14 6598   4.746   4.374   3.374  0.6829  0.3743  0.3348
   74CHL1   H14 6599   4.743   4.483   3.357 -0.6125  0.2717 -0.2082
   74CHL1   C15 6600   4.877   4.336   3.443 -0.5410  0.5955 -0.7883
   74CHL1  H15A 6601   4.896   4.228   3.424 -1.1324  0.0678  1.3521
   74CHL1  H15B 6602   4.968   4.394   3.415  1.9982 -2.1497  1.1044
   74CHL1   C16 6603   4.857   4.358   3.594  0.0966 -0.4728  0.4112
   74CHL1  H16A 6604   4.894   4.266   3.643  3.5596  0.4072 -0.3101
   74CHL1  H16B 6605   4.917   4.446   3.625 -0.5610  0.7266 -1.5062
   74CHL1   C17 6606   4.706   4.383   3.609  0.0231 -0.2362  0.0597
   74CHL1   H17 6607   4.681   4.491   3.615 -0.3994 -0.3378  0.1665
   74CHL1   C13 6608   4.642   4.331   3.476 -0.0558  0.2363 -0.2899
   74CHL1   C18 6609   4.637   4.169   3.495  0.3329 -1.0387 -0.8698
   74CHL1  H18A 6610   4.624   4.123   3.394  1.0314  1.6631 -2.3026
   74CHL1  H18B 6611   4.727   4.126   3.544 -0.7738 -1.5264  0.8281
   74CHL1  H18C 6612   4.555   4.150   3.568  1.7582  1.4709  1.5353
   74CHL1   C12 6613   4.509   4.391   3.429  0.0597 -0.8665 -0.2409
   74CHL1  H12A 6614   4.423   4.362   3.493  0.8103 -0.6909  0.8802
   74CHL1  H12B 6615   4.537   4.499   3.431 -0.9836 -0.4605 -3.0001
   74CHL1   C11 6616   4.469   4.336   3.290 -0.3834 -0.3970 -0.0648
   74CHL1  H11A 6617   4.453   4.226   3.299 -2.3085 -0.2128 -0.6792
   74CHL1  H11B 6618   4.373   4.385   3.265 -0.2812 -0.4089 -0.4852
   74CHL1    C9 6619   4.576   4.363   3.184 -1.0143  0.0558  0.3000
   74CHL1    H9 6620   4.598   4.472   3.175  0.6120 -0.3367 -0.9862
   74CHL1   C10 6621   4.545   4.314   3.045  0.1526 -0.1108  0.3598
   74CHL1   C19 6622   4.477   4.170   3.051 -0.6017 -0.0641  0.4720
   74CHL1  H19A 6623   4.385   4.160   3.112  0.6370 -1.4609  2.1969
   74CHL1  H19B 6624   4.455   4.128   2.950  0.6915  3.2306 -1.3537
   74CHL1  H19C 6625   4.546   4.103   3.106  0.4464  0.3698 -0.2849
   74CHL1    C1 6626   4.434   4.406   2.986 -0.2342  0.0724 -0.2347
   74CHL1   H1A 6627   4.348   4.371   3.047 -0.5791 -0.1273 -0.8286
   74CHL1   H1B 6628   4.463   4.512   2.999  0.2610  0.1168 -1.5731
   74CHL1    C2 6629   4.403   4.372   2.842  0.1514 -0.0379 -0.4430
   74CHL1   H2A 6630   4.332   4.452   2.813  0.0183 -0.4711 -1.3525
   74CHL1   H2B 6631   4.359   4.272   2.824 -1.1484  0.6132 -0.9897
   74CHL1   C20 6632   4.648   4.335   3.739  0.0455 -0.0066  0.5504
   74CHL1   H20 6633   4.681   4.229   3.745 -0.4425 -0.5773 -3.5685
   74CHL1   C21 6634   4.494   4.344   3.749 -0.5347  0.4440  0.5228
   74CHL1  H21A 6635   4.460   4.445   3.718 -1.6070 -0.8115 -2.9942
   74CHL1  H21B 6636   4.447   4.318   3.846  1.8664 -1.8432  1.2048
   74CHL1  H21C 6637   4.449   4.259   3.693  2.2596 -1.5115  1.0283
   74CHL1   C22 6638   4.718   4.394   3.858 -0.5045  0.3547 -0.0236
   74CHL1  H22A 6639   4.827   4.409   3.840 -0.4878 -0.3121 -0.5365
   74CHL1  H22B 6640   4.682   4.498   3.869  0.0774  0.5526  0.0276
   74CHL1   C23 6641   4.699   4.305   3.980  0.1779  0.4872  0.1690
   74CHL1  H23A 6642   4.608   4.241   3.986  1.3842 -1.1707  1.6691
   74CHL1  H23B 6643   4.788   4.239   3.987  1.2554  1.6962 -1.3563
   74CHL1   C24 6644   4.708   4.405   4.102 -0.3603  0.6304 -0.8660
   74CHL1  H24A 6645   4.802   4.464   4.097 -0.8737  1.7171  1.1978
   74CHL1  H24B 6646   4.618   4.469   4.109 -1.7567 -1.0983 -2.0361
   74CHL1   C25 6647   4.702   4.311   4.231 -0.3304 -0.0785  0.0660
   74CHL1   H25 6648   4.637   4.221   4.224  0.4124 -0.6175 -0.1062
   74CHL1   C26 6649   4.844   4.260   4.250 -0.2053 -0.4897  0.1896
   74CHL1  H26A 6650   4.852   4.206   4.346 -0.8539 -2.0732 -0.6091
   74CHL1  H26B 6651   4.871   4.193   4.165 -0.2995 -0.8483  0.4403
   74CHL1  H26C 6652   4.914   4.346   4.243  1.2030 -1.6201 -0.4877
   74CHL1   C27 6653   4.658   4.400   4.356  0.0341  0.9407  0.1877
   74CHL1  H27A 6654   4.669   4.345   4.452 -0.0378  1.1034  0.2891
   74CHL1  H27B 6655   4.725   4.488   4.357  1.6582 -0.2077 -1.1443
   74CHL1  H27C 6656   4.554   4.439   4.347 -0.2821 -0.2091 -2.2521
   75CHL1    C3 6657   6.216   3.366   3.049 -0.0712 -0.3194  0.6329
   75CHL1    H3 6658   6.316   3.415   3.057 -0.5648  0.6806  0.9073
   75CHL1    O3 6659   6.184   3.386   2.908 -0.7344  0.6578  0.1329
   75CHL1   H3' 6660   6.114   3.325   2.882 -1.2595  1.9678 -1.6568
   75CHL1    C4 6661   6.208   3.217   3.089 -0.0394  0.7432  0.2412
   75CHL1   H4A 6662   6.110   3.174   3.064  0.8855 -2.3900  1.5582
   75CHL1   H4B 6663   6.272   3.168   3.013  1.4527 -1.0185  2.4877
   75CHL1    C5 6664   6.247   3.190   3.229 -0.4169  0.1263  0.3405
   75CHL1    C6 6665   6.343   3.093   3.263  0.4591 -0.3920 -0.2378
   75CHL1    H6 6666   6.388   3.024   3.190  1.5765  0.2994 -0.2333
   75CHL1    C7 6667   6.390   3.074   3.404 -0.1089 -0.7202  0.8306
   75CHL1   H7A 6668   6.401   2.965   3.422  0.4612 -0.9078 -0.5336
   75CHL1   H7B 6669   6.488   3.126   3.411 -1.0015  1.4992 -1.7486
   75CHL1    C8 6670   6.301   3.143   3.505 -0.2403  0.2353 -0.3528
   75CHL1    H8 6671   6.211   3.081   3.521  0.1835 -0.0258  1.2014
   75CHL1   C14 6672   6.372   3.144   3.640  0.3027 -0.3469 -0.1995
   75CHL1   H14 6673   6.465   3.206   3.640 -0.1310  0.3185 -0.2420
   75CHL1   C15 6674   6.406   3.004   3.698 -0.1448 -0.0298 -0.1184
   75CHL1  H15A 6675   6.324   2.940   3.658  1.0472 -2.7630  1.5424
   75CHL1  H15B 6676   6.500   2.963   3.656  1.3107  1.7790  1.1943
   75CHL1   C16 6677   6.419   3.026   3.852  0.1459  0.3224  0.2818
   75CHL1  H16A 6678   6.346   2.968   3.913  0.8806  0.5225  1.3911
   75CHL1  H16B 6679   6.522   3.024   3.896  0.5269  1.5169 -0.5236
   75CHL1   C17 6680   6.385   3.182   3.871  0.1713  0.2681  0.0246
   75CHL1   H17 6681   6.483   3.234   3.858 -0.1345  0.5780 -1.1654
   75CHL1   C13 6682   6.297   3.209   3.751  0.6038 -0.2307 -0.3748
   75CHL1   C18 6683   6.159   3.140   3.777 -0.8909 -0.4524  0.6234
   75CHL1  H18A 6684   6.179   3.038   3.817  0.1451 -0.4139  0.2352
   75CHL1  H18B 6685   6.091   3.190   3.850 -1.4013 -0.0956 -0.0802
   75CHL1  H18C 6686   6.087   3.130   3.692 -1.6000 -0.8608  1.2573
   75CHL1   C12 6687   6.266   3.355   3.713  0.4902  0.1767  0.1616
   75CHL1  H12A 6688   6.206   3.406   3.791  0.7980  2.0237 -0.7700
   75CHL1  H12B 6689   6.360   3.412   3.701 -0.7338  2.1618 -0.4258
   75CHL1   C11 6690   6.186   3.363   3.578  0.1329 -0.4531  0.2690
   75CHL1  H11A 6691   6.079   3.332   3.582 -0.4404  1.1667 -1.3192
   75CHL1  H11B 6692   6.194   3.470   3.549  0.1552  0.2071  2.5254
   75CHL1    C9 6693   6.262   3.284   3.467  0.2021  0.2516 -0.7134
   75CHL1    H9 6694   6.358   3.339   3.467 -0.0139  0.9144  3.3251
   75CHL1   C10 6695   6.182   3.282   3.337  0.2838 -0.1999  0.2670
   75CHL1   C19 6696   6.047   3.208   3.342 -0.2643 -0.2522 -0.0263
   75CHL1  H19A 6697   6.049   3.103   3.377  1.0215 -0.6138 -1.0976
   75CHL1  H19B 6698   5.984   3.273   3.406  2.1739  1.3044  0.9245
   75CHL1  H19C 6699   6.007   3.211   3.238  1.1386  0.7241 -0.5675
   75CHL1    C1 6700   6.161   3.430   3.286 -0.4799  0.3159 -0.6029
   75CHL1   H1A 6701   6.082   3.481   3.345 -0.3673 -0.1760 -0.0183
   75CHL1   H1B 6702   6.258   3.484   3.293 -1.5457  2.4523 -1.5636
   75CHL1    C2 6703   6.118   3.437   3.140  0.0475 -0.3121 -0.4093
   75CHL1   H2A 6704   6.122   3.542   3.103  0.0339 -0.6134 -1.2813
   75CHL1   H2B 6705   6.009   3.418   3.139 -0.0450  0.0433  0.7809
   75CHL1   C20 6706   6.332   3.225   4.009 -0.0207  0.1313  0.4720
   75CHL1   H20 6707   6.222   3.209   4.008  0.0420 -0.4533  1.3681
   75CHL1   C21 6708   6.369   3.372   4.032 -0.2980 -0.3841 -0.0906
   75CHL1  H21A 6709   6.477   3.385   4.053 -0.5486  1.2873  0.2863
   75CHL1  H21B 6710   6.320   3.422   4.118  0.8787  0.9073 -0.1366
   75CHL1  H21C 6711   6.339   3.427   3.940 -0.1168 -0.3858 -0.1507
   75CHL1   C22 6712   6.396   3.129   4.114 -0.1470  0.0522 -0.6264
   75CHL1  H22A 6713   6.353   3.027   4.109  0.9095 -0.4085 -0.5745
   75CHL1  H22B 6714   6.505   3.119   4.097  0.0785  1.3074 -0.0280
   75CHL1   C23 6715   6.366   3.184   4.256  0.1750  0.1187  0.2315
   75CHL1  H23A 6716   6.447   3.256   4.279  0.8506 -1.0058  1.5250
   75CHL1  H23B 6717   6.267   3.233   4.254  1.0027  1.8291 -0.7172
   75CHL1   C24 6718   6.391   3.081   4.368  0.0455  0.7649  0.1881
   75CHL1  H24A 6719   6.301   3.017   4.375  0.0237  0.6569 -0.8689
   75CHL1  H24B 6720   6.472   3.009   4.342 -0.6150  0.7839 -2.1197
   75CHL1   C25 6721   6.434   3.150   4.509 -1.1230 -0.1812  0.4482
   75CHL1   H25 6722   6.358   3.231   4.519 -0.7210  0.2632  0.0017
   75CHL1   C26 6723   6.427   3.049   4.626  0.1962  0.8278 -0.6933
   75CHL1  H26A 6724   6.476   3.091   4.717  2.1199 -0.6505 -0.9912
   75CHL1  H26B 6725   6.324   3.012   4.644  1.5552 -2.9268  0.2150
   75CHL1  H26C 6726   6.483   2.955   4.605 -2.8907 -1.1077 -0.7790
   75CHL1   C27 6727   6.573   3.215   4.494  0.0655 -0.0447  0.1038
   75CHL1  H27A 6728   6.646   3.134   4.473  0.7792  1.2455 -2.7832
   75CHL1  H27B 6729   6.587   3.284   4.409  1.3303 -0.4079 -0.0021
   75CHL1  H27C 6730   6.604   3.267   4.587  2.1146 -1.1549  0.1105
   76CHL1    C3 6731   4.341   3.711   3.265  0.6942 -0.0522  0.3890
   76CHL1    H3 6732   4.428   3.648   3.238  0.3044 -0.0295 -1.0553
   76CHL1    O3 6733   4.253   3.720   3.152 -0.1785 -0.4778 -0.0579
   76CHL1   H3' 6734   4.252   3.813   3.131  2.5254 -0.1983  0.6346
   76CHL1    C4 6735   4.254   3.634   3.373 -0.6609  0.2279 -0.2890
   76CHL1   H4A 6736   4.162   3.696   3.379 -1.0833 -0.3882 -0.2648
   76CHL1   H4B 6737   4.242   3.531   3.334 -0.7592  0.0095  0.3015
   76CHL1    C5 6738   4.334   3.624   3.501  0.3665 -0.1671  0.2754
   76CHL1    C6 6739   4.347   3.508   3.564  0.3956 -0.3543  0.2936
   76CHL1    H6 6740   4.298   3.415   3.532  1.8879 -1.2810  0.5798
   76CHL1    C7 6741   4.413   3.492   3.698 -0.1637  0.1189 -0.5951
   76CHL1   H7A 6742   4.351   3.421   3.757  0.3490 -0.0144 -0.2137
   76CHL1   H7B 6743   4.508   3.436   3.681  0.8690  1.3100  1.0068
   76CHL1    C8 6744   4.430   3.624   3.774  0.5338 -0.4463  0.3139
   76CHL1    H8 6745   4.330   3.660   3.809  1.2741  0.5846  1.4423
   76CHL1   C14 6746   4.528   3.612   3.893  0.5304 -0.4318  0.0687
   76CHL1   H14 6747   4.625   3.581   3.850  0.8284 -2.0907  1.8065
   76CHL1   C15 6748   4.507   3.512   4.005  0.1029  0.2789 -0.4404
   76CHL1  H15A 6749   4.401   3.482   4.019  0.0556  1.1171  1.1530
   76CHL1  H15B 6750   4.572   3.425   3.979  0.5723  0.2405  0.7963
   76CHL1   C16 6751   4.552   3.566   4.137 -0.4351 -0.2588 -0.3170
   76CHL1  H16A 6752   4.464   3.582   4.202 -1.2321 -3.7608 -0.3237
   76CHL1  H16B 6753   4.619   3.495   4.191  0.1729 -0.0437 -0.7723
   76CHL1   C17 6754   4.632   3.689   4.092  0.3249 -0.9814  0.7012
   76CHL1   H17 6755   4.732   3.659   4.052  0.4749  0.4844 -0.1035
   76CHL1   C13 6756   4.553   3.742   3.973 -2.0130 -0.3740  0.0733
   76CHL1   C18 6757   4.424   3.808   4.019 -0.1338  0.4055 -0.2221
   76CHL1  H18A 6758   4.349   3.812   3.937  0.3617  0.2907 -0.6864
   76CHL1  H18B 6759   4.364   3.750   4.092  0.3052  1.2423  0.8395
   76CHL1  H18C 6760   4.445   3.905   4.069 -1.2589  0.3697  0.3611
   76CHL1   C12 6761   4.621   3.837   3.876  0.3957 -0.5410 -0.6909
   76CHL1  H12A 6762   4.625   3.939   3.918 -3.2402 -1.2282  1.7936
   76CHL1  H12B 6763   4.724   3.800   3.854 -0.0020 -1.7692 -0.5746
   76CHL1   C11 6764   4.538   3.861   3.746  0.2220  0.2411 -0.9078
   76CHL1  H11A 6765   4.458   3.929   3.782  1.6438  1.4306  0.1384
   76CHL1  H11B 6766   4.613   3.905   3.677  1.7367 -0.3614  0.3107
   76CHL1    C9 6767   4.483   3.731   3.680  0.3991 -0.3996 -0.3477
   76CHL1    H9 6768   4.570   3.688   3.626 -0.3769 -2.8148  0.2030
   76CHL1   C10 6769   4.393   3.753   3.556  0.2316  0.9470  0.2832
   76CHL1   C19 6770   4.277   3.841   3.606 -0.3389 -0.6868 -0.1400
   76CHL1  H19A 6771   4.204   3.853   3.524  0.2003  0.0398 -0.5274
   76CHL1  H19B 6772   4.213   3.791   3.682 -1.0412 -1.2703 -1.0985
   76CHL1  H19C 6773   4.304   3.943   3.641 -1.8248 -0.2913 -0.1137
   76CHL1    C1 6774   4.480   3.828   3.440 -0.6797 -0.1826 -0.0276
   76CHL1   H1A 6775   4.516   3.924   3.483 -0.3037  0.4376 -1.6414
   76CHL1   H1B 6776   4.575   3.775   3.415  0.1972  0.3040  1.9882
   76CHL1    C2 6777   4.403   3.843   3.307 -0.4394  0.2764 -0.2931
   76CHL1   H2A 6778   4.484   3.871   3.237 -1.0008  0.8087 -0.7496
   76CHL1   H2B 6779   4.324   3.919   3.326 -1.3251 -0.5032 -0.7558
   76CHL1   C20 6780   4.658   3.787   4.206  0.3089 -0.0222 -0.0679
   76CHL1   H20 6781   4.560   3.819   4.246 -0.1384  0.6295 -1.5941
   76CHL1   C21 6782   4.742   3.914   4.161 -0.2434 -0.0940 -0.0309
   76CHL1  H21A 6783   4.670   3.989   4.123  1.4600  2.5284  1.6575
   76CHL1  H21B 6784   4.829   3.886   4.097 -0.1419 -0.5240  0.2847
   76CHL1  H21C 6785   4.791   3.953   4.253 -0.6543  0.5018 -0.0602
   76CHL1   C22 6786   4.731   3.713   4.323  0.0505 -0.5569 -0.3018
   76CHL1  H22A 6787   4.743   3.780   4.411  1.2123 -1.9070  0.5949
   76CHL1  H22B 6788   4.662   3.637   4.367  0.0943 -0.0578  0.6540
   76CHL1   C23 6789   4.863   3.646   4.289 -0.3545  0.1152  0.2385
   76CHL1  H23A 6790   4.852   3.565   4.213 -0.0053  0.7809 -0.5436
   76CHL1  H23B 6791   4.933   3.724   4.252 -1.0145  0.6413  0.0756
   76CHL1   C24 6792   4.937   3.585   4.410  0.5960  0.3260  0.4375
   76CHL1  H24A 6793   4.945   3.666   4.486  0.3294  1.1903 -0.4216
   76CHL1  H24B 6794   4.872   3.498   4.429  1.4566 -0.7234 -1.1692
   76CHL1   C25 6795   5.076   3.533   4.370  0.6480  0.2772 -0.0383
   76CHL1   H25 6796   5.129   3.614   4.316  3.2168 -0.4570  1.1876
   76CHL1   C26 6797   5.158   3.481   4.494  0.7316  0.7031 -0.0051
   76CHL1  H26A 6798   5.231   3.409   4.454  0.6627  1.4541 -1.5629
   76CHL1  H26B 6799   5.199   3.567   4.552 -0.2915  1.5612 -0.5244
   76CHL1  H26C 6800   5.092   3.416   4.555  1.4964 -1.8170 -1.7129
   76CHL1   C27 6801   5.073   3.425   4.265 -0.4103  0.4015  0.0363
   76CHL1  H27A 6802   5.165   3.364   4.256 -0.8293 -0.0798 -1.1622
   76CHL1  H27B 6803   4.989   3.353   4.279  0.3003 -0.5182 -0.3556
   76CHL1  H27C 6804   5.058   3.477   4.168  0.0878 -1.1708 -0.9289
   77SOPE     N 6805   3.376   3.771   6.841 -0.2978  0.2203  0.8537
   77SOPE   HN1 6806   3.398   3.867   6.875 -0.5392  0.4317  0.4239
   77SOPE   HN2 6807   3.382   3.703   6.919  0.6416  0.5194  1.0657
   77SOPE   HN3 6808   3.451   3.748   6.773 -2.1312  0.4198 -1.3498
   77SOPE   C12 6809   3.252   3.764   6.760 -0.2148 -0.6458 -0.1061
   77SOPE  H12A 6810   3.274   3.819   6.666  1.2540 -1.4059 -0.2413
   77SOPE  H12B 6811   3.176   3.806   6.829 -0.2422 -0.2997 -0.3431
   77SOPE   C11 6812   3.220   3.620   6.714  0.9932 -0.3294 -0.1541
   77SOPE  H11A 6813   3.311   3.582   6.665  1.3895  0.9341 -0.4533
   77SOPE  H11B 6814   3.127   3.622   6.653 -0.1927 -0.5164  1.5652
   77SOPE     P 6815   3.089   3.531   6.930 -0.0839  0.3297  0.3791
   77SOPE   O13 6816   3.095   3.656   7.014  0.1368  0.5850  0.4558
   77SOPE   O14 6817   3.093   3.400   7.001  0.9849 -0.1224  0.6299
   77SOPE   O12 6818   3.204   3.536   6.824  0.5503  0.2240 -0.4008
   77SOPE   O11 6819   2.963   3.548   6.840 -0.2959 -0.2334  0.3596
   77SOPE    C1 6820   2.866   3.451   6.794 -0.5742  0.1485  0.1064
   77SOPE    HA 6821   2.803   3.416   6.879  1.1643 -0.8254  1.0481
   77SOPE    HB 6822   2.917   3.362   6.751 -1.1884 -0.0551 -0.2110
   77SOPE    C2 6823   2.769   3.507   6.684 -0.2604 -0.4088  0.2947
   77SOPE    HS 6824   2.686   3.438   6.661 -0.0191 -0.2313 -1.1951
   77SOPE   O21 6825   2.843   3.557   6.571 -0.5199 -0.3074 -0.6780
   77SOPE   C21 6826   2.899   3.460   6.503  0.8739  0.3334 -0.0273
   77SOPE   O22 6827   2.871   3.340   6.515  0.0274 -0.2891 -0.3059
   77SOPE   C22 6828   2.987   3.521   6.400 -0.0183 -0.1568  0.7342
   77SOPE   H2R 6829   3.037   3.609   6.446  0.3756 -1.2037  2.3688
   77SOPE   H2S 6830   2.920   3.567   6.323 -0.9801 -1.2871  0.8737
   77SOPE    C3 6831   2.692   3.625   6.763 -0.4033 -0.2127  0.6255
   77SOPE    HX 6832   2.764   3.692   6.813  0.2091  0.0249 -0.5267
   77SOPE    HY 6833   2.627   3.579   6.841 -2.6109 -1.3820 -1.7317
   77SOPE   O31 6834   2.611   3.703   6.662  0.0929 -0.3608 -0.0217
   77SOPE   C31 6835   2.507   3.640   6.615  0.1020  0.1274  0.0023
   77SOPE   O32 6836   2.460   3.538   6.660  0.8917  0.0013 -0.0087
   77SOPE   C32 6837   2.471   3.720   6.488  0.7833 -0.4424  0.1638
   77SOPE   H2X 6838   2.538   3.690   6.404  0.2770  0.7295 -0.6860
   77SOPE   H2Y 6839   2.489   3.826   6.514  0.1677 -0.8590  2.4946
   77SOPE   C23 6840   3.090   3.421   6.340 -0.3406 -0.6596 -0.7220
   77SOPE   H3R 6841   3.045   3.326   6.305  0.7765 -1.1197 -0.9413
   77SOPE   H3S 6842   3.159   3.384   6.419  0.4042  2.0236 -0.0210
   77SOPE   C24 6843   3.157   3.473   6.214  0.3921  0.5883  0.3094
   77SOPE   H4R 6844   3.199   3.576   6.217 -1.7451  1.5974 -1.5258
   77SOPE   H4S 6845   3.247   3.410   6.195  0.7640  1.4754 -1.0147
   77SOPE   C25 6846   3.074   3.477   6.087 -0.0694 -0.3759 -0.4231
   77SOPE   H5R 6847   3.017   3.383   6.071  0.6826 -1.0599  0.6714
   77SOPE   H5S 6848   3.008   3.565   6.099  1.0307  0.2917  1.2046
   77SOPE   C26 6849   3.159   3.495   5.960  0.7295 -1.3041  0.5362
   77SOPE   H6R 6850   3.213   3.592   5.964 -1.5692  0.0415  1.0262
   77SOPE   H6S 6851   3.244   3.427   5.940  2.3381  0.7952 -0.1464
   77SOPE   C27 6852   3.071   3.490   5.834  0.0545 -0.0402 -0.7217
   77SOPE   H7R 6853   3.037   3.385   5.823  1.8477 -0.6786 -0.4852
   77SOPE   H7S 6854   2.975   3.542   5.859 -0.4193 -1.7039  1.1547
   77SOPE   C28 6855   3.137   3.531   5.701 -0.1518 -0.5872  0.1906
   77SOPE   H8R 6856   3.053   3.530   5.628 -1.1105  1.1024  1.2286
   77SOPE   H8S 6857   3.165   3.638   5.710 -1.9567 -0.0694 -0.0390
   77SOPE   C29 6858   3.257   3.449   5.664  0.7316 -0.3604 -0.2136
   77SOPE   H91 6859   3.351   3.494   5.701  0.4307  0.0452  0.0762
   77SOPE  C210 6860   3.263   3.338   5.585 -0.4009 -0.2413 -0.4384
   77SOPE  H101 6861   3.362   3.295   5.566 -0.4278  0.1128 -1.4173
   77SOPE  C211 6862   3.138   3.263   5.544  0.1071 -0.0836  0.7292
   77SOPE  H11R 6863   3.056   3.303   5.607  1.8703  1.5082  2.1051
   77SOPE  H11S 6864   3.138   3.151   5.546 -0.1472 -0.1213 -0.5961
   77SOPE  C212 6865   3.096   3.321   5.404  0.5446  0.5535  0.7140
   77SOPE  H12R 6866   3.088   3.432   5.404  0.1635  0.6493 -2.7492
   77SOPE  H12S 6867   2.989   3.295   5.390  1.2000 -1.3935 -1.3962
   77SOPE  C213 6868   3.179   3.279   5.290 -0.1437 -0.1666  0.9390
   77SOPE  H13R 6869   3.161   3.176   5.251 -0.2404  0.6196 -1.2469
   77SOPE  H13S 6870   3.284   3.272   5.325 -0.2338  1.3809  1.5898
   77SOPE  C214 6871   3.162   3.374   5.170  0.6937  0.9141 -0.2807
   77SOPE  H14R 6872   3.057   3.395   5.138  0.5933  0.0563 -0.5308
   77SOPE  H14S 6873   3.216   3.327   5.085  0.6604 -1.3065  0.8617
   77SOPE  C215 6874   3.208   3.518   5.194 -0.5764  0.2463  0.5438
   77SOPE  H15R 6875   3.294   3.527   5.264  0.0987 -0.4843 -0.1758
   77SOPE  H15S 6876   3.123   3.568   5.244  0.4616  1.0224  1.5890
   77SOPE  C216 6877   3.243   3.603   5.066 -0.5497  0.5398 -0.2224
   77SOPE  H16R 6878   3.311   3.540   5.003  0.4796  0.9098  0.4914
   77SOPE  H16S 6879   3.303   3.691   5.097 -1.5105  1.5075 -1.0168
   77SOPE  C217 6880   3.121   3.637   4.993  0.4764 -0.1314  0.1550
   77SOPE  H17R 6881   3.049   3.704   5.045  1.2133  1.2873 -0.5690
   77SOPE  H17S 6882   3.072   3.544   4.958  3.0595 -1.2264 -0.8226
   77SOPE  C218 6883   3.158   3.721   4.865  0.1845 -0.0008  0.1194
   77SOPE  H18R 6884   3.226   3.660   4.802 -1.4087 -1.5600 -0.1466
   77SOPE  H18S 6885   3.213   3.807   4.909 -0.7536 -0.1334  1.6321
   77SOPE  H18T 6886   3.071   3.754   4.805  0.1370  0.1731  0.2824
   77SOPE   C33 6887   2.328   3.711   6.440  0.1776  0.1716 -0.2245
   77SOPE   H3X 6888   2.261   3.732   6.526  0.3380  1.0121 -0.2986
   77SOPE   H3Y 6889   2.319   3.605   6.410 -0.5825  0.9181 -2.9563
   77SOPE   C34 6890   2.289   3.811   6.331  0.2002 -0.2828 -0.3698
   77SOPE   H4X 6891   2.300   3.913   6.375  0.1632 -0.8341  0.9424
   77SOPE   H4Y 6892   2.184   3.797   6.298  0.1677 -1.2771  0.1494
   77SOPE   C35 6893   2.371   3.806   6.204 -0.2952 -0.1255  0.1982
   77SOPE   H5X 6894   2.479   3.823   6.225 -0.2232 -0.3350 -0.0067
   77SOPE   H5Y 6895   2.337   3.900   6.154  0.2371  0.1675  0.3812
   77SOPE   C36 6896   2.366   3.672   6.123 -0.0069  0.2567  0.0551
   77SOPE   H6X 6897   2.419   3.593   6.181 -0.9320  0.2346  0.8971
   77SOPE   H6Y 6898   2.410   3.700   6.025 -1.4684  0.8899 -0.4500
   77SOPE   C37 6899   2.226   3.612   6.108 -0.2176  0.5871 -0.2335
   77SOPE   H7X 6900   2.155   3.688   6.070 -1.8267 -2.1189 -3.2088
   77SOPE   H7Y 6901   2.187   3.596   6.211  0.4669  0.3464 -0.0073
   77SOPE   C38 6902   2.223   3.478   6.024 -0.2058 -0.4966 -0.0970
   77SOPE   H8X 6903   2.121   3.440   6.044 -0.6931  1.5771  1.7133
   77SOPE   H8Y 6904   2.289   3.408   6.080  0.8464  0.5941  0.0681
   77SOPE   C39 6905   2.255   3.495   5.875  0.1987 -0.2863 -0.0529
   77SOPE   H9X 6906   2.361   3.523   5.859  0.6085 -0.9908  1.2666
   77SOPE   H9Y 6907   2.196   3.579   5.834 -0.2540 -0.1349  0.8828
   77SOPE  C310 6908   2.233   3.367   5.801  0.2539  0.4345  0.0143
   77SOPE  H10X 6909   2.135   3.323   5.830  1.3181 -2.1602 -0.0612
   77SOPE  H10Y 6910   2.297   3.291   5.849 -1.8660 -1.4348  0.0504
   77SOPE  C311 6911   2.267   3.374   5.649  0.4675 -0.2083  0.3650
   77SOPE  H11X 6912   2.366   3.418   5.627 -0.0446  0.5189 -0.5224
   77SOPE  H11Y 6913   2.190   3.436   5.598  1.1181  0.8455  0.6280
   77SOPE  C312 6914   2.280   3.244   5.569  0.0744  0.1805  0.3710
   77SOPE  H12X 6915   2.177   3.203   5.568  0.3333 -0.4751  0.0237
   77SOPE  H12Y 6916   2.354   3.175   5.616  1.3347  0.5487 -1.0251
   77SOPE  C313 6917   2.316   3.270   5.420 -0.1011 -0.2507 -1.0125
   77SOPE  H13X 6918   2.412   3.325   5.426 -0.0981 -0.3755  0.3061
   77SOPE  H13Y 6919   2.239   3.330   5.367  0.0882  0.1225 -0.8681
   77SOPE  C314 6920   2.327   3.148   5.325  0.0378  0.1363 -0.2200
   77SOPE  H14X 6921   2.225   3.109   5.308  0.8213 -1.5086 -1.4824
   77SOPE  H14Y 6922   2.384   3.070   5.381 -1.5638 -1.9145 -1.3044
   77SOPE  C315 6923   2.388   3.194   5.192  0.0001  0.6378  0.3872
   77SOPE  H15X 6924   2.496   3.215   5.211  0.9433 -1.6616 -1.8515
   77SOPE  H15Y 6925   2.332   3.288   5.171 -1.0059 -0.3297 -1.5754
   77SOPE  C316 6926   2.394   3.093   5.073 -0.3240  0.3321 -0.6007
   77SOPE  H16X 6927   2.292   3.059   5.047  0.2863 -2.3599  0.1652
   77SOPE  H16Y 6928   2.443   3.001   5.113 -2.1234  0.8048  3.1601
   77SOPE  C317 6929   2.467   3.140   4.948  0.4817 -0.5372  0.2699
   77SOPE  H17X 6930   2.485   3.051   4.884  3.6909 -0.9613  1.5766
   77SOPE  H17Y 6931   2.557   3.193   4.988  0.5746  1.3490 -2.2429
   77SOPE  C318 6932   2.389   3.255   4.871 -0.3138 -0.1704 -0.2917
   77SOPE  H18X 6933   2.447   3.272   4.778 -0.1549 -0.6073 -0.2763
   77SOPE  H18Y 6934   2.386   3.337   4.946  1.3546  0.3079 -0.7089
   77SOPE  H18Z 6935   2.289   3.224   4.833  0.0509 -3.1115  0.8486
   78SOPE     N 6936   6.581   2.049   7.114  1.0424 -0.0996  0.2977
   78SOPE   HN1 6937   6.553   1.951   7.137  2.5517 -0.7631 -0.5152
   78SOPE   HN2 6938   6.548   2.052   7.016  1.7052  1.9776  0.1001
   78SOPE   HN3 6939   6.684   2.061   7.104  1.3674 -1.6533  1.3198
   78SOPE   C12 6940   6.523   2.163   7.200  0.2689 -0.3706 -0.5939
   78SOPE  H12A 6941   6.561   2.141   7.302 -0.2020 -1.7724 -0.7081
   78SOPE  H12B 6942   6.412   2.155   7.197  0.2621 -0.4873 -0.1401
   78SOPE   C11 6943   6.573   2.302   7.150 -0.4536  0.1912 -0.2102
   78SOPE  H11A 6944   6.683   2.316   7.154 -0.3207 -0.8836  0.2789
   78SOPE  H11B 6945   6.520   2.373   7.216 -3.4752  0.7523 -2.9487
   78SOPE     P 6946   6.447   2.439   6.962  0.4049  0.0786 -0.0779
   78SOPE   O13 6947   6.514   2.571   6.961  0.3252 -0.3886  0.3638
   78SOPE   O14 6948   6.320   2.438   7.042  0.1095  0.1166 -0.0120
   78SOPE   O12 6949   6.534   2.318   7.013 -0.8306  0.5418 -0.0500
   78SOPE   O11 6950   6.396   2.401   6.813  0.3086 -0.4704  0.1365
   78SOPE    C1 6951   6.504   2.345   6.741 -0.3409  0.4808  0.1434
   78SOPE    HA 6952   6.531   2.244   6.779 -2.4280  0.8132  2.8511
   78SOPE    HB 6953   6.590   2.413   6.722  0.7749 -1.7165 -3.8092
   78SOPE    C2 6954   6.461   2.297   6.592  0.0840  0.2887  0.7276
   78SOPE    HS 6955   6.541   2.232   6.550 -1.0990  0.6649 -2.4031
   78SOPE   O21 6956   6.441   2.407   6.496 -0.1867 -0.0508 -0.5446
   78SOPE   C21 6957   6.547   2.465   6.451  0.5440 -0.1692 -0.0303
   78SOPE   O22 6958   6.663   2.436   6.483 -0.3169 -0.3000  0.1040
   78SOPE   C22 6959   6.514   2.564   6.342 -0.2291 -0.7794 -0.5483
   78SOPE   H2R 6960   6.429   2.625   6.381  1.0472 -0.8384  2.6588
   78SOPE   H2S 6961   6.478   2.509   6.253 -1.2399 -0.4242 -0.3811
   78SOPE    C3 6962   6.332   2.210   6.596  0.0684  0.4877  0.2555
   78SOPE    HX 6963   6.254   2.281   6.561 -1.3399 -1.4044 -0.6335
   78SOPE    HY 6964   6.312   2.181   6.701 -0.0420 -0.9129 -0.1253
   78SOPE   O31 6965   6.325   2.108   6.494 -0.3022 -0.1573 -0.4217
   78SOPE   C31 6966   6.376   1.990   6.530  0.0594  0.6372  0.2326
   78SOPE   O32 6967   6.412   1.956   6.640 -0.0818  0.2063 -0.6230
   78SOPE   C32 6968   6.383   1.906   6.398 -0.2917  0.1345  0.2535
   78SOPE   H2X 6969   6.284   1.856   6.404 -0.3407  0.3269  1.2483
   78SOPE   H2Y 6970   6.469   1.834   6.402  0.7888  1.4304  2.3199
   78SOPE   C23 6971   6.626   2.655   6.302 -0.1103 -0.1758 -0.4165
   78SOPE   H3R 6972   6.710   2.601   6.253 -0.0329 -0.5385  0.1082
   78SOPE   H3S 6973   6.677   2.697   6.390  1.4827 -1.1651 -0.8127
   78SOPE   C24 6974   6.585   2.769   6.209 -0.0150  0.0344 -0.1040
   78SOPE   H4R 6975   6.484   2.796   6.248 -0.4538 -1.0328 -0.4573
   78SOPE   H4S 6976   6.646   2.862   6.209  1.8401 -1.0005 -3.7639
   78SOPE   C25 6977   6.565   2.722   6.069 -0.8523  0.5711  0.2650
   78SOPE   H5R 6978   6.505   2.631   6.052  0.4303 -0.1137 -0.8830
   78SOPE   H5S 6979   6.499   2.797   6.021 -1.1473  0.2645  0.1880
   78SOPE   C26 6980   6.698   2.714   5.986 -0.2737  1.0071 -0.8737
   78SOPE   H6R 6981   6.743   2.815   5.994 -0.5122  1.0457  0.0736
   78SOPE   H6S 6982   6.769   2.643   6.034 -2.9687 -0.3079  1.5764
   78SOPE   C27 6983   6.658   2.669   5.841  0.3201  0.2366  0.2077
   78SOPE   H7R 6984   6.656   2.559   5.826  1.5275  0.3387 -0.9313
   78SOPE   H7S 6985   6.558   2.707   5.812  1.3709  1.3421 -2.2930
   78SOPE   C28 6986   6.747   2.736   5.733 -0.1901  0.4388  0.5577
   78SOPE   H8R 6987   6.735   2.846   5.728  1.6693  0.6405 -0.8154
   78SOPE   H8S 6988   6.853   2.722   5.764  0.9751  2.5492 -2.0656
   78SOPE   C29 6989   6.735   2.667   5.596 -0.0889 -0.4855 -0.4865
   78SOPE   H91 6990   6.755   2.559   5.596 -0.1987 -0.5539  1.8523
   78SOPE  C210 6991   6.728   2.733   5.474  0.6796 -0.5289  0.1454
   78SOPE  H101 6992   6.743   2.684   5.377 -2.4701 -0.9111 -0.2609
   78SOPE  C211 6993   6.718   2.877   5.451 -0.1141  0.2180  0.9348
   78SOPE  H11R 6994   6.700   2.930   5.547 -3.3511 -1.0452  1.1487
   78SOPE  H11S 6995   6.632   2.905   5.385  0.3472  1.1486  0.7221
   78SOPE  C212 6996   6.839   2.942   5.384 -0.6840  0.1633 -0.1816
   78SOPE  H12R 6997   6.928   2.925   5.449 -1.8573  0.5404  1.6001
   78SOPE  H12S 6998   6.820   3.052   5.386 -1.7847 -0.0160  0.6427
   78SOPE  C213 6999   6.863   2.894   5.248 -0.6240 -0.0387  0.4524
   78SOPE  H13R 7000   6.767   2.910   5.194  1.0124  0.6381 -2.5045
   78SOPE  H13S 7001   6.883   2.786   5.230  2.3149  0.3525  0.9194
   78SOPE  C214 7002   6.976   2.958   5.170 -0.2826  0.4690 -0.2430
   78SOPE  H14R 7003   7.071   2.946   5.227  1.0464 -0.3386 -2.4857
   78SOPE  H14S 7004   6.946   3.065   5.169 -2.2811 -0.0687 -0.2635
   78SOPE  C215 7005   7.001   2.901   5.028 -0.3963  0.0185 -0.1593
   78SOPE  H15R 7006   7.025   2.965   4.941 -0.1371 -0.8857 -0.7727
   78SOPE  H15S 7007   6.904   2.855   4.997 -1.0443  2.0949 -1.3850
   78SOPE  C216 7008   7.098   2.782   5.019  0.3164 -0.1051  0.4078
   78SOPE  H16R 7009   7.056   2.697   5.076 -2.9567  1.4367  0.5106
   78SOPE  H16S 7010   7.193   2.810   5.069  0.3953  0.3059  0.0425
   78SOPE  C217 7011   7.127   2.743   4.882  0.3320  0.0954 -0.3805
   78SOPE  H17R 7012   7.195   2.821   4.842 -1.4305  1.8269 -0.1130
   78SOPE  H17S 7013   7.034   2.728   4.823 -0.4674  1.0077  0.6183
   78SOPE  C218 7014   7.197   2.606   4.891 -0.9858  0.7184  0.0008
   78SOPE  H18R 7015   7.285   2.626   4.956 -0.9148  0.3424  0.0227
   78SOPE  H18S 7016   7.228   2.556   4.797  0.1109  2.9624 -0.9093
   78SOPE  H18T 7017   7.137   2.535   4.951 -0.6945  1.9660  1.8395
   78SOPE   C33 7018   6.400   1.983   6.270  0.7501  0.1671  0.0046
   78SOPE   H3X 7019   6.313   2.052   6.258 -0.3330 -0.2563  3.9478
   78SOPE   H3Y 7020   6.398   1.915   6.183 -1.1895 -0.5031  0.5177
   78SOPE   C34 7021   6.540   2.048   6.254 -0.1842  0.1730  0.7151
   78SOPE   H4X 7022   6.628   1.988   6.286  0.1649  0.7097  0.7615
   78SOPE   H4Y 7023   6.523   2.134   6.321 -3.0786 -0.4579  0.9371
   78SOPE   C35 7024   6.564   2.090   6.112 -0.4554 -0.0882  0.6057
   78SOPE   H5X 7025   6.524   2.011   6.045 -0.6154 -0.1828  0.8095
   78SOPE   H5Y 7026   6.673   2.093   6.091 -0.2026  0.2332  1.8786
   78SOPE   C36 7027   6.494   2.216   6.062 -0.1293  0.0629 -0.0660
   78SOPE   H6X 7028   6.538   2.298   6.123  0.5883 -0.1925 -0.2239
   78SOPE   H6Y 7029   6.386   2.203   6.084  0.2082 -2.2909  0.3737
   78SOPE   C37 7030   6.522   2.237   5.915  0.2563 -0.2850  0.1143
   78SOPE   H7X 7031   6.509   2.137   5.868  0.8898  0.0959 -0.9180
   78SOPE   H7Y 7032   6.628   2.267   5.898  0.4686 -0.8987  0.3229
   78SOPE   C38 7033   6.423   2.334   5.854  0.0039  0.3354 -0.8110
   78SOPE   H8X 7034   6.443   2.439   5.884 -0.1877 -0.1939  1.3573
   78SOPE   H8Y 7035   6.325   2.313   5.901  0.6394 -1.4635 -0.2114
   78SOPE   C39 7036   6.412   2.323   5.698 -0.0204 -0.0906  0.0757
   78SOPE   H9X 7037   6.381   2.422   5.658  1.0071  0.8846  1.6088
   78SOPE   H9Y 7038   6.333   2.247   5.680 -0.9761  0.5085  1.5437
   78SOPE  C310 7039   6.531   2.285   5.597 -0.1956 -0.2580 -0.2782
   78SOPE  H10X 7040   6.552   2.177   5.608 -1.4706 -0.5622 -0.6673
   78SOPE  H10Y 7041   6.623   2.344   5.620  0.1730 -0.8932 -0.0911
   78SOPE  C311 7042   6.485   2.313   5.449 -0.4206 -0.2261  0.0824
   78SOPE  H11X 7043   6.574   2.302   5.383 -1.2710 -2.6400 -0.7378
   78SOPE  H11Y 7044   6.464   2.422   5.450  1.8061  0.2711  1.1456
   78SOPE  C312 7045   6.372   2.232   5.389  0.8377 -0.1919 -0.3059
   78SOPE  H12X 7046   6.280   2.240   5.452 -1.6194  1.4170 -3.7522
   78SOPE  H12Y 7047   6.391   2.123   5.394 -1.0842 -0.5818 -0.7655
   78SOPE  C313 7048   6.340   2.255   5.245 -0.4208 -0.2313  0.6407
   78SOPE  H13X 7049   6.430   2.281   5.185 -1.6383  0.9846 -0.7279
   78SOPE  H13Y 7050   6.276   2.345   5.233 -1.3886 -0.6287  2.4995
   78SOPE  C314 7051   6.256   2.136   5.188  0.0066  0.3328 -0.2410
   78SOPE  H14X 7052   6.159   2.140   5.240  0.4901  1.2942  0.6271
   78SOPE  H14Y 7053   6.310   2.044   5.220 -1.6112 -0.1173  1.3150
   78SOPE  C315 7054   6.241   2.151   5.037  0.5748  0.2074  0.0146
   78SOPE  H15X 7055   6.210   2.055   4.990  2.9990  0.6570 -2.7601
   78SOPE  H15Y 7056   6.341   2.162   4.992  0.7359 -2.8600 -0.5985
   78SOPE  C316 7057   6.156   2.269   4.988  0.1197 -0.2288  0.2094
   78SOPE  H16X 7058   6.149   2.252   4.879  0.0456  2.6780 -0.3345
   78SOPE  H16Y 7059   6.216   2.362   5.002 -2.3526  1.2131  2.1267
   78SOPE  C317 7060   6.012   2.285   5.041  0.5702  0.1437 -0.2324
   78SOPE  H17X 7061   5.966   2.368   4.983 -0.3849 -0.8908 -1.0100
   78SOPE  H17Y 7062   6.006   2.332   5.142 -0.1408 -0.1352 -0.1364
   78SOPE  C318 7063   5.930   2.156   5.045  0.7975  0.0375  0.9788
   78SOPE  H18X 7064   5.943   2.103   4.948  0.1002  0.8312  0.4328
   78SOPE  H18Y 7065   5.823   2.186   5.048  1.1749  1.8465 -0.7665
   78SOPE  H18Z 7066   5.961   2.093   5.131  0.9400 -0.9527  0.2172
   79SOPE     N 7067   2.959   1.480   6.892 -0.4994  0.1259  0.1000
   79SOPE   HN1 7068   2.898   1.562   6.874 -0.0288  0.5366  0.3820
   79SOPE   HN2 7069   2.902   1.421   6.956 -0.8365 -1.6314 -1.6862
   79SOPE   HN3 7070   3.047   1.511   6.937  0.9667 -1.6066 -1.3788
   79SOPE   C12 7071   2.976   1.399   6.769 -0.6450 -0.2074  0.1039
   79SOPE  H12A 7072   2.876   1.378   6.726 -0.1636 -1.1607 -0.5993
   79SOPE  H12B 7073   3.026   1.301   6.788  0.2280 -0.0922 -1.4314
   79SOPE   C11 7074   3.063   1.479   6.667 -0.7186 -0.2020 -0.2201
   79SOPE  H11A 7075   3.088   1.402   6.590  0.2934 -1.4061  1.2636
   79SOPE  H11B 7076   3.161   1.508   6.712 -1.0835 -1.1303  1.2402
   79SOPE     P 7077   3.041   1.732   6.592 -0.2075  0.5071 -0.2501
   79SOPE   O13 7078   3.130   1.754   6.713  0.4922 -0.5845  0.3139
   79SOPE   O14 7079   2.915   1.809   6.586 -0.2799 -0.1583 -0.0862
   79SOPE   O12 7080   2.994   1.584   6.601 -0.2771  0.5069  0.0651
   79SOPE   O11 7081   3.128   1.749   6.454 -0.5903 -0.0690  0.0936
   79SOPE    C1 7082   3.119   1.663   6.348 -0.1138  0.3612 -0.4532
   79SOPE    HA 7083   3.076   1.567   6.382 -0.0516  0.4349 -0.1642
   79SOPE    HB 7084   3.221   1.625   6.325  1.4586  2.6821  2.0781
   79SOPE    C2 7085   3.053   1.728   6.223  0.0021  0.1409  0.6071
   79SOPE    HS 7086   3.087   1.833   6.211 -0.0391 -0.0392 -1.4153
   79SOPE   O21 7087   2.910   1.717   6.245 -0.3794 -0.3586  0.0793
   79SOPE   C21 7088   2.830   1.815   6.201 -0.0917  0.1546  0.5269
   79SOPE   O22 7089   2.875   1.919   6.155  0.3392 -0.5514 -0.3555
   79SOPE   C22 7090   2.680   1.777   6.206 -0.3294  0.6885  0.0551
   79SOPE   H2R 7091   2.661   1.725   6.302  0.9489 -1.0498 -0.5931
   79SOPE   H2S 7092   2.657   1.698   6.132 -0.3651  1.0301 -0.3064
   79SOPE    C3 7093   3.077   1.647   6.092 -0.7965  0.4840 -0.3522
   79SOPE    HX 7094   3.062   1.543   6.129 -1.6790  1.2429  1.5389
   79SOPE    HY 7095   3.181   1.649   6.052 -0.9984  1.3926 -0.8742
   79SOPE   O31 7096   2.985   1.675   5.984 -0.1872 -0.4033  0.0964
   79SOPE   C31 7097   3.022   1.768   5.893  0.5764  0.4497 -0.2820
   79SOPE   O32 7098   3.130   1.828   5.895 -0.9476  0.0669 -0.3882
   79SOPE   C32 7099   2.907   1.785   5.806  0.6222  0.5413 -0.3983
   79SOPE   H2X 7100   2.828   1.833   5.868  0.8734  0.4115  0.0290
   79SOPE   H2Y 7101   2.873   1.687   5.768  0.4476  0.1977  0.6084
   79SOPE   C23 7102   2.576   1.893   6.192  0.1345 -0.0597 -0.6582
   79SOPE   H3R 7103   2.587   1.956   6.283 -0.3481 -1.3393  0.3143
   79SOPE   H3S 7104   2.482   1.836   6.202  0.6541 -0.5634  2.2852
   79SOPE   C24 7105   2.578   1.977   6.064  1.2368 -0.3218 -0.1366
   79SOPE   H4R 7106   2.501   2.056   6.081  2.6236  1.1558 -0.3878
   79SOPE   H4S 7107   2.677   2.024   6.049  1.0022  0.5808  0.9578
   79SOPE   C25 7108   2.542   1.889   5.942 -0.2847  0.1070  0.1301
   79SOPE   H5R 7109   2.616   1.808   5.929  0.1463  0.5574 -0.2826
   79SOPE   H5S 7110   2.443   1.839   5.944 -1.0928  1.5775  3.3566
   79SOPE   C26 7111   2.529   1.969   5.813 -0.0663  0.3700 -0.0802
   79SOPE   H6R 7112   2.432   2.017   5.786 -0.7948 -0.0254  1.6317
   79SOPE   H6S 7113   2.612   2.041   5.798  2.5824 -1.8626  2.6037
   79SOPE   C27 7114   2.527   1.871   5.691  0.0276 -0.4335 -0.1880
   79SOPE   H7R 7115   2.614   1.803   5.698 -0.2431 -0.6093  2.4060
   79SOPE   H7S 7116   2.440   1.804   5.706  0.0002  0.2244  3.8396
   79SOPE   C28 7117   2.501   1.920   5.548  0.1980  0.1253 -0.2059
   79SOPE   H8R 7118   2.474   1.835   5.482  1.3152 -0.6318  0.2865
   79SOPE   H8S 7119   2.415   1.991   5.550 -1.3111 -1.6070 -0.5241
   79SOPE   C29 7120   2.617   1.986   5.486  0.1196 -0.7585  0.4254
   79SOPE   H91 7121   2.680   2.046   5.554 -1.0558  0.5175  0.4331
   79SOPE  C210 7122   2.658   1.973   5.359  0.6059 -0.3483 -0.1435
   79SOPE  H101 7123   2.746   2.029   5.324  0.4429 -0.3063 -0.4916
   79SOPE  C211 7124   2.590   1.887   5.257 -0.2846 -0.5498  0.0012
   79SOPE  H11R 7125   2.484   1.871   5.287 -0.4995  2.9138  1.5570
   79SOPE  H11S 7126   2.649   1.793   5.257 -0.0722 -0.4192 -0.2032
   79SOPE  C212 7127   2.589   1.961   5.117 -0.4074  0.5223  0.2677
   79SOPE  H12R 7128   2.585   2.071   5.128 -0.0943  0.5786 -0.2070
   79SOPE  H12S 7129   2.512   1.928   5.044 -0.6720  0.7087  0.4594
   79SOPE  C213 7130   2.730   1.940   5.041 -0.0848 -0.0773  0.4731
   79SOPE  H13R 7131   2.716   1.837   5.002 -0.1450  0.7957 -1.9728
   79SOPE  H13S 7132   2.812   1.952   5.114 -0.2586  1.1042  0.4880
   79SOPE  C214 7133   2.759   2.040   4.931  0.0331  0.0342  0.3270
   79SOPE  H14R 7134   2.765   2.145   4.967  1.2057  0.7770 -1.8555
   79SOPE  H14S 7135   2.678   2.030   4.855  0.3266 -4.7578  0.3549
   79SOPE  C215 7136   2.890   2.011   4.857 -0.4795 -0.5398 -0.0123
   79SOPE  H15R 7137   2.974   2.031   4.927  0.5842 -1.9845 -0.8390
   79SOPE  H15S 7138   2.909   2.090   4.780 -0.2104 -0.8395 -0.2530
   79SOPE  C216 7139   2.894   1.871   4.792 -0.2921 -0.7131 -0.3822
   79SOPE  H16R 7140   2.905   1.788   4.865  0.0600 -0.0118  0.3680
   79SOPE  H16S 7141   2.991   1.858   4.741  1.0705 -0.3858  2.0041
   79SOPE  C217 7142   2.783   1.865   4.680  0.5661  0.3505  0.3050
   79SOPE  H17R 7143   2.778   1.953   4.612 -3.5217 -0.1217 -0.2326
   79SOPE  H17S 7144   2.692   1.856   4.742  1.4803  0.8862  1.7843
   79SOPE  C218 7145   2.787   1.739   4.594  0.0301 -0.0219 -0.1101
   79SOPE  H18R 7146   2.684   1.717   4.559  0.5697 -1.4528 -0.9081
   79SOPE  H18S 7147   2.830   1.659   4.658  1.9853 -1.2282 -2.7203
   79SOPE  H18T 7148   2.854   1.759   4.507 -1.1671 -0.6060 -1.1961
   79SOPE   C33 7149   2.947   1.879   5.699  0.1991  0.1359 -0.3895
   79SOPE   H3X 7150   3.013   1.961   5.733 -1.8477  2.2278 -1.2045
   79SOPE   H3Y 7151   2.855   1.926   5.656  1.0641 -0.5238 -3.1506
   79SOPE   C34 7152   3.009   1.810   5.579  0.3419 -0.4518 -0.1441
   79SOPE   H4X 7153   2.936   1.734   5.544 -0.0796  0.8796 -2.3630
   79SOPE   H4Y 7154   3.101   1.763   5.619 -1.1361 -3.3515  0.1451
   79SOPE   C35 7155   3.029   1.897   5.449 -0.4530  0.0848  0.5918
   79SOPE   H5X 7156   2.950   1.974   5.433  1.5915  2.1860  0.1737
   79SOPE   H5Y 7157   3.026   1.835   5.356  0.2392 -0.5885  1.0073
   79SOPE   C36 7158   3.161   1.964   5.451 -0.5144  0.1049 -0.4564
   79SOPE   H6X 7159   3.247   1.898   5.476 -0.8803 -0.4963 -0.7576
   79SOPE   H6Y 7160   3.147   2.034   5.537 -2.2614  0.7112 -1.1996
   79SOPE   C37 7161   3.197   2.037   5.319  0.6440 -0.2762 -0.1791
   79SOPE   H7X 7162   3.292   2.093   5.332  0.1388  0.4465  0.4662
   79SOPE   H7Y 7163   3.117   2.110   5.294  0.9251 -0.4851 -1.8082
   79SOPE   C38 7164   3.214   1.943   5.197  0.4231 -0.6052  0.7758
   79SOPE   H8X 7165   3.125   1.889   5.159  2.1267 -1.5366 -2.2233
   79SOPE   H8Y 7166   3.288   1.871   5.239  3.0490  0.3712 -1.8483
   79SOPE   C39 7167   3.290   2.014   5.085  0.3866 -0.4742 -0.0480
   79SOPE   H9X 7168   3.393   2.026   5.125  0.7716 -0.2238 -1.0915
   79SOPE   H9Y 7169   3.238   2.110   5.065 -2.7431 -2.2125 -0.9057
   79SOPE  C310 7170   3.304   1.917   4.960  0.0698 -0.6630  0.8018
   79SOPE  H10X 7171   3.210   1.900   4.904  0.8250  0.8947 -1.0208
   79SOPE  H10Y 7172   3.343   1.822   5.001  2.7502 -0.9946 -2.1859
   79SOPE  C311 7173   3.398   1.977   4.858 -0.3147  0.3535  0.8529
   79SOPE  H11X 7174   3.496   1.998   4.906 -0.5782 -3.2192  3.3377
   79SOPE  H11Y 7175   3.366   2.077   4.823  0.1494  0.1236 -0.3134
   79SOPE  C312 7176   3.421   1.890   4.738  0.4067  0.3613  0.0058
   79SOPE  H12X 7177   3.436   1.951   4.646 -0.1225  1.1872  0.4615
   79SOPE  H12Y 7178   3.320   1.847   4.721  0.3265  1.0281 -1.2931
   79SOPE  C313 7179   3.540   1.795   4.746 -0.4268 -0.3612  0.2420
   79SOPE  H13X 7180   3.558   1.755   4.847 -1.9836  0.5390  0.9137
   79SOPE  H13Y 7181   3.631   1.857   4.734  0.1258 -1.0771  0.6771
   79SOPE  C314 7182   3.532   1.685   4.631  0.0831 -0.7961 -0.3171
   79SOPE  H14X 7183   3.553   1.740   4.536  2.9810 -2.0945 -0.5391
   79SOPE  H14Y 7184   3.430   1.643   4.624 -1.0729  1.7813 -0.0907
   79SOPE  C315 7185   3.639   1.581   4.651  0.5565  0.3286 -0.0628
   79SOPE  H15X 7186   3.742   1.622   4.648 -0.1236  2.1505  0.6058
   79SOPE  H15Y 7187   3.629   1.503   4.572 -1.6565  0.9867 -0.5038
   79SOPE  C316 7188   3.624   1.515   4.787  0.6105  1.5473  0.2235
   79SOPE  H16X 7189   3.518   1.486   4.801  1.0212 -1.3973 -1.9167
   79SOPE  H16Y 7190   3.639   1.576   4.879 -1.8403 -0.4031  2.0634
   79SOPE  C317 7191   3.712   1.393   4.793  0.4377 -0.3160  0.5573
   79SOPE  H17X 7192   3.816   1.425   4.769  0.0517  1.9889  1.6715
   79SOPE  H17Y 7193   3.671   1.329   4.712  1.1834 -1.6798  1.2296
   79SOPE  C318 7194   3.715   1.304   4.916 -0.5357 -0.1337  0.6033
   79SOPE  H18X 7195   3.725   1.380   4.996 -0.3504  0.4551  0.0307
   79SOPE  H18Y 7196   3.800   1.233   4.911  0.1322  0.6821  0.1670
   79SOPE  H18Z 7197   3.621   1.247   4.935 -0.7274 -0.1083 -0.2219
   80SOPE     N 7198   6.775   2.621   6.914 -0.1488  0.2201 -0.4679
   80SOPE   HN1 7199   6.787   2.643   6.813  0.8861 -2.2027 -0.9355
   80SOPE   HN2 7200   6.816   2.527   6.930  2.5648  1.5803  1.3797
   80SOPE   HN3 7201   6.677   2.600   6.943 -0.7964  0.7439 -2.2024
   80SOPE   C12 7202   6.848   2.731   6.995  0.1794 -0.3487  0.3656
   80SOPE  H12A 7203   6.957   2.729   6.974 -0.4077 -1.4820 -3.4314
   80SOPE  H12B 7204   6.832   2.697   7.099  1.0517  0.8072  0.9014
   80SOPE   C11 7205   6.791   2.877   6.986  0.4089  0.3200 -0.0885
   80SOPE  H11A 7206   6.796   2.919   6.883 -0.6235  1.0284  0.1358
   80SOPE  H11B 7207   6.861   2.942   7.041  2.0879 -0.2722 -1.4246
   80SOPE     P 7208   6.559   2.995   7.007  0.4358 -0.2421  0.3641
   80SOPE   O13 7209   6.507   3.047   7.137 -0.7055 -0.6782  0.5279
   80SOPE   O14 7210   6.468   2.922   6.916 -0.8375 -0.4626 -0.1958
   80SOPE   O12 7211   6.664   2.882   7.044  0.3971  0.3224 -0.2206
   80SOPE   O11 7212   6.632   3.106   6.926  0.3031  0.0210 -0.1649
   80SOPE    C1 7213   6.548   3.198   6.852  0.3012  0.1754  1.0645
   80SOPE    HA 7214   6.579   3.304   6.868  1.3691  0.1408 -0.5055
   80SOPE    HB 7215   6.443   3.207   6.886  0.0063  1.0034  0.0123
   80SOPE    C2 7216   6.545   3.160   6.702 -0.4817  0.1900 -0.2201
   80SOPE    HS 7217   6.473   3.075   6.700 -1.0664  0.6572  0.4741
   80SOPE   O21 7218   6.676   3.121   6.647  0.1863 -0.5107  0.2065
   80SOPE   C21 7219   6.672   3.034   6.549 -1.0734 -0.2612 -0.0480
   80SOPE   O22 7220   6.572   2.986   6.495  0.1579 -0.1640 -0.1860
   80SOPE   C22 7221   6.817   2.994   6.507 -0.3955 -0.0704  0.6346
   80SOPE   H2R 7222   6.801   2.897   6.456  2.0836  0.3951 -1.2353
   80SOPE   H2S 7223   6.881   2.973   6.595  1.3113  1.3421 -0.1841
   80SOPE    C3 7224   6.486   3.275   6.616  0.5897  0.4142 -0.0590
   80SOPE    HX 7225   6.552   3.362   6.634 -1.0617  1.7937 -0.4966
   80SOPE    HY 7226   6.392   3.307   6.666  0.9479  1.1692  0.1361
   80SOPE   O31 7227   6.472   3.240   6.475 -0.1534 -0.6020  0.0219
   80SOPE   C31 7228   6.346   3.249   6.431  0.4720 -0.0728 -0.0136
   80SOPE   O32 7229   6.252   3.307   6.485 -0.1471 -0.2495 -0.5514
   80SOPE   C32 7230   6.332   3.168   6.303  0.4994  0.0276 -0.4102
   80SOPE   H2X 7231   6.333   3.061   6.332  0.2926 -0.6068 -2.5721
   80SOPE   H2Y 7232   6.426   3.195   6.249  0.6240  1.7740  0.5816
   80SOPE   C23 7233   6.892   3.093   6.413  0.0301  0.4210  0.1192
   80SOPE   H3R 7234   6.998   3.065   6.399 -0.6636 -2.5672  0.1432
   80SOPE   H3S 7235   6.901   3.192   6.461 -1.7927  1.8895 -2.3560
   80SOPE   C24 7236   6.823   3.119   6.274 -0.5104  0.1745  0.3948
   80SOPE   H4R 7237   6.815   3.022   6.221 -0.8823  1.6714 -2.4427
   80SOPE   H4S 7238   6.721   3.152   6.304 -0.8162 -0.4899  0.1065
   80SOPE   C25 7239   6.898   3.217   6.181 -0.8920  1.0808 -0.6153
   80SOPE   H5R 7240   6.995   3.166   6.160 -1.0241  0.2401  0.6929
   80SOPE   H5S 7241   6.828   3.206   6.096  0.0892 -0.1497 -1.2885
   80SOPE   C26 7242   6.920   3.358   6.232 -0.2936 -0.7512  0.2376
   80SOPE   H6R 7243   6.819   3.399   6.252 -1.7883 -2.2804 -3.2706
   80SOPE   H6S 7244   6.964   3.356   6.334 -4.0970 -3.2500  2.0704
   80SOPE   C27 7245   6.982   3.451   6.127 -0.5125  0.1685  0.0077
   80SOPE   H7R 7246   7.092   3.436   6.125 -0.0896  2.7369  0.3346
   80SOPE   H7S 7247   6.957   3.430   6.021 -1.4565  3.1774 -0.4482
   80SOPE   C28 7248   6.972   3.603   6.173 -0.2188  0.1529 -0.0464
   80SOPE   H8R 7249   6.866   3.632   6.159  0.6926  3.1943 -1.6810
   80SOPE   H8S 7250   7.008   3.599   6.278  0.6115  0.2645 -0.3162
   80SOPE   C29 7251   7.058   3.703   6.097  0.8198  0.0471  0.1217
   80SOPE   H91 7252   7.149   3.728   6.153  1.0688 -0.4936 -0.0378
   80SOPE  C210 7253   7.051   3.754   5.981 -0.1043  0.4039 -0.3338
   80SOPE  H101 7254   7.124   3.832   5.958  0.7711 -0.4368 -0.4776
   80SOPE  C211 7255   6.950   3.731   5.872  0.1559  0.5051 -0.6222
   80SOPE  H11R 7256   6.900   3.825   5.839 -0.9680 -0.5150 -1.9656
   80SOPE  H11S 7257   6.870   3.661   5.907  0.1617 -1.0574 -3.4378
   80SOPE  C212 7258   7.015   3.683   5.751 -0.0150  0.7432  0.5274
   80SOPE  H12R 7259   7.119   3.721   5.737 -0.7826  2.3011 -1.4562
   80SOPE  H12S 7260   6.965   3.706   5.655 -1.8617 -1.5746  0.8684
   80SOPE  C213 7261   7.033   3.527   5.743  0.0701  0.0558 -0.0500
   80SOPE  H13R 7262   7.056   3.495   5.847  1.3550 -1.5915 -0.7983
   80SOPE  H13S 7263   7.119   3.501   5.677  0.4827  0.6735  0.2357
   80SOPE  C214 7264   6.914   3.445   5.694  0.4518  0.3202  0.3693
   80SOPE  H14R 7265   6.874   3.492   5.602 -1.4539 -0.1009  0.9517
   80SOPE  H14S 7266   6.839   3.455   5.775 -0.6009 -0.5178 -0.4841
   80SOPE  C215 7267   6.956   3.302   5.665 -0.1875 -0.1677  0.4663
   80SOPE  H15R 7268   7.036   3.305   5.588 -0.5603  2.4496  0.0772
   80SOPE  H15S 7269   6.872   3.245   5.619 -0.1692  0.3461 -0.2323
   80SOPE  C216 7270   6.993   3.220   5.787 -0.3844 -0.0861 -0.4081
   80SOPE  H16R 7271   6.902   3.224   5.851 -0.5657 -1.7914 -0.5045
   80SOPE  H16S 7272   7.075   3.271   5.841 -0.7595  1.2667 -1.0571
   80SOPE  C217 7273   7.012   3.073   5.758 -0.7236  0.1075  0.4615
   80SOPE  H17R 7274   7.092   3.061   5.682  0.6723  0.7072  1.7604
   80SOPE  H17S 7275   6.914   3.037   5.722  0.1634 -2.6544  0.5494
   80SOPE  C218 7276   7.031   2.991   5.885 -0.0610 -0.2315  0.1260
   80SOPE  H18R 7277   6.961   3.023   5.965  2.1944  0.4082  1.9528
   80SOPE  H18S 7278   7.127   3.024   5.930 -0.2433 -2.7452  2.5960
   80SOPE  H18T 7279   7.020   2.881   5.878  0.5847 -0.4659  2.1399
   80SOPE   C33 7280   6.203   3.203   6.227  0.5486  0.1982 -0.0536
   80SOPE   H3X 7281   6.207   3.311   6.204  2.3981  0.4094  1.0884
   80SOPE   H3Y 7282   6.107   3.195   6.283 -0.4076 -1.8416 -1.8430
   80SOPE   C34 7283   6.185   3.128   6.098 -0.0216  0.5885  0.6855
   80SOPE   H4X 7284   6.086   3.144   6.050  0.4361  1.0277 -0.1388
   80SOPE   H4Y 7285   6.193   3.018   6.114  0.3395  0.5792  0.4517
   80SOPE   C35 7286   6.293   3.168   5.994  0.0778  0.5469 -0.1075
   80SOPE   H5X 7287   6.393   3.143   6.035 -0.4739 -2.5715 -0.4348
   80SOPE   H5Y 7288   6.289   3.279   5.988  2.5045  0.6440 -4.6953
   80SOPE   C36 7289   6.261   3.112   5.857 -0.4175  0.0353  0.4696
   80SOPE   H6X 7290   6.153   3.133   5.842 -0.3984 -0.6508 -0.7621
   80SOPE   H6Y 7291   6.282   3.006   5.833  1.0368  0.7865 -1.8205
   80SOPE   C37 7292   6.329   3.195   5.747 -0.0307 -0.0148 -0.6619
   80SOPE   H7X 7293   6.439   3.194   5.762 -0.2564  1.3649  1.5838
   80SOPE   H7Y 7294   6.301   3.303   5.749 -0.3980 -0.0825  2.1039
   80SOPE   C38 7295   6.285   3.137   5.612  0.0336  0.0359  0.3994
   80SOPE   H8X 7296   6.177   3.159   5.605  0.0119  0.7997  2.5545
   80SOPE   H8Y 7297   6.298   3.026   5.613  1.3183  0.1034 -1.7992
   80SOPE   C39 7298   6.356   3.203   5.496 -0.2638 -0.7620  0.7448
   80SOPE   H9X 7299   6.463   3.222   5.522  0.9175 -0.5135 -3.5743
   80SOPE   H9Y 7300   6.306   3.297   5.465  0.8671 -0.7825 -1.3058
   80SOPE  C310 7301   6.349   3.116   5.364 -0.3088  0.1182  1.1796
   80SOPE  H10X 7302   6.245   3.091   5.334  0.5539 -0.7073 -1.3167
   80SOPE  H10Y 7303   6.407   3.025   5.386  0.3761  0.5681  1.2570
   80SOPE  C311 7304   6.416   3.181   5.243  0.2779 -0.9707 -0.3819
   80SOPE  H11X 7305   6.369   3.281   5.235  0.7315 -0.6645  0.6081
   80SOPE  H11Y 7306   6.389   3.126   5.150 -2.1999  0.3881 -0.5328
   80SOPE  C312 7307   6.568   3.158   5.253 -0.0130  1.0244 -0.0930
   80SOPE  H12X 7308   6.598   3.051   5.244  0.1416  0.8188  2.2591
   80SOPE  H12Y 7309   6.605   3.194   5.351 -0.0948  1.7942 -0.3395
   80SOPE  C313 7310   6.641   3.233   5.140 -0.5660  1.0912  0.1654
   80SOPE  H13X 7311   6.749   3.212   5.158 -1.0789 -3.0884 -0.5374
   80SOPE  H13Y 7312   6.617   3.341   5.147 -3.0473  0.5683  0.4856
   80SOPE  C314 7313   6.600   3.179   5.001  0.0222 -0.1837 -0.0445
   80SOPE  H14X 7314   6.512   3.231   4.959  1.3533  3.6756  1.5355
   80SOPE  H14Y 7315   6.577   3.071   5.014  3.4656 -1.0273  0.1748
   80SOPE  C315 7316   6.714   3.177   4.903 -0.2592  0.0916 -0.2739
   80SOPE  H15X 7317   6.679   3.119   4.815 -1.4074  0.5036 -0.0994
   80SOPE  H15Y 7318   6.804   3.135   4.954 -0.0577  0.6692 -0.1439
   80SOPE  C316 7319   6.760   3.318   4.863  0.0380  0.5611 -0.1386
   80SOPE  H16X 7320   6.807   3.366   4.951  0.5873 -0.7224  0.2950
   80SOPE  H16Y 7321   6.670   3.373   4.826  0.3850  0.8980 -0.4918
   80SOPE  C317 7322   6.857   3.321   4.744 -0.0372  0.7371  0.6087
   80SOPE  H17X 7323   6.864   3.424   4.701  2.4343  0.8437  1.1172
   80SOPE  H17Y 7324   6.816   3.262   4.659  2.3977 -1.2226  0.6634
   80SOPE  C318 7325   7.003   3.279   4.781 -0.4789 -0.4902  0.1549
   80SOPE  H18X 7326   6.988   3.183   4.835 -3.3086  0.1795  0.7509
   80SOPE  H18Y 7327   7.051   3.358   4.841 -1.1725  0.5042 -0.5690
   80SOPE  H18Z 7328   7.061   3.260   4.688  1.0394  2.5231  0.3816
   81SOPE     N 7329   4.491   5.684   6.923 -0.7275 -0.4757  0.0096
   81SOPE   HN1 7330   4.542   5.773   6.933 -1.4624 -0.2367  2.2721
   81SOPE   HN2 7331   4.403   5.696   6.868 -1.2388  1.4752  1.1687
   81SOPE   HN3 7332   4.463   5.651   7.018 -2.6644  1.0413  0.0291
   81SOPE   C12 7333   4.588   5.598   6.840 -0.0131 -0.7021 -0.4010
   81SOPE  H12A 7334   4.647   5.538   6.913  2.6395  1.4798 -0.5508
   81SOPE  H12B 7335   4.665   5.664   6.794 -1.4022  1.3211  0.0049
   81SOPE   C11 7336   4.518   5.511   6.729  0.8042  0.2006 -0.5696
   81SOPE  H11A 7337   4.440   5.450   6.779  0.5552 -0.3778 -1.6359
   81SOPE  H11B 7338   4.597   5.441   6.694  1.1386 -0.3298  1.1446
   81SOPE     P 7339   4.320   5.627   6.605  0.2255 -0.2597  0.2560
   81SOPE   O13 7340   4.314   5.724   6.492 -0.2774 -0.5251 -0.2218
   81SOPE   O14 7341   4.277   5.667   6.740  0.0639  0.6392  0.4731
   81SOPE   O12 7342   4.475   5.584   6.619  0.0854 -0.3720 -0.1043
   81SOPE   O11 7343   4.251   5.488   6.568 -0.0628 -0.0230 -0.1961
   81SOPE    C1 7344   4.226   5.467   6.425 -0.0022  0.1856 -0.4893
   81SOPE    HA 7345   4.173   5.553   6.378 -1.1668  0.9827  2.0567
   81SOPE    HB 7346   4.153   5.384   6.414 -0.3717  0.1358  1.7351
   81SOPE    C2 7347   4.351   5.440   6.340 -0.2159  0.1607 -0.0572
   81SOPE    HS 7348   4.398   5.540   6.329  1.2401 -0.7853 -4.0773
   81SOPE   O21 7349   4.314   5.395   6.208  0.4181 -0.8263 -0.0430
   81SOPE   C21 7350   4.356   5.469   6.105  0.1542  0.1175 -0.7095
   81SOPE   O22 7351   4.432   5.564   6.111 -0.1877 -0.1465 -0.3861
   81SOPE   C22 7352   4.303   5.403   5.983  0.5661 -0.5930 -0.1596
   81SOPE   H2R 7353   4.198   5.436   5.966  0.9488  0.7944  0.0817
   81SOPE   H2S 7354   4.309   5.292   5.993  1.4195 -0.7555 -2.0352
   81SOPE    C3 7355   4.438   5.328   6.412  0.0707 -0.1295  0.3088
   81SOPE    HX 7356   4.370   5.248   6.450 -0.3160  0.4944  0.9357
   81SOPE    HY 7357   4.489   5.367   6.502  1.8667 -0.3879 -0.5675
   81SOPE   O31 7358   4.536   5.263   6.330 -0.0625 -0.5115  0.4833
   81SOPE   C31 7359   4.642   5.221   6.385 -0.1834  0.2086 -0.0289
   81SOPE   O32 7360   4.679   5.238   6.501 -0.2198 -0.5072  0.5101
   81SOPE   C32 7361   4.715   5.139   6.285 -0.0662 -0.0734  0.5001
   81SOPE   H2X 7362   4.739   5.195   6.192  0.6232  0.2274  0.8518
   81SOPE   H2Y 7363   4.661   5.045   6.262  3.1062 -1.7046 -1.0306
   81SOPE   C23 7364   4.381   5.433   5.850  0.0856  0.4841 -0.2446
   81SOPE   H3R 7365   4.489   5.416   5.867 -0.1030  0.4973  1.0581
   81SOPE   H3S 7366   4.392   5.538   5.816  1.0079 -0.5007 -3.3137
   81SOPE   C24 7367   4.310   5.360   5.738  0.5356  0.4343 -0.2551
   81SOPE   H4R 7368   4.296   5.256   5.772  0.6802  1.3412  2.9406
   81SOPE   H4S 7369   4.214   5.415   5.727  1.5250  2.3126  0.0192
   81SOPE   C25 7370   4.384   5.384   5.610  0.0977 -0.4065 -0.6423
   81SOPE   H5R 7371   4.404   5.492   5.594 -1.1619 -0.0392  0.1513
   81SOPE   H5S 7372   4.486   5.341   5.608 -0.1958 -1.0961 -1.1867
   81SOPE   C26 7373   4.323   5.321   5.484  0.5608 -0.0644  0.1525
   81SOPE   H6R 7374   4.313   5.211   5.488 -1.8639  0.1025 -0.0256
   81SOPE   H6S 7375   4.218   5.357   5.490  0.6033  0.0009  0.5471
   81SOPE   C27 7376   4.387   5.353   5.350  0.5117 -0.3572  0.3926
   81SOPE   H7R 7377   4.402   5.463   5.351 -1.0556 -0.1192  2.1030
   81SOPE   H7S 7378   4.486   5.305   5.335  1.4938  1.8015 -0.2741
   81SOPE   C28 7379   4.293   5.322   5.227  0.7826 -0.5788 -0.1663
   81SOPE   H8R 7380   4.194   5.365   5.253  1.2055 -0.4289  1.3084
   81SOPE   H8S 7381   4.335   5.378   5.140  0.6420  1.7423  1.1771
   81SOPE   C29 7382   4.274   5.172   5.190  0.2271 -0.3488 -0.1500
   81SOPE   H91 7383   4.211   5.114   5.259 -0.1914 -1.3342 -1.3179
   81SOPE  C210 7384   4.334   5.108   5.086  0.4739  1.0747  0.2341
   81SOPE  H101 7385   4.320   4.999   5.074  0.0391  1.2494 -1.0145
   81SOPE  C211 7386   4.429   5.166   4.987  0.2972 -0.0271  0.0287
   81SOPE  H11R 7387   4.486   5.091   4.929 -0.6651  0.1638 -1.2137
   81SOPE  H11S 7388   4.495   5.241   5.035 -0.1835  0.4017  0.0219
   81SOPE  C212 7389   4.359   5.239   4.875 -0.4586 -0.3029  0.4529
   81SOPE  H12R 7390   4.427   5.307   4.819  0.5830 -0.7366  1.1610
   81SOPE  H12S 7391   4.281   5.310   4.909  0.6999  0.9323  0.6544
   81SOPE  C213 7392   4.298   5.139   4.770  0.3751  0.5373  0.0508
   81SOPE  H13R 7393   4.243   5.050   4.810  2.0327 -0.1411  0.9116
   81SOPE  H13S 7394   4.375   5.083   4.713 -0.1255 -1.9930  1.7021
   81SOPE  C214 7395   4.202   5.206   4.666  0.0339  0.1735 -0.6176
   81SOPE  H14R 7396   4.243   5.293   4.611  1.3104 -0.2760 -0.4215
   81SOPE  H14S 7397   4.112   5.235   4.724  2.4716  1.4629  2.7871
   81SOPE  C215 7398   4.167   5.089   4.572 -0.0348 -0.5339  0.1862
   81SOPE  H15R 7399   4.075   5.114   4.514  1.0876 -1.5248 -2.1764
   81SOPE  H15S 7400   4.138   5.001   4.633  0.5429 -1.0431 -0.2596
   81SOPE  C216 7401   4.257   5.049   4.453  0.3429 -0.7287  0.2509
   81SOPE  H16R 7402   4.360   5.021   4.481  0.9620  0.2877 -0.9112
   81SOPE  H16S 7403   4.263   5.142   4.392 -1.3465 -0.3119  0.6641
   81SOPE  C217 7404   4.194   4.944   4.357  0.0055 -0.3576 -0.0577
   81SOPE  H17R 7405   4.087   4.971   4.350  0.4358  1.1118 -1.6330
   81SOPE  H17S 7406   4.204   4.844   4.404  0.3818 -0.5792 -0.6065
   81SOPE  C218 7407   4.253   4.944   4.216 -0.2484  0.1497  0.3408
   81SOPE  H18R 7408   4.280   5.048   4.187  0.5321 -0.1610 -0.0785
   81SOPE  H18S 7409   4.184   4.896   4.144 -0.8296  2.7084 -0.9488
   81SOPE  H18T 7410   4.344   4.881   4.213 -1.3623 -1.4970 -2.3268
   81SOPE   C33 7411   4.853   5.086   6.336 -0.3420  0.2556  0.3419
   81SOPE   H3X 7412   4.840   5.040   6.437  1.4370  0.5952  0.7493
   81SOPE   H3Y 7413   4.922   5.172   6.336 -1.2501  1.0260 -1.0414
   81SOPE   C34 7414   4.914   4.973   6.250  0.3053 -0.0033  0.5833
   81SOPE   H4X 7415   4.840   4.891   6.250 -0.2826  0.4958 -0.4584
   81SOPE   H4Y 7416   5.005   4.926   6.292  1.0424 -0.4955 -1.4568
   81SOPE   C35 7417   4.939   5.022   6.109  0.3956  0.1959 -0.3549
   81SOPE   H5X 7418   5.020   5.098   6.111 -0.9880  1.7060  0.3351
   81SOPE   H5Y 7419   4.852   5.064   6.054  0.7195  1.2713 -0.0766
   81SOPE   C36 7420   4.986   4.908   6.026 -0.0596  0.5003 -0.1103
   81SOPE   H6X 7421   4.905   4.834   6.006  1.6997 -1.2020 -1.3203
   81SOPE   H6Y 7422   5.066   4.855   6.082 -1.5922  1.4736  3.2575
   81SOPE   C37 7423   5.041   4.952   5.894 -0.3895  0.1784 -0.5168
   81SOPE   H7X 7424   4.961   5.008   5.842 -2.7787 -0.5283  2.1415
   81SOPE   H7Y 7425   5.067   4.862   5.835  3.0181  0.1975  0.7018
   81SOPE   C38 7426   5.168   5.048   5.893  0.0030  0.1557  0.4126
   81SOPE   H8X 7427   5.250   4.987   5.935  0.7796 -0.3783 -1.7549
   81SOPE   H8Y 7428   5.160   5.131   5.967  1.4868  0.6853  0.0030
   81SOPE   C39 7429   5.199   5.094   5.752  0.5437  0.2251 -0.8072
   81SOPE   H9X 7430   5.183   5.014   5.677 -1.5023  0.6764 -0.9196
   81SOPE   H9Y 7431   5.307   5.117   5.753  0.9792 -1.7090  1.1269
   81SOPE  C310 7432   5.115   5.206   5.699  0.4338 -0.0164 -0.0330
   81SOPE  H10X 7433   5.101   5.286   5.775  1.1036  0.1907 -0.1272
   81SOPE  H10Y 7434   5.011   5.167   5.688  0.0451  0.3958  1.8203
   81SOPE  C311 7435   5.166   5.251   5.558 -0.3017 -0.2275  0.3498
   81SOPE  H11X 7436   5.172   5.158   5.497 -1.1347  0.7825 -1.3438
   81SOPE  H11Y 7437   5.264   5.302   5.566 -0.2923 -0.0613 -0.6423
   81SOPE  C312 7438   5.071   5.352   5.484 -0.4806 -0.4250  0.0504
   81SOPE  H12X 7439   5.049   5.443   5.543 -1.8431  1.8087 -3.6027
   81SOPE  H12Y 7440   4.978   5.295   5.460 -0.8358  0.6333 -1.2090
   81SOPE  C313 7441   5.126   5.393   5.346 -0.4174 -0.2638 -0.4128
   81SOPE  H13X 7442   5.160   5.299   5.296 -2.0564 -1.5184  0.7429
   81SOPE  H13Y 7443   5.208   5.465   5.367 -0.6060  0.2821 -1.4584
   81SOPE  C314 7444   5.023   5.470   5.274 -0.1250  0.0864  0.6707
   81SOPE  H14X 7445   5.073   5.543   5.208  0.0141 -0.0654  0.6077
   81SOPE  H14Y 7446   4.969   5.537   5.345  1.0510  1.4953  0.2856
   81SOPE  C315 7447   4.916   5.393   5.191 -0.2398 -0.1094 -0.4411
   81SOPE  H15X 7448   4.831   5.356   5.252  0.1898  0.2620  0.3979
   81SOPE  H15Y 7449   4.955   5.302   5.140 -0.3649  0.3543 -1.3878
   81SOPE  C316 7450   4.869   5.482   5.086  0.5623 -0.4293  0.0418
   81SOPE  H16X 7451   4.959   5.516   5.030  1.6297 -2.9950  0.0915
   81SOPE  H16Y 7452   4.831   5.570   5.143 -1.5138 -1.1044 -0.1860
   81SOPE  C317 7453   4.750   5.428   5.014 -0.1474 -0.4669 -0.6531
   81SOPE  H17X 7454   4.695   5.514   4.968 -0.9511  1.6313  3.7450
   81SOPE  H17Y 7455   4.686   5.368   5.082  1.9686 -0.9931  0.9678
   81SOPE  C318 7456   4.786   5.326   4.907 -0.2181 -0.2072  0.1398
   81SOPE  H18X 7457   4.873   5.260   4.927  0.1356 -0.0890 -0.9913
   81SOPE  H18Y 7458   4.825   5.382   4.819  2.1998  0.4018  1.4956
   81SOPE  H18Z 7459   4.700   5.265   4.873  0.6063 -2.5302  1.9911
   82SOPE     N 7460   1.619   0.452   6.640  0.4657  0.2913 -0.1347
   82SOPE   HN1 7461   1.532   0.396   6.629 -0.3995  1.1178  1.9810
   82SOPE   HN2 7462   1.665   0.440   6.547 -0.8163  0.5755 -0.8353
   82SOPE   HN3 7463   1.676   0.398   6.708 -0.7067 -0.9765 -0.1106
   82SOPE   C12 7464   1.590   0.589   6.697 -0.4305 -0.7138 -0.3025
   82SOPE  H12A 7465   1.662   0.665   6.659 -2.3133  2.5955  2.1270
   82SOPE  H12B 7466   1.599   0.583   6.808  0.7078  1.9416 -0.1757
   82SOPE   C11 7467   1.449   0.637   6.663 -0.7248 -0.4222  0.0225
   82SOPE  H11A 7468   1.388   0.562   6.718 -0.5387 -0.3264  0.3606
   82SOPE  H11B 7469   1.421   0.616   6.558  0.3493  0.3994 -0.4419
   82SOPE     P 7470   1.279   0.822   6.745 -0.0455 -0.0649 -0.4519
   82SOPE   O13 7471   1.269   0.967   6.706 -0.2147  0.1931  0.2567
   82SOPE   O14 7472   1.258   0.782   6.887  0.1982  0.7820 -0.4842
   82SOPE   O12 7473   1.417   0.770   6.704  0.0395  0.1364  0.1913
   82SOPE   O11 7474   1.177   0.741   6.659 -0.5746  0.2995 -0.7507
   82SOPE    C1 7475   1.153   0.781   6.525  0.2581 -0.2243  0.3041
   82SOPE    HA 7476   1.232   0.726   6.468 -0.2141 -0.1683 -0.4226
   82SOPE    HB 7477   1.167   0.889   6.503  0.4766 -0.3961 -0.4468
   82SOPE    C2 7478   1.017   0.737   6.470 -0.1974  0.4030  0.3047
   82SOPE    HS 7479   1.004   0.643   6.528 -0.4842  1.5921  2.2411
   82SOPE   O21 7480   1.019   0.718   6.330 -0.1958  0.8446  0.3795
   82SOPE   C21 7481   0.925   0.646   6.282  0.3184 -0.0350  0.3078
   82SOPE   O22 7482   0.865   0.552   6.336  0.9716  0.6017  0.3442
   82SOPE   C22 7483   0.895   0.701   6.148 -0.0411 -0.0686  0.6709
   82SOPE   H2R 7484   0.994   0.735   6.110  0.4258 -1.0327  0.9806
   82SOPE   H2S 7485   0.833   0.793   6.156  0.8981  1.0370 -2.8648
   82SOPE    C3 7486   0.903   0.837   6.510  0.1368  0.4197  1.0450
   82SOPE    HX 7487   0.917   0.942   6.478 -0.4475  0.5685  1.2564
   82SOPE    HY 7488   0.919   0.835   6.620  0.2568  0.0163  1.0206
   82SOPE   O31 7489   0.760   0.799   6.488  0.1034  0.3987 -0.1541
   82SOPE   C31 7490   0.677   0.822   6.587 -0.8849 -0.1921 -0.2030
   82SOPE   O32 7491   0.708   0.870   6.697  0.7727 -0.0908  0.2069
   82SOPE   C32 7492   0.536   0.779   6.536 -0.1438  0.6355 -0.3182
   82SOPE   H2X 7493   0.468   0.788   6.623  0.5311 -1.0317  0.4280
   82SOPE   H2Y 7494   0.533   0.675   6.498 -0.9197  1.1216 -1.6862
   82SOPE   C23 7495   0.830   0.600   6.048 -0.2479 -0.3361 -0.3401
   82SOPE   H3R 7496   0.733   0.579   6.098  0.0974 -1.1688 -0.0114
   82SOPE   H3S 7497   0.890   0.508   6.036  0.7564 -0.0503  1.8950
   82SOPE   C24 7498   0.805   0.661   5.909  0.5938  0.2857 -0.6590
   82SOPE   H4R 7499   0.740   0.751   5.919  2.8675  2.0081 -0.3435
   82SOPE   H4S 7500   0.896   0.705   5.862  0.2429 -0.3555 -1.9671
   82SOPE   C25 7501   0.737   0.570   5.812 -1.1997 -0.9612  0.3821
   82SOPE   H5R 7502   0.774   0.466   5.821  1.7852 -0.0194 -0.1359
   82SOPE   H5S 7503   0.626   0.572   5.817 -1.3811 -1.5385 -1.9700
   82SOPE   C26 7504   0.763   0.604   5.664  0.0832 -0.5446 -0.5050
   82SOPE   H6R 7505   0.722   0.706   5.642 -0.0107 -0.8104 -1.6240
   82SOPE   H6S 7506   0.869   0.616   5.633 -0.4705 -0.2469 -2.4716
   82SOPE   C27 7507   0.706   0.497   5.565 -0.0078 -0.6334 -0.5542
   82SOPE   H7R 7508   0.752   0.397   5.577 -1.7368 -1.4321 -0.2176
   82SOPE   H7S 7509   0.602   0.472   5.597  0.7191 -1.1226  1.5666
   82SOPE   C28 7510   0.695   0.552   5.426  0.6627 -0.0517 -0.1301
   82SOPE   H8R 7511   0.609   0.503   5.376  1.1131 -2.6598  1.4781
   82SOPE   H8S 7512   0.672   0.660   5.433  2.0856  0.1687  1.6684
   82SOPE   C29 7513   0.827   0.530   5.356 -0.4605 -0.1465  1.1820
   82SOPE   H91 7514   0.915   0.571   5.407 -0.1695 -1.6672  1.9681
   82SOPE  C210 7515   0.841   0.481   5.223  0.2093  0.5279 -0.7689
   82SOPE  H101 7516   0.945   0.466   5.192  0.9663  1.7307  0.9902
   82SOPE  C211 7517   0.729   0.440   5.135  0.0317 -0.3897  0.4773
   82SOPE  H11R 7518   0.637   0.464   5.192  0.8973 -1.7747  2.5679
   82SOPE  H11S 7519   0.730   0.329   5.122  1.4327 -0.3409  0.0283
   82SOPE  C212 7520   0.707   0.511   4.996 -0.0357  0.1506 -0.1528
   82SOPE  H12R 7521   0.806   0.516   4.945 -0.8495  0.0171 -1.8122
   82SOPE  H12S 7522   0.679   0.618   5.002  1.8944  0.6393  1.1789
   82SOPE  C213 7523   0.593   0.438   4.918  0.0712 -0.1229 -0.6124
   82SOPE  H13R 7524   0.498   0.462   4.970  1.5047 -1.0557  2.6773
   82SOPE  H13S 7525   0.604   0.327   4.921  2.2126  0.0620  1.4804
   82SOPE  C214 7526   0.581   0.489   4.767 -0.2606  0.9248  0.2545
   82SOPE  H14R 7527   0.676   0.539   4.737 -0.0290  0.5413  0.3445
   82SOPE  H14S 7528   0.498   0.563   4.765  0.0375  1.2801  0.5645
   82SOPE  C215 7529   0.537   0.379   4.670  0.3515 -0.5128  0.3853
   82SOPE  H15R 7530   0.597   0.288   4.686  1.2517 -0.3410 -1.6453
   82SOPE  H15S 7531   0.539   0.421   4.567  0.4012  0.1940  0.6649
   82SOPE  C216 7532   0.393   0.322   4.710 -0.2942  0.4242 -0.4092
   82SOPE  H16R 7533   0.316   0.402   4.716 -0.1994  0.4177  1.2634
   82SOPE  H16S 7534   0.409   0.279   4.811  0.0098 -0.5571 -0.8597
   82SOPE  C217 7535   0.346   0.220   4.596  0.8806  0.6881 -0.4473
   82SOPE  H17R 7536   0.295   0.273   4.512  0.4276 -1.2562 -1.4687
   82SOPE  H17S 7537   0.270   0.152   4.640 -0.1860  0.5194 -2.4496
   82SOPE  C218 7538   0.448   0.129   4.523 -0.4869  0.5994 -0.3077
   82SOPE  H18R 7539   0.403   0.030   4.501 -0.2188  0.3300  0.3383
   82SOPE  H18S 7540   0.535   0.108   4.588 -0.8305 -1.7273 -0.5327
   82SOPE  H18T 7541   0.483   0.171   4.426  1.9243  1.0264  0.6770
   82SOPE   C33 7542   0.478   0.867   6.420  0.7483 -0.8111 -0.2332
   82SOPE   H3X 7543   0.488   0.974   6.447  1.2955 -0.0252 -3.1455
   82SOPE   H3Y 7544   0.369   0.842   6.418  0.5036  0.1558  0.4143
   82SOPE   C34 7545   0.526   0.829   6.287  0.0029  0.1494 -0.2836
   82SOPE   H4X 7546   0.512   0.720   6.275 -1.5863 -0.1696  3.1329
   82SOPE   H4Y 7547   0.635   0.833   6.269  0.5695 -1.2934  2.3262
   82SOPE   C35 7548   0.450   0.912   6.175  0.4971  0.3847 -0.3881
   82SOPE   H5X 7549   0.468   1.020   6.189 -0.4654  0.5565 -0.3626
   82SOPE   H5Y 7550   0.342   0.898   6.201 -0.0710  3.1839 -1.0069
   82SOPE   C36 7551   0.486   0.847   6.041  1.1096 -0.0315 -0.1006
   82SOPE   H6X 7552   0.466   0.738   6.042  1.1817 -0.0464 -0.2737
   82SOPE   H6Y 7553   0.596   0.859   6.031  1.0808 -0.3839 -0.8938
   82SOPE   C37 7554   0.404   0.897   5.922 -0.6600 -0.0421  0.3611
   82SOPE   H7X 7555   0.414   1.007   5.908 -0.5623 -0.1303 -0.2987
   82SOPE   H7Y 7556   0.295   0.884   5.932 -0.4885 -1.8926  0.1681
   82SOPE   C38 7557   0.443   0.834   5.786 -0.2980  0.9214  0.6426
   82SOPE   H8X 7558   0.414   0.726   5.786 -2.0287  1.3057 -1.9244
   82SOPE   H8Y 7559   0.550   0.851   5.761  0.1883 -0.4340  1.6481
   82SOPE   C39 7560   0.372   0.891   5.665  0.3442  0.7824 -1.2475
   82SOPE   H9X 7561   0.414   0.993   5.650  1.0154  0.5626 -0.9141
   82SOPE   H9Y 7562   0.263   0.901   5.680  0.2540  1.0427 -2.0106
   82SOPE  C310 7563   0.392   0.804   5.544 -0.1596  0.5366 -0.4967
   82SOPE  H10X 7564   0.315   0.726   5.558  1.8759 -1.8071 -1.5559
   82SOPE  H10Y 7565   0.490   0.751   5.548 -0.5261 -0.1750 -0.7983
   82SOPE  C311 7566   0.374   0.876   5.414  0.0052  0.0592  0.1270
   82SOPE  H11X 7567   0.467   0.931   5.387 -0.5903  0.7335 -0.6268
   82SOPE  H11Y 7568   0.294   0.951   5.436  1.0973  1.1136  0.6138
   82SOPE  C312 7569   0.334   0.790   5.295  0.2261 -0.1974  0.1496
   82SOPE  H12X 7570   0.254   0.718   5.325  0.8177 -0.8458  0.2144
   82SOPE  H12Y 7571   0.427   0.729   5.289 -0.3714 -1.0508 -0.5978
   82SOPE  C313 7572   0.311   0.853   5.160  0.2381 -0.7702 -0.2967
   82SOPE  H13X 7573   0.399   0.909   5.122  1.7725 -1.9482  1.3511
   82SOPE  H13Y 7574   0.223   0.920   5.171 -0.1609 -1.4339  0.6845
   82SOPE  C314 7575   0.275   0.748   5.052  0.1101 -0.3282  0.3968
   82SOPE  H14X 7576   0.193   0.680   5.086 -0.6352  0.5125  0.3087
   82SOPE  H14Y 7577   0.370   0.691   5.042  0.2255  0.2706 -2.9154
   82SOPE  C315 7578   0.227   0.807   4.917  0.8263  0.4280 -0.3509
   82SOPE  H15X 7579   0.303   0.884   4.892  0.6903  0.4265 -0.7698
   82SOPE  H15Y 7580   0.127   0.853   4.926  1.0632  0.8194  0.3849
   82SOPE  C316 7581   0.234   0.704   4.809  0.2193 -0.4950  0.7031
   82SOPE  H16X 7582   0.136   0.654   4.795  0.2277 -0.8996  1.9723
   82SOPE  H16Y 7583   0.312   0.629   4.837  0.2883 -0.6298  0.1634
   82SOPE  C317 7584   0.267   0.789   4.678  0.8716 -0.1817 -0.3203
   82SOPE  H17X 7585   0.370   0.831   4.692  0.3197  2.2835 -2.7471
   82SOPE  H17Y 7586   0.196   0.874   4.672  0.6311 -0.3465  0.1647
   82SOPE  C318 7587   0.279   0.686   4.559  0.3952  0.2757  0.1945
   82SOPE  H18X 7588   0.293   0.745   4.466 -0.7102  0.3267  0.0479
   82SOPE  H18Y 7589   0.187   0.632   4.527  0.1513  1.0826 -0.4993
   82SOPE  H18Z 7590   0.352   0.604   4.578 -0.7699 -0.6576  0.7555
   83SOPE     N 7591   5.021   3.709   2.010  1.0215 -0.1360 -0.8122
   83SOPE   HN1 7592   4.979   3.719   1.916 -0.5323 -0.1280 -0.1379
   83SOPE   HN2 7593   5.091   3.780   2.040 -0.6344  0.5365  1.7595
   83SOPE   HN3 7594   5.063   3.614   2.018 -0.6627 -0.7681  2.3466
   83SOPE   C12 7595   4.909   3.706   2.117 -0.4180  0.5693  0.1850
   83SOPE  H12A 7596   4.845   3.618   2.094 -0.3801  1.2189 -2.8629
   83SOPE  H12B 7597   4.846   3.797   2.108 -1.1485  0.0112 -0.4932
   83SOPE   C11 7598   4.970   3.697   2.260  0.0433 -0.3087  0.1965
   83SOPE  H11A 7599   5.042   3.614   2.272 -0.6870 -1.3634 -2.1879
   83SOPE  H11B 7600   4.892   3.673   2.336  1.0904  2.3354  2.2764
   83SOPE     P 7601   4.961   3.942   2.354 -0.1251  0.5763  0.5227
   83SOPE   O13 7602   4.814   3.927   2.352 -0.2816  0.5176 -0.4371
   83SOPE   O14 7603   5.021   4.058   2.283  0.6467  0.4949 -0.8337
   83SOPE   O12 7604   5.037   3.817   2.296 -0.7577  0.2201 -0.0249
   83SOPE   O11 7605   5.007   3.951   2.513  0.7798  0.0704 -0.1576
   83SOPE    C1 7606   5.087   3.852   2.573  0.0862  0.0525  0.1766
   83SOPE    HA 7607   5.180   3.839   2.514  0.6526 -0.7485  1.2280
   83SOPE    HB 7608   5.038   3.753   2.569  0.0068  0.1296 -1.6086
   83SOPE    C2 7609   5.146   3.884   2.717  0.2000  0.1884  1.1836
   83SOPE    HS 7610   5.185   3.790   2.761 -2.8509 -1.3949  0.7833
   83SOPE   O21 7611   5.041   3.934   2.811 -0.1360 -0.1160  0.6930
   83SOPE   C21 7612   4.943   3.849   2.842  0.3179 -0.6098 -0.2429
   83SOPE   O22 7613   4.922   3.739   2.803  0.1389  0.0925  0.2034
   83SOPE   C22 7614   4.841   3.929   2.918 -0.3499  0.2174  0.4211
   83SOPE   H2R 7615   4.759   3.955   2.847  0.6087 -1.4440 -1.3848
   83SOPE   H2S 7616   4.887   4.024   2.954 -1.7311  0.5110  1.5060
   83SOPE    C3 7617   5.261   3.985   2.696 -0.3870  0.2991  0.5109
   83SOPE    HX 7618   5.218   4.069   2.638 -0.3310  0.6975  1.0483
   83SOPE    HY 7619   5.344   3.937   2.640 -0.6803  0.2195  0.1366
   83SOPE   O31 7620   5.298   4.035   2.828 -0.6468  0.2248 -0.1924
   83SOPE   C31 7621   5.386   3.963   2.892 -0.8446  0.6076 -1.6679
   83SOPE   O32 7622   5.449   3.866   2.850 -0.4431 -0.2740 -0.1188
   83SOPE   C32 7623   5.391   4.027   3.037 -0.0622 -0.5178  0.4193
   83SOPE   H2X 7624   5.402   4.135   3.013  0.9626 -1.2009 -2.6348
   83SOPE   H2Y 7625   5.474   3.981   3.094 -0.4792 -0.2250  1.2801
   83SOPE   C23 7626   4.790   3.865   3.041  0.8555  0.0564  0.5043
   83SOPE   H3R 7627   4.749   3.762   3.033  2.2056 -0.5843  1.4142
   83SOPE   H3S 7628   4.709   3.933   3.075 -0.1611 -0.7920 -0.1523
   83SOPE   C24 7629   4.893   3.847   3.155  0.3129  0.2025  0.5794
   83SOPE   H4R 7630   4.969   3.770   3.130  0.0284  0.5626 -1.5799
   83SOPE   H4S 7631   4.954   3.940   3.159 -1.3298  1.4397 -1.2358
   83SOPE   C25 7632   4.831   3.811   3.289  0.3022 -0.5131  0.2912
   83SOPE   H5R 7633   4.749   3.885   3.298  0.6553  0.2353 -1.9238
   83SOPE   H5S 7634   4.787   3.709   3.284 -1.4815  0.2023  0.4545
   83SOPE   C26 7635   4.931   3.828   3.409  0.2338 -0.4874 -0.5857
   83SOPE   H6R 7636   5.027   3.790   3.367  1.6317  2.2672 -0.0553
   83SOPE   H6S 7637   4.939   3.938   3.419  0.3945 -0.6616  1.5955
   83SOPE   C27 7638   4.892   3.765   3.543  0.8269  0.0042 -0.1054
   83SOPE   H7R 7639   4.791   3.793   3.579  1.5810  3.1137 -0.1230
   83SOPE   H7S 7640   4.889   3.654   3.531 -2.3474  0.0411 -0.4077
   83SOPE   C28 7641   5.002   3.797   3.647  0.6922 -0.4432  0.1313
   83SOPE   H8R 7642   4.970   3.745   3.740  0.1907  1.3878  1.0197
   83SOPE   H8S 7643   5.100   3.755   3.618  0.9698 -0.6474  1.3322
   83SOPE   C29 7644   5.016   3.948   3.666  0.8391 -0.7143 -0.9398
   83SOPE   H91 7645   5.032   4.001   3.571 -1.0196  0.3657 -0.6967
   83SOPE  C210 7646   5.034   4.021   3.780  0.8845  0.7348  0.7024
   83SOPE  H101 7647   5.058   4.129   3.775  1.2791  0.6987  1.5687
   83SOPE  C211 7648   5.029   3.980   3.928 -0.2751  0.6263  0.4869
   83SOPE  H11R 7649   5.022   3.870   3.941 -0.8287  0.4311 -1.1503
   83SOPE  H11S 7650   4.937   4.026   3.970 -0.6436  0.6514 -0.3164
   83SOPE  C212 7651   5.150   4.028   4.015  0.2209  0.4856 -0.2858
   83SOPE  H12R 7652   5.157   4.139   4.005  2.5149  0.4531  0.5453
   83SOPE  H12S 7653   5.239   3.978   3.973  1.0210  1.3423  0.3508
   83SOPE  C213 7654   5.143   3.982   4.159 -0.2721 -0.3447  0.4975
   83SOPE  H13R 7655   5.132   3.872   4.158  2.2106 -0.6763  1.1596
   83SOPE  H13S 7656   5.058   4.026   4.215 -0.6887  1.0981 -1.1693
   83SOPE  C214 7657   5.280   4.011   4.233 -0.5698 -0.2305 -0.0243
   83SOPE  H14R 7658   5.298   4.121   4.229  0.7546 -0.4101  0.5437
   83SOPE  H14S 7659   5.363   3.971   4.170 -0.4827  0.1261 -0.1432
   83SOPE  C215 7660   5.297   3.951   4.372  0.1147 -0.7582  0.9674
   83SOPE  H15R 7661   5.280   3.842   4.362  0.6512 -0.6687 -1.3522
   83SOPE  H15S 7662   5.215   3.991   4.436 -1.4779 -0.2692 -1.2761
   83SOPE  C216 7663   5.433   3.973   4.430 -0.2222 -0.0616 -0.1704
   83SOPE  H16R 7664   5.512   3.940   4.360 -0.1164  1.0577 -0.6084
   83SOPE  H16S 7665   5.452   3.911   4.520  3.5260  0.0179 -0.7424
   83SOPE  C217 7666   5.472   4.122   4.471  0.2411 -0.5982  0.3491
   83SOPE  H17R 7667   5.477   4.193   4.386 -2.8716  0.0156  0.5501
   83SOPE  H17S 7668   5.575   4.116   4.512  1.0680  2.0713 -1.0883
   83SOPE  C218 7669   5.369   4.185   4.564  0.7331  0.0733 -0.1596
   83SOPE  H18R 7670   5.406   4.288   4.586 -1.2282  0.1628  3.5454
   83SOPE  H18S 7671   5.359   4.136   4.663  2.6282  1.0240  0.5541
   83SOPE  H18T 7672   5.266   4.184   4.523 -0.4414  3.1701  2.3304
   83SOPE   C33 7673   5.253   4.002   3.102  0.1693  0.4706  0.1457
   83SOPE   H3X 7674   5.243   3.893   3.122 -2.0292  0.8985  1.6831
   83SOPE   H3Y 7675   5.169   4.019   3.032  1.3076  0.2945 -1.3227
   83SOPE   C34 7676   5.216   4.076   3.228 -0.1995  0.7616 -0.2098
   83SOPE   H4X 7677   5.126   4.033   3.276 -0.1759  0.1904 -0.6677
   83SOPE   H4Y 7678   5.197   4.181   3.198  2.5337  2.2654  2.7550
   83SOPE   C35 7679   5.326   4.086   3.343  0.0406 -0.1106  0.1244
   83SOPE   H5X 7680   5.423   4.132   3.312 -0.7341  1.5558  0.0321
   83SOPE   H5Y 7681   5.337   3.983   3.383  0.3014 -0.5055 -0.9091
   83SOPE   C36 7682   5.274   4.168   3.461 -0.9281  0.0941  0.2892
   83SOPE   H6X 7683   5.198   4.115   3.524 -2.2239  1.2732 -0.2205
   83SOPE   H6Y 7684   5.221   4.259   3.425 -1.0781 -0.3316 -0.6038
   83SOPE   C37 7685   5.380   4.206   3.568  0.2662 -0.3296  0.3476
   83SOPE   H7X 7686   5.336   4.269   3.649 -1.1780 -0.8810  0.0348
   83SOPE   H7Y 7687   5.463   4.262   3.521  0.1287 -0.5732 -0.1934
   83SOPE   C38 7688   5.424   4.076   3.632 -0.6260 -0.3320 -0.0021
   83SOPE   H8X 7689   5.462   3.997   3.564  1.9738 -0.0925  1.0362
   83SOPE   H8Y 7690   5.345   4.035   3.699 -0.9157  0.9502  0.4666
   83SOPE   C39 7691   5.548   4.106   3.719 -0.5548 -0.6363 -0.2813
   83SOPE   H9X 7692   5.566   4.215   3.708  0.8513 -0.6510  1.4278
   83SOPE   H9Y 7693   5.634   4.049   3.680 -1.1190  0.3321 -3.2123
   83SOPE  C310 7694   5.517   4.086   3.870  0.3443 -0.2436  0.0522
   83SOPE  H10X 7695   5.468   3.987   3.884 -0.5905  0.4880  2.4848
   83SOPE  H10Y 7696   5.439   4.164   3.890 -0.1640  0.1826 -3.0228
   83SOPE  C311 7697   5.636   4.115   3.962 -0.0543 -0.3715  0.1037
   83SOPE  H11X 7698   5.648   4.225   3.972  1.3651 -0.5706  0.9036
   83SOPE  H11Y 7699   5.725   4.059   3.927  0.0932 -0.4492  0.5955
   83SOPE  C312 7700   5.605   4.060   4.108 -0.4821 -0.1496 -0.3001
   83SOPE  H12X 7701   5.582   3.952   4.090 -2.9879  0.4908 -1.3447
   83SOPE  H12Y 7702   5.515   4.104   4.155 -1.0688  0.6790 -2.1126
   83SOPE  C313 7703   5.732   4.093   4.194  0.5410 -0.3653  0.2257
   83SOPE  H13X 7704   5.691   4.092   4.297  1.4709 -1.4298  0.6173
   83SOPE  H13Y 7705   5.760   4.198   4.169 -0.7543  0.0614  0.5241
   83SOPE  C314 7706   5.848   3.988   4.181 -0.6097 -0.0902  0.1338
   83SOPE  H14X 7707   5.892   3.989   4.079  0.0679 -0.2190  0.4177
   83SOPE  H14Y 7708   5.808   3.887   4.203 -1.1536 -0.2476 -1.4561
   83SOPE  C315 7709   5.966   4.007   4.275  0.3582  0.1912  0.1423
   83SOPE  H15X 7710   6.023   4.102   4.260  0.6421  0.1141  0.7121
   83SOPE  H15Y 7711   6.042   3.932   4.245 -0.4205 -0.3793 -0.4620
   83SOPE  C316 7712   5.928   3.989   4.422 -0.1344 -0.2379  0.3506
   83SOPE  H16X 7713   5.869   4.072   4.468 -0.3382 -0.3449  0.2833
   83SOPE  H16Y 7714   6.025   3.990   4.476  0.3561 -1.0577 -0.4884
   83SOPE  C317 7715   5.859   3.854   4.455  0.7846  0.4505 -0.9905
   83SOPE  H17X 7716   5.901   3.770   4.397 -1.2624 -0.1821 -1.6310
   83SOPE  H17Y 7717   5.749   3.853   4.438  0.1936  1.9268  1.9421
   83SOPE  C318 7718   5.868   3.828   4.611 -0.0591  0.0410  0.2592
   83SOPE  H18X 7719   5.834   3.917   4.668 -0.2810  0.0921  0.0467
   83SOPE  H18Y 7720   5.972   3.801   4.639  1.0941  1.4224 -2.4310
   83SOPE  H18Z 7721   5.800   3.742   4.633  0.4713 -0.9051 -1.6106
   84SOPE     N 7722   5.804   0.657   2.460  0.0514 -0.4940  0.1235
   84SOPE   HN1 7723   5.849   0.573   2.419 -0.0820 -0.1527 -0.7445
   84SOPE   HN2 7724   5.704   0.631   2.470  0.4841 -2.6591 -0.7880
   84SOPE   HN3 7725   5.822   0.736   2.395  0.0809 -0.1123  0.5902
   84SOPE   C12 7726   5.864   0.692   2.594  0.2201 -0.2907 -0.6314
   84SOPE  H12A 7727   5.974   0.706   2.583  0.5647 -2.5617 -0.5161
   84SOPE  H12B 7728   5.847   0.600   2.654 -1.0960  0.4228  0.1374
   84SOPE   C11 7729   5.799   0.818   2.652  0.4789 -0.6714  0.1821
   84SOPE  H11A 7730   5.821   0.828   2.761 -1.5004  0.9545  0.4784
   84SOPE  H11B 7731   5.690   0.800   2.658  0.4568 -0.1919  2.1342
   84SOPE     P 7732   5.962   1.011   2.561  0.1455 -0.2336  0.0531
   84SOPE   O13 7733   5.945   1.155   2.525 -0.1862 -0.1618 -0.4080
   84SOPE   O14 7734   6.043   0.936   2.462  0.2945 -0.4802  0.6137
   84SOPE   O12 7735   5.823   0.937   2.572 -0.0294 -0.3908 -0.1720
   84SOPE   O11 7736   6.039   0.996   2.699  0.1759  0.0729 -0.7824
   84SOPE    C1 7737   6.005   1.068   2.824  0.0362  0.3667  0.6617
   84SOPE    HA 7738   6.011   1.006   2.916 -0.9043 -0.2397  0.3351
   84SOPE    HB 7739   5.906   1.119   2.815  0.8789  1.9925  0.3409
   84SOPE    C2 7740   6.117   1.175   2.846 -0.4767  0.1854  0.6696
   84SOPE    HS 7741   6.144   1.223   2.750  0.5751  0.3455  1.0231
   84SOPE   O21 7742   6.236   1.103   2.886  0.0529  0.0635 -0.4349
   84SOPE   C21 7743   6.351   1.174   2.889 -0.0352  0.4560  0.4275
   84SOPE   O22 7744   6.362   1.295   2.876 -0.1670  0.3923  0.2159
   84SOPE   C22 7745   6.461   1.069   2.879 -0.3399  0.3780  0.1761
   84SOPE   H2R 7746   6.493   1.062   2.772 -0.1980  1.2904  0.1503
   84SOPE   H2S 7747   6.419   0.970   2.906 -0.6003  0.1223 -1.1186
   84SOPE    C3 7748   6.065   1.283   2.945 -0.4073 -0.4369  0.0963
   84SOPE    HX 7749   5.968   1.314   2.899 -1.0118 -3.8696 -1.2577
   84SOPE    HY 7750   6.144   1.361   2.948  3.2806 -3.7403 -1.5406
   84SOPE   O31 7751   6.043   1.214   3.074  0.6338  0.1128 -0.2242
   84SOPE   C31 7752   6.141   1.196   3.158  0.2304  0.0304  0.5002
   84SOPE   O32 7753   6.247   1.257   3.160  0.6085 -0.6619 -0.2537
   84SOPE   C32 7754   6.106   1.090   3.259  0.6482 -0.3281  0.4097
   84SOPE   H2X 7755   6.084   0.997   3.202  1.9766 -1.8227  2.2208
   84SOPE   H2Y 7756   6.013   1.113   3.315  0.8385 -0.5317  0.8145
   84SOPE   C23 7757   6.579   1.103   2.979 -0.4411 -0.4063  0.5488
   84SOPE   H3R 7758   6.612   1.207   2.962  1.4305 -0.9253  0.7644
   84SOPE   H3S 7759   6.670   1.048   2.946  1.1336  1.0892  2.2222
   84SOPE   C24 7760   6.550   1.078   3.126  0.0916 -0.1178 -0.4624
   84SOPE   H4R 7761   6.498   1.169   3.163 -1.6983 -0.1871 -2.6327
   84SOPE   H4S 7762   6.475   0.997   3.132  0.2123 -0.6154 -3.7759
   84SOPE   C25 7763   6.677   1.028   3.205  0.0267 -0.5912 -0.0758
   84SOPE   H5R 7764   6.694   0.920   3.187 -0.9427 -0.5221 -1.6093
   84SOPE   H5S 7765   6.769   1.077   3.165  0.4365 -0.2784  1.2084
   84SOPE   C26 7766   6.661   1.042   3.357 -0.4402 -0.4559 -0.2059
   84SOPE   H6R 7767   6.648   1.151   3.371  2.2863  0.3272 -2.6786
   84SOPE   H6S 7768   6.576   0.988   3.404  0.1675 -0.3814  1.0119
   84SOPE   C27 7769   6.799   1.021   3.428 -0.7700  0.2488  0.2307
   84SOPE   H7R 7770   6.834   0.917   3.417 -1.1285  0.2458 -0.9808
   84SOPE   H7S 7771   6.869   1.082   3.367 -3.0759  2.2320 -0.6021
   84SOPE   C28 7772   6.817   1.071   3.575 -0.7222  0.2061 -0.8253
   84SOPE   H8R 7773   6.923   1.056   3.601 -0.9653  0.4793  0.3721
   84SOPE   H8S 7774   6.798   1.181   3.579 -0.3203  0.2579 -0.3600
   84SOPE   C29 7775   6.728   1.002   3.681 -0.1910 -0.0255  0.3540
   84SOPE   H91 7776   6.624   1.018   3.646  0.2548  0.9907 -0.5993
   84SOPE  C210 7777   6.754   0.937   3.798  0.4996  0.3438 -0.4982
   84SOPE  H101 7778   6.665   0.909   3.856 -0.3322  4.8556  0.8586
   84SOPE  C211 7779   6.891   0.905   3.859 -0.1400 -0.1113 -0.3001
   84SOPE  H11R 7780   6.968   0.924   3.781 -1.5430 -0.9176 -1.9595
   84SOPE  H11S 7781   6.898   0.798   3.891  0.5224  0.2412  0.8056
   84SOPE  C212 7782   6.928   0.993   3.983 -0.2499  0.5494 -0.0844
   84SOPE  H12R 7783   6.924   1.103   3.965 -0.8135  0.3086 -1.4976
   84SOPE  H12S 7784   7.035   0.982   4.011 -0.1786  2.2832  0.4876
   84SOPE  C213 7785   6.839   0.963   4.098  0.2564 -0.1061 -0.2570
   84SOPE  H13R 7786   6.822   0.854   4.108 -1.7835  0.1694 -0.3127
   84SOPE  H13S 7787   6.744   1.011   4.066 -0.4912 -1.4706 -0.1556
   84SOPE  C214 7788   6.893   1.026   4.228  0.4753  0.0869 -0.3725
   84SOPE  H14R 7789   6.918   1.134   4.227  0.7818  0.0156 -0.4466
   84SOPE  H14S 7790   6.987   0.974   4.256 -0.8922 -1.4253  1.7035
   84SOPE  C215 7791   6.789   1.022   4.339 -0.1676 -0.5842 -0.4957
   84SOPE  H15R 7792   6.751   0.919   4.355  0.4349 -0.7511 -0.0653
   84SOPE  H15S 7793   6.701   1.084   4.312  0.1501  1.0016  1.8078
   84SOPE  C216 7794   6.844   1.085   4.472 -0.3141 -0.3007 -0.2889
   84SOPE  H16R 7795   6.880   1.188   4.454 -3.1215  0.9404  0.6632
   84SOPE  H16S 7796   6.926   1.018   4.507  2.0805  2.5690 -0.1079
   84SOPE  C217 7797   6.735   1.098   4.586 -0.6255  0.1218 -0.5916
   84SOPE  H17R 7798   6.663   1.177   4.552 -2.3512 -1.1285  0.0002
   84SOPE  H17S 7799   6.780   1.147   4.675  1.4228 -1.2694 -0.8124
   84SOPE  C218 7800   6.659   0.972   4.616 -0.0796  0.1835  0.5359
   84SOPE  H18R 7801   6.585   0.943   4.538  0.1222 -1.1975  0.8316
   84SOPE  H18S 7802   6.606   0.967   4.713  0.5027 -1.9204  0.7862
   84SOPE  H18T 7803   6.732   0.889   4.627 -1.8676 -1.5490  0.0672
   84SOPE   C33 7804   6.215   1.077   3.373 -0.1694 -0.2905  0.4939
   84SOPE   H3X 7805   6.233   1.177   3.417 -0.5458 -0.2528  0.5618
   84SOPE   H3Y 7806   6.307   1.038   3.325 -0.0356  0.3360  0.2373
   84SOPE   C34 7807   6.175   0.984   3.489 -0.1152  0.1293 -1.1771
   84SOPE   H4X 7808   6.126   0.888   3.461 -1.4701  0.8932 -1.5438
   84SOPE   H4Y 7809   6.095   1.036   3.547 -0.3556 -1.0751 -0.3697
   84SOPE   C35 7810   6.288   0.955   3.591  0.3654 -0.5055 -0.9683
   84SOPE   H5X 7811   6.368   1.032   3.591 -0.5902  0.5741  1.4281
   84SOPE   H5Y 7812   6.334   0.861   3.554 -1.4300 -1.4284 -0.9445
   84SOPE   C36 7813   6.246   0.940   3.738 -0.3356  0.2356  0.4978
   84SOPE   H6X 7814   6.180   0.852   3.750 -0.4155 -0.2298 -2.4737
   84SOPE   H6Y 7815   6.181   1.026   3.764  0.1846  0.9070 -0.3543
   84SOPE   C37 7816   6.366   0.934   3.829  0.1105  0.2547 -0.5156
   84SOPE   H7X 7817   6.410   1.035   3.848 -0.7521  0.2999  1.4908
   84SOPE   H7Y 7818   6.436   0.856   3.791  0.9404  1.0733 -0.7168
   84SOPE   C38 7819   6.332   0.875   3.970 -0.6152  0.2250 -0.6469
   84SOPE   H8X 7820   6.327   0.765   3.953  0.0929  0.2039 -0.7480
   84SOPE   H8Y 7821   6.238   0.919   4.009  0.1160  0.5158  0.8348
   84SOPE   C39 7822   6.439   0.917   4.073 -0.0456 -0.1620  0.4177
   84SOPE   H9X 7823   6.441   1.028   4.078 -0.9188 -0.1830  2.6291
   84SOPE   H9Y 7824   6.530   0.874   4.027 -1.2643 -0.5315 -1.8125
   84SOPE  C310 7825   6.418   0.885   4.219 -0.3882  0.4480 -0.1837
   84SOPE  H10X 7826   6.357   0.968   4.260 -2.7006 -0.4488 -1.5952
   84SOPE  H10Y 7827   6.510   0.882   4.280 -0.9651 -0.2213  0.6690
   84SOPE  C311 7828   6.350   0.755   4.248  0.2422 -0.7861 -0.3476
   84SOPE  H11X 7829   6.410   0.669   4.212  2.1906 -0.9448  2.9141
   84SOPE  H11Y 7830   6.247   0.754   4.204  0.1431  1.1289 -0.2235
   84SOPE  C312 7831   6.320   0.720   4.397 -0.1954  0.7343 -0.4740
   84SOPE  H12X 7832   6.412   0.715   4.459 -1.2374  1.5913  1.2071
   84SOPE  H12Y 7833   6.285   0.614   4.399  2.3067 -0.1959 -1.6082
   84SOPE  C313 7834   6.220   0.813   4.459  0.6470  0.3725 -0.2240
   84SOPE  H13X 7835   6.117   0.802   4.419 -0.6888  0.8507  2.8318
   84SOPE  H13Y 7836   6.242   0.922   4.452 -2.3930  1.1509  0.8527
   84SOPE  C314 7837   6.206   0.790   4.612  0.0498 -0.2426  0.5133
   84SOPE  H14X 7838   6.228   0.682   4.621  0.1945 -0.1204  1.8143
   84SOPE  H14Y 7839   6.100   0.814   4.637 -0.8377 -2.2932 -0.9768
   84SOPE  C315 7840   6.298   0.886   4.689 -0.3050  0.3879 -0.0723
   84SOPE  H15X 7841   6.276   0.992   4.661 -2.4479 -0.0350 -0.1925
   84SOPE  H15Y 7842   6.403   0.867   4.660 -0.1129  0.5076  0.5401
   84SOPE  C316 7843   6.282   0.857   4.843 -0.0155  0.3823  0.1083
   84SOPE  H16X 7844   6.286   0.754   4.884  1.7311  1.7226  3.7437
   84SOPE  H16Y 7845   6.182   0.887   4.881 -0.0496  0.8794 -0.3605
   84SOPE  C317 7846   6.378   0.938   4.928 -0.8506 -0.2239  0.1113
   84SOPE  H17X 7847   6.482   0.899   4.925 -0.7565  0.0040  0.3287
   84SOPE  H17Y 7848   6.347   0.920   5.033  0.6246  1.4350  0.8820
   84SOPE  C318 7849   6.371   1.090   4.921  0.1392 -0.1822  0.0716
   84SOPE  H18X 7850   6.264   1.120   4.927 -0.5515 -2.3280 -0.4618
   84SOPE  H18Y 7851   6.413   1.146   4.835 -1.1751  4.1163  1.9329
   84SOPE  H18Z 7852   6.412   1.136   5.013 -0.4509 -1.6193  1.0798
   85SOPE     N 7853   1.901   3.515   2.648  0.0014 -0.2599 -0.0161
   85SOPE   HN1 7854   1.862   3.452   2.721 -0.7904  0.0025 -0.2096
   85SOPE   HN2 7855   1.905   3.462   2.559 -0.8207  1.4816 -1.1231
   85SOPE   HN3 7856   1.998   3.537   2.681 -1.2487  2.1309  2.4944
   85SOPE   C12 7857   1.841   3.650   2.642  0.0011  0.0244  0.1936
   85SOPE  H12A 7858   1.863   3.701   2.739  1.3241  2.4081 -1.2345
   85SOPE  H12B 7859   1.731   3.638   2.635  0.0802 -0.2950 -0.6146
   85SOPE   C11 7860   1.898   3.737   2.533  0.0549 -0.2647  0.3558
   85SOPE  H11A 7861   1.867   3.843   2.537  3.5239  0.8905 -0.1140
   85SOPE  H11B 7862   1.845   3.706   2.441  0.0667 -2.0322  0.9044
   85SOPE     P 7863   2.139   3.843   2.539  0.3474 -0.1654  0.3918
   85SOPE   O13 7864   2.082   3.970   2.499  0.1902  0.3647 -0.2326
   85SOPE   O14 7865   2.266   3.795   2.474 -0.0784  0.3452  0.0351
   85SOPE   O12 7866   2.039   3.727   2.506  0.5689 -1.1075 -0.4368
   85SOPE   O11 7867   2.149   3.824   2.690 -0.2328  0.6281  0.4374
   85SOPE    C1 7868   2.208   3.923   2.775 -0.5543 -0.1583 -0.8656
   85SOPE    HA 7869   2.180   4.025   2.744  0.7704  0.8663  1.0840
   85SOPE    HB 7870   2.319   3.911   2.774 -0.3523  0.3433  2.3550
   85SOPE    C2 7871   2.148   3.906   2.919  0.3368  0.5083 -0.1845
   85SOPE    HS 7872   2.173   3.989   2.987 -1.0683  0.2404  0.7085
   85SOPE   O21 7873   2.206   3.782   2.970  0.0442  0.4365  0.5852
   85SOPE   C21 7874   2.321   3.807   3.047  0.0505 -0.3589 -0.3282
   85SOPE   O22 7875   2.376   3.912   3.048 -0.1346  0.2723 -0.1811
   85SOPE   C22 7876   2.364   3.675   3.117 -0.4426 -0.1244  0.1948
   85SOPE   H2R 7877   2.455   3.636   3.066  0.7977  1.0870  1.3983
   85SOPE   H2S 7878   2.282   3.607   3.085  0.3718 -0.4750 -1.2698
   85SOPE    C3 7879   1.995   3.910   2.919 -0.1893 -0.6706 -0.0344
   85SOPE    HX 7880   1.964   3.811   2.879  1.0745 -0.2623 -2.1770
   85SOPE    HY 7881   1.955   3.986   2.849  0.5112  0.5853  0.9004
   85SOPE   O31 7882   1.947   3.954   3.046  0.6873  0.1124 -0.2185
   85SOPE   C31 7883   1.856   3.876   3.102  0.0944  0.0915  0.1934
   85SOPE   O32 7884   1.799   3.780   3.053  0.1775 -0.1000 -0.6169
   85SOPE   C32 7885   1.818   3.935   3.236  1.0356 -0.4606  0.7897
   85SOPE   H2X 7886   1.772   4.035   3.216  3.9833  0.7422 -0.5612
   85SOPE   H2Y 7887   1.906   3.948   3.301  1.2323  1.1178  0.2585
   85SOPE   C23 7888   2.369   3.697   3.264 -0.0734 -0.2144 -0.9582
   85SOPE   H3R 7889   2.443   3.779   3.278  1.4522 -1.6533 -0.1951
   85SOPE   H3S 7890   2.418   3.604   3.300  1.5923  1.0730  0.2315
   85SOPE   C24 7891   2.231   3.725   3.323  0.4862  0.6347  0.5923
   85SOPE   H4R 7892   2.177   3.789   3.249 -0.2145  1.4594  1.7690
   85SOPE   H4S 7893   2.174   3.630   3.331 -0.6351  1.2622  0.3351
   85SOPE   C25 7894   2.250   3.787   3.466  0.2110 -0.2260  0.5753
   85SOPE   H5R 7895   2.324   3.735   3.531  2.8018  2.3546 -0.1400
   85SOPE   H5S 7896   2.281   3.893   3.464 -0.4026 -0.0312 -2.2893
   85SOPE   C26 7897   2.116   3.794   3.544 -0.6454 -0.3458  0.4726
   85SOPE   H6R 7898   2.037   3.831   3.476  1.1493 -0.3634 -1.7405
   85SOPE   H6S 7899   2.079   3.691   3.566 -3.1689  0.4583  0.2544
   85SOPE   C27 7900   2.115   3.866   3.683  0.6155 -0.1092 -0.3576
   85SOPE   H7R 7901   2.206   3.836   3.739 -0.3384  1.1627  2.0021
   85SOPE   H7S 7902   2.122   3.976   3.673  1.4508  0.0244  1.3774
   85SOPE   C28 7903   1.999   3.824   3.779  0.0782 -0.2893 -0.3577
   85SOPE   H8R 7904   1.902   3.810   3.728  0.7703 -1.1626 -1.4770
   85SOPE   H8S 7905   2.041   3.730   3.821  0.8765  0.5732  0.8598
   85SOPE   C29 7906   1.971   3.932   3.882 -0.2257 -0.0600  0.6585
   85SOPE   H91 7907   1.989   4.031   3.838  0.3042  0.1021  1.2251
   85SOPE  C210 7908   1.942   3.926   4.009 -0.2792  0.2012  0.1984
   85SOPE  H101 7909   1.932   4.020   4.065 -1.8547 -1.2098  2.4211
   85SOPE  C211 7910   1.929   3.791   4.088  0.8600 -0.5326  0.5526
   85SOPE  H11R 7911   2.013   3.799   4.161  0.7906  0.0141  0.5711
   85SOPE  H11S 7912   1.947   3.695   4.034  0.2144 -0.7974  0.7980
   85SOPE  C212 7913   1.790   3.790   4.148  0.4746  0.3768 -0.4167
   85SOPE  H12R 7914   1.772   3.690   4.192  3.0260 -0.5025 -1.2516
   85SOPE  H12S 7915   1.708   3.794   4.072  0.1484 -1.9124 -0.2593
   85SOPE  C213 7916   1.755   3.898   4.261  0.3709 -0.0245  0.6235
   85SOPE  H13R 7917   1.745   3.997   4.212 -0.5587 -0.9116 -1.0731
   85SOPE  H13S 7918   1.835   3.909   4.337  0.1966 -0.7223  0.9190
   85SOPE  C214 7919   1.623   3.860   4.321 -0.2066  0.6166  0.0235
   85SOPE  H14R 7920   1.638   3.819   4.423 -0.7109  1.8125  0.5934
   85SOPE  H14S 7921   1.577   3.780   4.258 -0.1931 -0.8406  1.7743
   85SOPE  C215 7922   1.508   3.957   4.332 -0.6219 -0.6925  0.4508
   85SOPE  H15R 7923   1.511   4.020   4.241  0.6296  1.6248  2.0077
   85SOPE  H15S 7924   1.531   4.025   4.417  0.7842 -1.9911  1.1655
   85SOPE  C216 7925   1.367   3.904   4.349 -0.1663  0.6083  0.3190
   85SOPE  H16R 7926   1.356   3.809   4.292 -0.1050  0.5263  0.4421
   85SOPE  H16S 7927   1.299   3.981   4.307  1.6864  2.5874  0.7382
   85SOPE  C217 7928   1.327   3.881   4.496 -0.1929  0.3907  0.3982
   85SOPE  H17R 7929   1.291   3.976   4.541 -0.6890 -0.3292  1.5690
   85SOPE  H17S 7930   1.413   3.838   4.551 -1.5480 -0.7078  1.7348
   85SOPE  C218 7931   1.203   3.784   4.533 -0.0768 -0.1662  1.4352
   85SOPE  H18R 7932   1.187   3.794   4.643  0.1843 -0.4635  1.5034
   85SOPE  H18S 7933   1.227   3.677   4.515  0.7977  0.4046 -1.2501
   85SOPE  H18T 7934   1.106   3.803   4.484 -0.1821  1.1287  2.0965
   85SOPE   C33 7935   1.714   3.848   3.317 -0.7194 -0.3536  0.2606
   85SOPE   H3X 7936   1.743   3.742   3.326 -1.5829 -0.5143  1.4074
   85SOPE   H3Y 7937   1.616   3.835   3.266 -0.5941  0.5809 -0.2449
   85SOPE   C34 7938   1.682   3.911   3.456 -0.0143 -0.3461 -0.2749
   85SOPE   H4X 7939   1.684   4.021   3.447 -1.8711 -0.3501 -1.3079
   85SOPE   H4Y 7940   1.769   3.894   3.523 -0.1916 -0.4668 -0.0726
   85SOPE   C35 7941   1.540   3.877   3.505 -0.5086  0.0393  0.0559
   85SOPE   H5X 7942   1.522   3.768   3.502 -1.4723  0.1936 -2.7497
   85SOPE   H5Y 7943   1.465   3.908   3.429  1.3584  1.6085 -1.2630
   85SOPE   C36 7944   1.503   3.934   3.636 -0.3145 -0.1001 -0.7284
   85SOPE   H6X 7945   1.529   4.041   3.624  2.3849  0.0846  4.2775
   85SOPE   H6Y 7946   1.572   3.885   3.708 -2.2993 -0.9983  0.6716
   85SOPE   C37 7947   1.354   3.921   3.677  0.2174 -0.1382  0.0689
   85SOPE   H7X 7948   1.342   3.811   3.672 -1.0944  0.0028 -0.2484
   85SOPE   H7Y 7949   1.295   3.973   3.599 -0.2230 -1.9230 -0.8238
   85SOPE   C38 7950   1.325   3.985   3.813 -0.2167 -0.3631 -0.7072
   85SOPE   H8X 7951   1.218   3.985   3.843 -0.1642 -1.2677 -0.4874
   85SOPE   H8Y 7952   1.366   4.088   3.824 -1.0331 -0.1448  0.4062
   85SOPE   C39 7953   1.394   3.898   3.923 -0.2171 -0.0067 -0.1093
   85SOPE   H9X 7954   1.381   3.949   4.021  2.1971  0.4814  0.0020
   85SOPE   H9Y 7955   1.502   3.880   3.905 -0.1273 -0.9803  1.2357
   85SOPE  C310 7956   1.322   3.757   3.954 -1.1205 -0.1042 -0.3592
   85SOPE  H10X 7957   1.394   3.709   4.024 -1.5317  1.6390  1.3523
   85SOPE  H10Y 7958   1.295   3.693   3.868  0.9515 -0.5317 -0.7438
   85SOPE  C311 7959   1.193   3.773   4.034 -0.0187 -0.2867  0.3148
   85SOPE  H11X 7960   1.112   3.813   3.968 -0.6130 -1.1901  0.4788
   85SOPE  H11Y 7961   1.213   3.852   4.109 -1.3472  0.8617 -0.4697
   85SOPE  C312 7962   1.144   3.641   4.106  0.0819 -0.5982 -0.2355
   85SOPE  H12X 7963   1.228   3.606   4.168  0.6456 -2.9267 -2.1762
   85SOPE  H12Y 7964   1.107   3.566   4.032 -1.8117  0.5466 -0.5369
   85SOPE  C313 7965   1.022   3.672   4.188  0.4568 -0.0255 -1.2197
   85SOPE  H13X 7966   0.950   3.748   4.151 -2.9841 -1.3958  1.9475
   85SOPE  H13Y 7967   1.064   3.715   4.282 -0.1395  0.4284 -1.1533
   85SOPE  C314 7968   0.937   3.537   4.208 -0.1970  0.0596  0.3325
   85SOPE  H14X 7969   1.014   3.463   4.239 -1.0867 -0.4189  1.4924
   85SOPE  H14Y 7970   0.898   3.508   4.108  2.2786 -1.3491 -0.3185
   85SOPE  C315 7971   0.845   3.554   4.325  0.3604  0.1403  0.1177
   85SOPE  H15X 7972   0.781   3.641   4.299  0.1025 -0.3997 -1.1364
   85SOPE  H15Y 7973   0.904   3.581   4.415  0.4530 -0.9151  0.3756
   85SOPE  C316 7974   0.757   3.429   4.354 -0.2778  0.1171  0.4922
   85SOPE  H16X 7975   0.822   3.339   4.347  0.5266  0.6754  0.7141
   85SOPE  H16Y 7976   0.669   3.433   4.286 -0.3829  0.2479  0.6342
   85SOPE  C317 7977   0.711   3.434   4.497  0.6293 -0.0295 -0.2258
   85SOPE  H17X 7978   0.651   3.525   4.520 -2.3075 -1.7288 -0.7560
   85SOPE  H17Y 7979   0.797   3.427   4.567  0.6877 -0.7373 -0.3614
   85SOPE  C318 7980   0.601   3.323   4.521 -0.3225 -0.3710  0.0685
   85SOPE  H18X 7981   0.550   3.347   4.617  0.4818 -1.4163  0.7879
   85SOPE  H18Y 7982   0.633   3.217   4.510 -0.0187 -0.1754 -1.0265
   85SOPE  H18Z 7983   0.520   3.335   4.447 -0.9460  0.5746  0.8831
   86SOPE     N 7984   1.874   5.195   2.744 -0.0525  0.3425 -0.0627
   86SOPE   HN1 7985   1.772   5.179   2.734 -0.0655  0.5463 -0.2798
   86SOPE   HN2 7986   1.904   5.252   2.662  1.9674  0.9728  1.0564
   86SOPE   HN3 7987   1.913   5.099   2.742  1.5333  0.9215  1.1590
   86SOPE   C12 7988   1.921   5.269   2.867 -0.5147  0.3477  0.0903
   86SOPE  H12A 7989   2.029   5.244   2.868 -0.8498 -1.1851  1.0029
   86SOPE  H12B 7990   1.881   5.220   2.958 -0.3014  1.7726  0.9855
   86SOPE   C11 7991   1.892   5.423   2.861  0.5637  0.4175 -0.7072
   86SOPE  H11A 7992   1.912   5.470   2.960  0.7171 -0.3643 -0.3545
   86SOPE  H11B 7993   1.782   5.431   2.849  0.2307 -2.7543 -0.7954
   86SOPE     P 7994   1.930   5.525   2.623 -0.0930  0.3364  0.1807
   86SOPE   O13 7995   1.871   5.402   2.564  0.1562 -0.0198 -0.1135
   86SOPE   O14 7996   2.051   5.576   2.557  0.0757  0.0574  0.4877
   86SOPE   O12 7997   1.974   5.491   2.769 -0.4702  0.2785  0.5549
   86SOPE   O11 7998   1.826   5.628   2.654 -0.4185 -0.1116  0.5467
   86SOPE    C1 7999   1.847   5.772   2.650 -0.0751 -0.1383 -0.2713
   86SOPE    HA 8000   1.749   5.813   2.682 -0.6393  0.0429 -2.1286
   86SOPE    HB 8001   1.858   5.824   2.553 -0.6093  2.7980  1.1221
   86SOPE    C2 8002   1.961   5.821   2.743  0.3176 -0.3433 -0.5409
   86SOPE    HS 8003   2.060   5.795   2.698  0.7753 -0.3235  0.4133
   86SOPE   O21 8004   1.942   5.765   2.878 -0.1292  0.0867 -0.1551
   86SOPE   C21 8005   2.053   5.729   2.936  0.1561  0.1829 -0.3733
   86SOPE   O22 8006   2.167   5.729   2.888 -0.2923  0.3441 -0.2287
   86SOPE   C22 8007   2.030   5.673   3.081  0.0872  0.2001 -0.0381
   86SOPE   H2R 8008   2.046   5.564   3.068 -2.4505 -0.1852 -0.5482
   86SOPE   H2S 8009   1.930   5.692   3.125 -0.4402 -1.3388 -0.5146
   86SOPE    C3 8010   1.964   5.975   2.752  0.4102  0.0027  0.1636
   86SOPE    HX 8011   1.864   5.989   2.798  0.1797  0.3940 -0.4622
   86SOPE    HY 8012   1.958   6.037   2.661  2.2663  0.8875  0.6007
   86SOPE   O31 8013   2.078   6.014   2.839 -0.3246 -0.2487 -0.2490
   86SOPE   C31 8014   2.195   6.037   2.768  0.0224  0.1850  0.4105
   86SOPE   O32 8015   2.198   6.034   2.649  0.2276 -0.4529 -0.0444
   86SOPE   C32 8016   2.301   6.077   2.873  0.2337 -0.0643 -0.5290
   86SOPE   H2X 8017   2.397   6.067   2.818 -0.0742 -0.4832 -1.0075
   86SOPE   H2Y 8018   2.299   6.006   2.958 -1.0327  0.2753 -0.2450
   86SOPE   C23 8019   2.129   5.737   3.181 -0.3579 -0.3178  0.3485
   86SOPE   H3R 8020   2.125   5.847   3.166  3.1113  0.0362  1.0770
   86SOPE   H3S 8021   2.227   5.700   3.146  0.8411  2.1570  0.8401
   86SOPE   C24 8022   2.111   5.706   3.337 -0.2498 -0.4557  0.0551
   86SOPE   H4R 8023   2.007   5.726   3.371  0.1817 -0.4260  1.4244
   86SOPE   H4S 8024   2.102   5.596   3.347 -2.7008 -0.5333 -2.0100
   86SOPE   C25 8025   2.221   5.763   3.422  0.5430 -0.3272  0.1243
   86SOPE   H5R 8026   2.320   5.729   3.383  0.5084  1.2536 -1.4873
   86SOPE   H5S 8027   2.222   5.874   3.408  2.6867 -0.4327 -1.0337
   86SOPE   C26 8028   2.216   5.736   3.578  0.4660  0.1377  0.0857
   86SOPE   H6R 8029   2.294   5.794   3.632  1.9807 -1.5550 -0.2047
   86SOPE   H6S 8030   2.123   5.780   3.618  0.8118  2.5689 -1.5206
   86SOPE   C27 8031   2.238   5.586   3.612  0.4738 -0.7000  0.1735
   86SOPE   H7R 8032   2.155   5.524   3.574  0.9805 -2.0364  1.1779
   86SOPE   H7S 8033   2.328   5.552   3.556 -1.5247 -1.1609 -3.0304
   86SOPE   C28 8034   2.255   5.568   3.764  0.0620 -0.5365  0.0212
   86SOPE   H8R 8035   2.258   5.458   3.781  1.9921 -0.4103  0.8380
   86SOPE   H8S 8036   2.351   5.614   3.797 -0.3554  0.6019 -0.3186
   86SOPE   C29 8037   2.132   5.616   3.833 -0.1043  0.2792  0.6621
   86SOPE   H91 8038   2.043   5.589   3.773 -1.3240 -2.6111  3.4480
   86SOPE  C210 8039   2.122   5.679   3.950  0.1442  0.4535 -0.5318
   86SOPE  H101 8040   2.023   5.700   3.993 -0.7176  2.3241 -3.1246
   86SOPE  C211 8041   2.230   5.718   4.038  0.7418  0.9230  0.2477
   86SOPE  H11R 8042   2.271   5.818   4.014  3.8849 -0.8868 -2.8937
   86SOPE  H11S 8043   2.311   5.647   4.010 -1.2960 -1.4805  0.0271
   86SOPE  C212 8044   2.198   5.676   4.183 -0.4452  0.1086  0.4941
   86SOPE  H12R 8045   2.300   5.666   4.225 -0.5145 -0.2910  0.5723
   86SOPE  H12S 8046   2.138   5.583   4.197 -0.2927 -0.3661 -1.6452
   86SOPE  C213 8047   2.126   5.789   4.262 -0.5367  0.4233  1.4771
   86SOPE  H13R 8048   2.034   5.811   4.204  0.6200  2.2471  0.2250
   86SOPE  H13S 8049   2.192   5.878   4.250  2.6562 -1.9821 -0.8872
   86SOPE  C214 8050   2.084   5.752   4.408 -0.0435 -0.9434  0.1446
   86SOPE  H14R 8051   2.041   5.844   4.453  1.9226 -0.4631  1.1271
   86SOPE  H14S 8052   2.178   5.741   4.465  2.2140  2.6858 -2.4386
   86SOPE  C215 8053   1.992   5.635   4.427 -0.4728  0.5705  0.5575
   86SOPE  H15R 8054   2.052   5.547   4.395 -2.2396 -1.1332  1.7125
   86SOPE  H15S 8055   1.907   5.641   4.355  0.6536  1.4208 -0.7536
   86SOPE  C216 8056   1.936   5.627   4.561  0.3775 -0.2095 -0.8249
   86SOPE  H16R 8057   1.863   5.709   4.574  0.2715 -0.3293 -0.6553
   86SOPE  H16S 8058   2.010   5.633   4.644 -2.9799  0.4404  2.4090
   86SOPE  C217 8059   1.876   5.488   4.600  0.4266  0.0692  0.7899
   86SOPE  H17R 8060   1.794   5.468   4.528 -2.7915  1.0463  3.9466
   86SOPE  H17S 8061   1.831   5.499   4.701 -0.3507  2.0883  0.2623
   86SOPE  C218 8062   1.965   5.369   4.610  0.1381 -0.5672 -0.2413
   86SOPE  H18R 8063   1.901   5.286   4.646 -0.9872  0.9974  1.5353
   86SOPE  H18S 8064   2.058   5.393   4.667  0.1173  1.7805 -1.0544
   86SOPE  H18T 8065   2.008   5.345   4.510  1.3919 -1.7545  0.5448
   86SOPE   C33 8066   2.293   6.227   2.921  0.9022 -0.2097 -0.3469
   86SOPE   H3X 8067   2.243   6.283   2.839 -1.5142 -1.7652 -0.0417
   86SOPE   H3Y 8068   2.397   6.261   2.939  1.4665 -2.2850  0.6436
   86SOPE   C34 8069   2.210   6.259   3.046  0.9023  0.1550 -0.1793
   86SOPE   H4X 8070   2.238   6.172   3.109  0.5462  0.6004  0.6161
   86SOPE   H4Y 8071   2.101   6.244   3.029  0.7382  1.3751 -0.2935
   86SOPE   C35 8072   2.245   6.394   3.108 -0.0449 -0.2059  0.2664
   86SOPE   H5X 8073   2.202   6.481   3.056  1.1153  1.1698  1.5180
   86SOPE   H5Y 8074   2.353   6.418   3.119 -0.4107  1.3145  0.7415
   86SOPE   C36 8075   2.207   6.392   3.261 -1.0149 -0.9709  0.4336
   86SOPE   H6X 8076   2.101   6.359   3.268 -1.2639 -0.7271 -1.5208
   86SOPE   H6Y 8077   2.206   6.496   3.301 -1.3923 -0.8441  0.1060
   86SOPE   C37 8078   2.298   6.303   3.346  0.4324  0.5134 -0.9440
   86SOPE   H7X 8079   2.405   6.330   3.340  0.4319  2.2156  3.4491
   86SOPE   H7Y 8080   2.284   6.200   3.307  1.5198  0.4345 -1.1500
   86SOPE   C38 8081   2.252   6.307   3.493 -0.1846 -0.1462  0.3910
   86SOPE   H8X 8082   2.144   6.282   3.496 -0.3992  0.8117  1.6070
   86SOPE   H8Y 8083   2.254   6.408   3.540 -0.8268 -0.6672  1.5787
   86SOPE   C39 8084   2.337   6.217   3.577 -0.9041  0.2464 -0.5320
   86SOPE   H9X 8085   2.441   6.231   3.543 -1.1549  1.8291 -0.7271
   86SOPE   H9Y 8086   2.312   6.110   3.567 -0.4496 -0.1049  1.5981
   86SOPE  C310 8087   2.340   6.258   3.727 -0.1114  0.1738 -0.2379
   86SOPE  H10X 8088   2.234   6.265   3.759  0.5459 -0.9049  2.4369
   86SOPE  H10Y 8089   2.387   6.358   3.729 -1.1386  0.6866 -0.8514
   86SOPE  C311 8090   2.433   6.170   3.808  0.5764 -0.5665 -0.6803
   86SOPE  H11X 8091   2.441   6.199   3.915 -1.0068 -1.4868 -0.2762
   86SOPE  H11Y 8092   2.534   6.161   3.762 -0.3274 -1.0097 -2.7247
   86SOPE  C312 8093   2.391   6.023   3.825 -0.3162  0.0360 -0.0413
   86SOPE  H12X 8094   2.371   5.978   3.725 -1.9848  1.7126 -0.5284
   86SOPE  H12Y 8095   2.291   6.029   3.875  0.4589 -3.0888  2.2265
   86SOPE  C313 8096   2.487   5.935   3.910 -0.1704 -0.6412  0.5756
   86SOPE  H13X 8097   2.593   5.946   3.880 -0.7017  1.2724 -0.7726
   86SOPE  H13Y 8098   2.455   5.828   3.915 -1.7151 -0.2347  0.0840
   86SOPE  C314 8099   2.484   5.977   4.058 -0.5729 -0.0114 -0.6936
   86SOPE  H14X 8100   2.381   5.989   4.099 -0.3679 -0.9640  0.1627
   86SOPE  H14Y 8101   2.537   6.073   4.069  1.7244 -1.0932 -1.6984
   86SOPE  C315 8102   2.544   5.871   4.155 -0.3189 -0.3177  0.1490
   86SOPE  H15X 8103   2.654   5.864   4.146 -0.4190  0.3940 -2.2796
   86SOPE  H15Y 8104   2.507   5.769   4.129  1.3528 -0.4191 -2.1013
   86SOPE  C316 8105   2.514   5.888   4.308 -0.6517  0.4163 -0.4481
   86SOPE  H16X 8106   2.406   5.911   4.323 -0.6133  0.1029  0.4083
   86SOPE  H16Y 8107   2.566   5.979   4.345  0.4465 -0.9306  1.5192
   86SOPE  C317 8108   2.563   5.761   4.388 -0.0814  0.2309  0.0767
   86SOPE  H17X 8109   2.672   5.760   4.366 -0.5539 -1.8613 -2.7018
   86SOPE  H17Y 8110   2.525   5.663   4.353 -0.3352 -0.0877  1.1895
   86SOPE  C318 8111   2.540   5.763   4.539 -0.1357 -0.5432  0.2927
   86SOPE  H18X 8112   2.596   5.678   4.584 -0.2269  0.0935  1.6467
   86SOPE  H18Y 8113   2.433   5.747   4.561  0.2849 -3.4209  0.6979
   86SOPE  H18Z 8114   2.589   5.854   4.580 -1.4454  1.1105 -1.6186
   87SOPE     N 8115   4.767   6.207   1.868  0.1881 -0.1107  0.4572
   87SOPE   HN1 8116   4.829   6.265   1.926  0.4119 -0.8082  0.9259
   87SOPE   HN2 8117   4.783   6.109   1.899 -1.9823 -0.4228  0.7850
   87SOPE   HN3 8118   4.786   6.216   1.766 -0.3966  3.8291  0.5404
   87SOPE   C12 8119   4.622   6.248   1.889  0.1607 -0.2306  0.6575
   87SOPE  H12A 8120   4.558   6.211   1.806 -1.1278  0.9777  1.0522
   87SOPE  H12B 8121   4.622   6.359   1.885 -1.9598 -0.1305  1.7065
   87SOPE   C11 8122   4.575   6.190   2.025 -0.4467  0.5812  0.5517
   87SOPE  H11A 8123   4.470   6.223   2.041 -0.9726  0.0723 -1.5318
   87SOPE  H11B 8124   4.642   6.239   2.099  0.5180  2.1443 -1.2749
   87SOPE     P 8125   4.501   5.946   2.087  0.3496 -0.1959 -0.0418
   87SOPE   O13 8126   4.566   5.816   2.101 -0.2335  0.3431  0.2748
   87SOPE   O14 8127   4.372   5.947   2.020 -0.2455 -0.0087 -0.0061
   87SOPE   O12 8128   4.595   6.052   2.019 -0.1314  0.5093 -0.3772
   87SOPE   O11 8129   4.484   6.014   2.225 -0.3145 -0.2785  0.1378
   87SOPE    C1 8130   4.596   6.028   2.320  0.0648  0.1430 -0.6595
   87SOPE    HA 8131   4.601   6.137   2.342  0.3030 -0.0981  0.5807
   87SOPE    HB 8132   4.697   6.008   2.278  1.7162  1.7953  2.2064
   87SOPE    C2 8133   4.572   5.946   2.451  0.6117 -0.4567  0.5696
   87SOPE    HS 8134   4.570   5.841   2.414  3.4325 -0.4071  0.0390
   87SOPE   O21 8135   4.439   5.988   2.490 -0.8544 -0.3248  0.4645
   87SOPE   C21 8136   4.369   5.908   2.561  0.0354 -0.7720  0.2524
   87SOPE   O22 8137   4.408   5.797   2.587 -0.1717  0.5722 -0.5389
   87SOPE   C22 8138   4.242   5.974   2.623 -0.3644  0.2630  0.0247
   87SOPE   H2R 8139   4.193   6.029   2.540 -0.4187 -0.2917 -0.3213
   87SOPE   H2S 8140   4.292   6.051   2.685  0.0484  0.6593 -0.7919
   87SOPE    C3 8141   4.674   5.957   2.566 -0.3433 -0.4703  0.2941
   87SOPE    HX 8142   4.735   6.048   2.546 -0.7553  0.2168  1.9726
   87SOPE    HY 8143   4.746   5.875   2.551  1.1114  1.0359 -1.5307
   87SOPE   O31 8144   4.617   5.964   2.695  1.1366  0.0896 -0.0208
   87SOPE   C31 8145   4.699   5.961   2.793  0.0997  0.3559 -0.2375
   87SOPE   O32 8146   4.819   5.956   2.786 -0.2020  0.3291  0.2874
   87SOPE   C32 8147   4.613   5.959   2.921 -0.1613 -0.1294  0.2239
   87SOPE   H2X 8148   4.544   5.871   2.923  0.4093 -0.5887 -0.1004
   87SOPE   H2Y 8149   4.552   6.052   2.927  1.5273  0.9510  1.3069
   87SOPE   C23 8150   4.137   5.908   2.721  0.5105 -0.5491 -0.2494
   87SOPE   H3R 8151   4.099   5.819   2.667  0.4022  0.3368 -1.6823
   87SOPE   H3S 8152   4.055   5.977   2.750  1.4816  0.1427  0.9760
   87SOPE   C24 8153   4.196   5.850   2.850  0.3676 -0.1350  0.3974
   87SOPE   H4R 8154   4.248   5.755   2.823 -2.3678 -1.0866 -1.9831
   87SOPE   H4S 8155   4.274   5.913   2.898  1.9117 -3.1318  2.1317
   87SOPE   C25 8156   4.097   5.804   2.965 -0.3711 -0.3826 -0.0224
   87SOPE   H5R 8157   4.055   5.892   3.018 -1.6136  0.6947 -2.6011
   87SOPE   H5S 8158   4.018   5.746   2.913 -0.9789  0.2218  0.1969
   87SOPE   C26 8159   4.151   5.718   3.085  0.7631 -0.1946 -0.0397
   87SOPE   H6R 8160   4.215   5.633   3.053 -0.1592 -0.2018 -2.0201
   87SOPE   H6S 8161   4.221   5.774   3.150  2.6401 -1.7248 -0.6480
   87SOPE   C27 8162   4.036   5.659   3.174 -0.0029  0.4006  0.0636
   87SOPE   H7R 8163   3.976   5.743   3.216 -1.8379 -0.3905 -0.8813
   87SOPE   H7S 8164   3.972   5.596   3.108 -0.7635 -0.1790  1.3224
   87SOPE   C28 8165   4.094   5.562   3.285 -0.3331 -0.1613  0.1835
   87SOPE   H8R 8166   4.155   5.489   3.227 -0.5139  0.4264 -0.7784
   87SOPE   H8S 8167   4.159   5.628   3.347  0.9754  0.0613 -1.3557
   87SOPE   C29 8168   3.993   5.476   3.351 -0.1121 -0.2075  0.8320
   87SOPE   H91 8169   3.936   5.411   3.284 -1.0924  0.8130  0.6537
   87SOPE  C210 8170   3.940   5.494   3.475  1.0931  0.4091 -0.1195
   87SOPE  H101 8171   3.865   5.421   3.507  0.4678  1.5023  1.0122
   87SOPE  C211 8172   3.980   5.596   3.577 -0.0474 -0.3601 -0.8257
   87SOPE  H11R 8173   3.890   5.655   3.604  1.3998  1.9532 -0.8511
   87SOPE  H11S 8174   4.050   5.670   3.533  0.1205  0.3391  0.5667
   87SOPE  C212 8175   4.059   5.543   3.704 -0.2713  0.0212  0.0774
   87SOPE  H12R 8176   4.154   5.504   3.662  0.8402  3.4557 -0.9270
   87SOPE  H12S 8177   4.012   5.454   3.751  1.7451  0.3155  2.8338
   87SOPE  C213 8178   4.072   5.656   3.806  0.0666 -0.3971 -1.0421
   87SOPE  H13R 8179   3.967   5.677   3.835 -0.7614 -2.4209 -2.2981
   87SOPE  H13S 8180   4.118   5.743   3.753  0.7123  0.1414  0.3562
   87SOPE  C214 8181   4.172   5.622   3.918 -0.0238 -0.7511 -0.1106
   87SOPE  H14R 8182   4.258   5.560   3.885 -1.4084 -1.4613 -2.6972
   87SOPE  H14S 8183   4.119   5.556   3.990  1.3582 -2.4419 -0.5669
   87SOPE  C215 8184   4.228   5.738   3.998  0.1041  0.1208 -0.3174
   87SOPE  H15R 8185   4.269   5.811   3.925 -0.6611  0.3890 -0.4882
   87SOPE  H15S 8186   4.307   5.691   4.060 -1.2539 -0.5307  0.9706
   87SOPE  C216 8187   4.131   5.803   4.098  0.3577  0.6367 -0.5674
   87SOPE  H16R 8188   4.039   5.828   4.041 -1.5114 -1.0382  1.5234
   87SOPE  H16S 8189   4.185   5.891   4.138  0.8974  0.7392 -1.4796
   87SOPE  C217 8190   4.091   5.712   4.211  0.0862  0.1061  0.1655
   87SOPE  H17R 8191   4.188   5.678   4.254  0.7277  1.1889 -0.3743
   87SOPE  H17S 8192   4.041   5.618   4.180 -1.0760 -0.2992  2.9992
   87SOPE  C218 8193   4.011   5.780   4.321 -0.4556 -0.0296 -0.1771
   87SOPE  H18R 8194   4.018   5.723   4.416 -0.7049  1.2516  0.6349
   87SOPE  H18S 8195   3.902   5.770   4.299 -0.2319 -2.4719 -0.3846
   87SOPE  H18T 8196   4.033   5.887   4.342 -2.9989  0.8353 -1.4958
   87SOPE   C33 8197   4.696   5.943   3.047  0.2958  0.6285 -0.5149
   87SOPE   H3X 8198   4.759   6.034   3.061  1.0210 -0.0669  0.9975
   87SOPE   H3Y 8199   4.763   5.854   3.047 -2.3956 -1.5549  1.7067
   87SOPE   C34 8200   4.589   5.928   3.159 -0.2603 -0.1643 -0.2556
   87SOPE   H4X 8201   4.534   5.834   3.135 -0.5792  0.0438 -0.3472
   87SOPE   H4Y 8202   4.524   6.018   3.158  1.1568  0.9255  0.9936
   87SOPE   C35 8203   4.647   5.913   3.301 -0.3654 -0.4720  0.4710
   87SOPE   H5X 8204   4.731   5.841   3.296  1.4291  1.5750 -1.1539
   87SOPE   H5Y 8205   4.563   5.889   3.368 -1.7115 -0.8503 -1.2779
   87SOPE   C36 8206   4.706   6.047   3.338  0.5809  0.1757 -0.4670
   87SOPE   H6X 8207   4.646   6.116   3.275 -0.9603 -1.3043 -0.7210
   87SOPE   H6Y 8208   4.808   6.054   3.296  0.0909  0.4764 -1.6378
   87SOPE   C37 8209   4.688   6.092   3.488  0.4350  0.2009 -0.5717
   87SOPE   H7X 8210   4.749   6.180   3.518 -0.6594  1.0588 -0.7857
   87SOPE   H7Y 8211   4.706   6.010   3.561  1.3264  1.6194  0.8711
   87SOPE   C38 8212   4.545   6.155   3.520 -0.4647  0.8046 -0.1234
   87SOPE   H8X 8213   4.477   6.068   3.504  0.0096  0.6767 -1.5116
   87SOPE   H8Y 8214   4.511   6.242   3.460  0.0228  0.8592 -0.3218
   87SOPE   C39 8215   4.511   6.206   3.657 -0.0594 -0.6910 -0.1621
   87SOPE   H9X 8216   4.404   6.234   3.669 -0.3667 -1.7478 -0.3435
   87SOPE   H9Y 8217   4.564   6.304   3.663  0.2703 -0.9138  0.7315
   87SOPE  C310 8218   4.535   6.104   3.768 -0.4884 -0.5196  0.1983
   87SOPE  H10X 8219   4.644   6.103   3.788 -0.7671  0.2754  1.9356
   87SOPE  H10Y 8220   4.500   6.000   3.749 -0.9774  0.0856 -2.4961
   87SOPE  C311 8221   4.470   6.153   3.900 -0.2370  0.1539 -0.2010
   87SOPE  H11X 8222   4.359   6.164   3.893 -0.3247  0.0667  0.9341
   87SOPE  H11Y 8223   4.515   6.252   3.923 -1.1237  0.4599  0.2845
   87SOPE  C312 8224   4.506   6.061   4.016  0.0561  0.0041  0.0955
   87SOPE  H12X 8225   4.616   6.060   4.029 -0.0735  1.7770  1.8230
   87SOPE  H12Y 8226   4.470   5.958   3.996 -0.3173  0.4740 -1.8692
   87SOPE  C313 8227   4.438   6.105   4.138  0.7978  0.2095  0.1025
   87SOPE  H13X 8228   4.332   6.070   4.135  0.5726  0.8998 -0.2160
   87SOPE  H13Y 8229   4.434   6.216   4.135 -1.3980  0.1469 -1.4587
   87SOPE  C314 8230   4.496   6.050   4.274  0.3851 -0.0482 -0.0107
   87SOPE  H14X 8231   4.505   5.941   4.256  1.1432  0.3995 -2.7710
   87SOPE  H14Y 8232   4.420   6.074   4.351  1.8510 -0.2133  1.5398
   87SOPE  C315 8233   4.622   6.129   4.330 -0.0352  0.1621 -0.7792
   87SOPE  H15X 8234   4.707   6.132   4.260  0.8633 -2.9240  0.0164
   87SOPE  H15Y 8235   4.666   6.076   4.417 -0.8062  1.1631  0.2532
   87SOPE  C316 8236   4.602   6.275   4.380  0.1656  0.6863 -0.5430
   87SOPE  H16X 8237   4.542   6.323   4.300 -0.6765  0.2563 -0.1864
   87SOPE  H16Y 8238   4.697   6.332   4.388 -0.1343  0.9875  1.6634
   87SOPE  C317 8239   4.523   6.282   4.511 -0.2049 -0.1816 -0.6828
   87SOPE  H17X 8240   4.432   6.224   4.483 -0.4536  0.1684 -0.6088
   87SOPE  H17Y 8241   4.489   6.387   4.522 -1.9689 -0.8652  0.8174
   87SOPE  C318 8242   4.590   6.231   4.640 -0.2532  0.5091  0.4909
   87SOPE  H18X 8243   4.685   6.287   4.652  0.5251 -0.0517 -2.2410
   87SOPE  H18Y 8244   4.626   6.126   4.626  0.8228  0.5501  2.5504
   87SOPE  H18Z 8245   4.532   6.247   4.733  0.0990  0.9580  0.6388
   88SOPE     N 8246   3.279   6.186   1.959 -0.1001 -0.2701  0.1311
   88SOPE   HN1 8247   3.321   6.115   2.022  2.2114  0.7902 -0.1166
   88SOPE   HN2 8248   3.196   6.158   1.903 -0.2531  0.1315  0.1545
   88SOPE   HN3 8249   3.360   6.217   1.901  1.6129  1.5860  3.2424
   88SOPE   C12 8250   3.239   6.313   2.038  0.5285  0.0340  0.2409
   88SOPE  H12A 8251   3.148   6.294   2.099  0.9858  1.4058  1.3890
   88SOPE  H12B 8252   3.225   6.398   1.968  1.3240  1.6147  1.9251
   88SOPE   C11 8253   3.342   6.361   2.150 -0.3464 -0.1380  0.0027
   88SOPE  H11A 8254   3.357   6.269   2.210  3.9899  0.2341 -0.2001
   88SOPE  H11B 8255   3.302   6.452   2.198 -1.6809  0.8710 -2.8069
   88SOPE     P 8256   3.533   6.520   2.063  0.4042  0.2899  0.0533
   88SOPE   O13 8257   3.443   6.591   1.973  0.0006  0.4239  0.7258
   88SOPE   O14 8258   3.667   6.487   2.013  0.2755  0.2697 -0.3200
   88SOPE   O12 8259   3.466   6.386   2.085 -0.7935 -0.4619  0.3635
   88SOPE   O11 8260   3.529   6.589   2.203 -0.2322 -0.1276  0.0570
   88SOPE    C1 8261   3.527   6.735   2.206  0.3361 -0.0576 -0.1778
   88SOPE    HA 8262   3.479   6.769   2.300  1.2003 -1.8089  0.9446
   88SOPE    HB 8263   3.471   6.771   2.117  2.6157 -2.2258 -2.6598
   88SOPE    C2 8264   3.667   6.795   2.198  0.1349  0.2685 -0.5877
   88SOPE    HS 8265   3.721   6.746   2.115 -0.2282 -3.8615  1.3943
   88SOPE   O21 8266   3.731   6.776   2.325  0.4501  0.4844 -0.2400
   88SOPE   C21 8267   3.864   6.784   2.333  0.3659 -0.4575  0.5169
   88SOPE   O22 8268   3.929   6.819   2.236 -0.3375 -0.0369  0.6967
   88SOPE   C22 8269   3.910   6.712   2.462  0.3683 -1.3087  0.0284
   88SOPE   H2R 8270   4.020   6.719   2.447  0.1364 -0.1875 -1.4297
   88SOPE   H2S 8271   3.880   6.605   2.456  0.2696 -1.2713 -0.1540
   88SOPE    C3 8272   3.652   6.949   2.183 -0.2592 -0.3910 -0.9148
   88SOPE    HX 8273   3.595   6.950   2.088 -0.7974 -3.6558 -0.7378
   88SOPE    HY 8274   3.745   7.009   2.172 -0.1352 -0.1902  0.9937
   88SOPE   O31 8275   3.561   7.001   2.284  0.0215  0.2247  0.1210
   88SOPE   C31 8276   3.619   7.059   2.390 -0.2499  0.0043 -0.3461
   88SOPE   O32 8277   3.733   7.042   2.421 -0.3160 -0.1685 -0.3401
   88SOPE   C32 8278   3.524   7.154   2.457 -0.0666 -0.7803  0.7240
   88SOPE   H2X 8279   3.421   7.120   2.479  0.4871 -1.5030  2.3897
   88SOPE   H2Y 8280   3.517   7.240   2.388 -1.7157 -1.5619 -0.1433
   88SOPE   C23 8281   3.859   6.770   2.591 -0.6604 -0.3555  0.0327
   88SOPE   H3R 8282   3.748   6.772   2.591 -0.6766  0.7276  1.8891
   88SOPE   H3S 8283   3.897   6.874   2.603  2.4914 -1.3044 -0.8506
   88SOPE   C24 8284   3.912   6.689   2.710 -0.2592 -0.2527  0.3297
   88SOPE   H4R 8285   3.893   6.581   2.697 -3.7307 -0.0247  2.3905
   88SOPE   H4S 8286   4.023   6.693   2.713 -0.0162 -0.7817 -3.2404
   88SOPE   C25 8287   3.840   6.727   2.845  0.6574 -1.1154  0.3465
   88SOPE   H5R 8288   3.833   6.838   2.845  0.1551 -1.1465  0.0931
   88SOPE   H5S 8289   3.736   6.691   2.827  0.3984  0.0328 -0.5557
   88SOPE   C26 8290   3.908   6.681   2.966 -0.3363  0.6502 -0.4268
   88SOPE   H6R 8291   3.839   6.655   3.049  2.4179 -1.8725  1.2963
   88SOPE   H6S 8292   3.947   6.579   2.942 -0.0856  0.3842  1.0103
   88SOPE   C27 8293   4.027   6.758   3.015  0.1515  0.7164 -1.0228
   88SOPE   H7R 8294   4.085   6.759   2.921  1.3288 -0.2380 -0.3383
   88SOPE   H7S 8295   4.001   6.863   3.041 -1.1782  0.0277  0.6677
   88SOPE   C28 8296   4.090   6.690   3.143  0.5708 -0.1968  0.3367
   88SOPE   H8R 8297   4.007   6.678   3.216  0.0734  0.9683 -0.0022
   88SOPE   H8S 8298   4.125   6.589   3.115  0.2584  0.2283 -1.7489
   88SOPE   C29 8299   4.197   6.783   3.202  0.5441 -0.4859 -0.4965
   88SOPE   H91 8300   4.235   6.855   3.127 -0.6455  0.0812 -0.5699
   88SOPE  C210 8301   4.242   6.793   3.324 -0.1041 -0.4996  0.2774
   88SOPE  H101 8302   4.318   6.866   3.357  2.6270 -2.9356 -0.2629
   88SOPE  C211 8303   4.208   6.712   3.439  0.1764  0.4269 -0.4316
   88SOPE  H11R 8304   4.295   6.716   3.508 -1.6915  0.2056  2.0764
   88SOPE  H11S 8305   4.185   6.606   3.413  1.2628 -0.5138  2.1013
   88SOPE  C212 8306   4.102   6.772   3.526 -0.6372  0.1087  0.2174
   88SOPE  H12R 8307   4.020   6.818   3.467 -1.3457 -0.5209  0.6923
   88SOPE  H12S 8308   4.146   6.853   3.589 -0.2970  0.4255 -0.4264
   88SOPE  C213 8309   4.026   6.670   3.610 -0.2660  0.3319 -0.4309
   88SOPE  H13R 8310   3.981   6.592   3.544  0.6343  0.4513 -1.2213
   88SOPE  H13S 8311   3.943   6.729   3.653 -2.8990 -0.3267 -4.0804
   88SOPE  C214 8312   4.109   6.595   3.722 -0.1752 -0.1272 -0.6194
   88SOPE  H14R 8313   4.161   6.510   3.672 -2.0591 -0.9468 -1.2637
   88SOPE  H14S 8314   4.038   6.536   3.784  2.7104 -1.6991  1.4471
   88SOPE  C215 8315   4.199   6.695   3.804 -0.4227 -0.0628  0.0221
   88SOPE  H15R 8316   4.128   6.775   3.833 -2.8923 -1.1486 -2.5350
   88SOPE  H15S 8317   4.274   6.738   3.735 -0.8607  0.7823  0.0714
   88SOPE  C216 8318   4.275   6.630   3.921 -0.0611  0.4732  0.2674
   88SOPE  H16R 8319   4.326   6.537   3.888 -0.3429 -0.0131  1.1768
   88SOPE  H16S 8320   4.193   6.598   3.989  0.0028  1.8753  1.0375
   88SOPE  C217 8321   4.374   6.716   3.990 -0.3453  0.1899 -0.3045
   88SOPE  H17R 8322   4.325   6.812   4.017  1.6304  0.8287  1.2909
   88SOPE  H17S 8323   4.460   6.743   3.925 -0.2923  1.9151  0.4038
   88SOPE  C218 8324   4.445   6.660   4.119  0.2174 -0.1916  0.2153
   88SOPE  H18R 8325   4.534   6.718   4.150  0.6460 -2.0303  2.7404
   88SOPE  H18S 8326   4.476   6.556   4.092 -3.0194 -0.9433 -1.0160
   88SOPE  H18T 8327   4.376   6.643   4.204  0.4981 -1.6601  0.1769
   88SOPE   C33 8328   3.593   7.210   2.585  0.2764  0.1724 -0.8172
   88SOPE   H3X 8329   3.550   7.310   2.609 -2.1248 -1.2321  1.1632
   88SOPE   H3Y 8330   3.702   7.225   2.566  0.3530 -1.4403 -1.8203
   88SOPE   C34 8331   3.561   7.121   2.713  0.3572 -0.0892 -0.0976
   88SOPE   H4X 8332   3.593   7.019   2.681  0.8436  0.4539 -1.4318
   88SOPE   H4Y 8333   3.452   7.121   2.733  0.3212 -0.5015 -0.2767
   88SOPE   C35 8334   3.639   7.177   2.826 -0.0668  0.4269 -0.5040
   88SOPE   H5X 8335   3.602   7.279   2.848  0.4928  0.4148  0.5793
   88SOPE   H5Y 8336   3.742   7.200   2.790 -0.2111  1.0469 -0.5331
   88SOPE   C36 8337   3.634   7.101   2.962  0.4963  0.3484  0.3492
   88SOPE   H6X 8338   3.681   7.001   2.960 -0.6272 -0.3501  3.2904
   88SOPE   H6Y 8339   3.525   7.084   2.979 -0.1584  1.7978 -1.8895
   88SOPE   C37 8340   3.693   7.167   3.090  0.2810 -0.0927 -0.3965
   88SOPE   H7X 8341   3.639   7.262   3.109  1.7912  0.9632 -1.1229
   88SOPE   H7Y 8342   3.792   7.196   3.047 -0.3764  1.0428 -1.2000
   88SOPE   C38 8343   3.691   7.066   3.205  0.1905 -0.3339  0.2835
   88SOPE   H8X 8344   3.746   6.972   3.184  0.5285  0.1131 -0.9305
   88SOPE   H8Y 8345   3.586   7.048   3.238  0.3211  0.7020  1.3195
   88SOPE   C39 8346   3.751   7.132   3.330 -0.1957 -0.1149 -0.6069
   88SOPE   H9X 8347   3.674   7.210   3.352 -1.4257 -1.0610 -1.4633
   88SOPE   H9Y 8348   3.854   7.167   3.307 -0.1257 -0.0703 -0.2395
   88SOPE  C310 8349   3.765   7.031   3.449 -1.1123  0.8688 -0.1369
   88SOPE  H10X 8350   3.848   6.963   3.421 -0.2995  2.1166 -0.8149
   88SOPE  H10Y 8351   3.673   6.970   3.466 -0.8265  0.5014  0.1245
   88SOPE  C311 8352   3.796   7.104   3.583 -0.4251  0.1903  0.0530
   88SOPE  H11X 8353   3.709   7.167   3.610  1.6317  2.4346  1.8191
   88SOPE  H11Y 8354   3.883   7.171   3.569 -1.9724  1.8174 -2.7490
   88SOPE  C312 8355   3.822   6.994   3.695  0.3654 -0.2583  0.4765
   88SOPE  H12X 8356   3.921   6.947   3.674  0.2561 -1.8255  3.0500
   88SOPE  H12Y 8357   3.737   6.924   3.704 -1.9889  2.2774 -0.6834
   88SOPE  C313 8358   3.839   7.079   3.824 -0.0747  0.6476  0.1821
   88SOPE  H13X 8359   3.744   7.121   3.864 -0.6357  0.9732 -1.4224
   88SOPE  H13Y 8360   3.897   7.171   3.800 -2.4952  1.8332 -1.6272
   88SOPE  C314 8361   3.907   7.013   3.942 -0.0251  0.2259  0.3135
   88SOPE  H14X 8362   3.994   6.952   3.912  0.4378  2.0172 -2.3587
   88SOPE  H14Y 8363   3.840   6.947   4.001 -0.9375  1.7531  1.0508
   88SOPE  C315 8364   3.956   7.117   4.042  0.0493 -0.2563  0.0301
   88SOPE  H15X 8365   3.859   7.164   4.067 -0.9321 -1.5868 -1.1320
   88SOPE  H15Y 8366   4.030   7.190   4.002 -0.7283  2.4205  3.0954
   88SOPE  C316 8367   4.005   7.067   4.179 -0.0235  0.0939 -0.4555
   88SOPE  H16X 8368   3.928   7.004   4.227 -0.2644  0.9691  0.3441
   88SOPE  H16Y 8369   4.015   7.159   4.242  1.6852  0.5290 -1.2940
   88SOPE  C317 8370   4.129   6.975   4.171  0.2068 -0.3764 -0.5125
   88SOPE  H17X 8371   4.205   7.018   4.101  1.0125  0.8464  1.0547
   88SOPE  H17Y 8372   4.098   6.874   4.139 -1.1417  0.0931 -0.7376
   88SOPE  C318 8373   4.200   6.974   4.306  0.5776  0.0003 -0.2450
   88SOPE  H18X 8374   4.137   6.941   4.392  0.1154 -0.7903 -0.8707
   88SOPE  H18Y 8375   4.244   7.074   4.327 -1.5565  0.6743  1.3906
   88SOPE  H18Z 8376   4.284   6.903   4.291 -0.1528 -0.8273 -0.5218
   89SAPC     N 8377   2.252   4.923   7.102  0.0085 -0.3112  0.1817
   89SAPC   C12 8378   2.261   4.954   6.952  0.2718  0.4514  0.3664
   89SAPC  H12A 8379   2.351   5.012   6.940  1.8574 -1.9050  0.1515
   89SAPC  H12B 8380   2.176   5.015   6.924  0.1896  0.8376  1.4173
   89SAPC   C13 8381   2.376   4.853   7.148 -0.2471  0.0863 -0.5549
   89SAPC  H13A 8382   2.375   4.825   7.253  2.2042 -4.3991 -1.4577
   89SAPC  H13B 8383   2.372   4.764   7.086  1.3898 -0.2408 -0.2294
   89SAPC  H13C 8384   2.456   4.916   7.114 -0.7586  1.4866  0.7400
   89SAPC   C14 8385   2.232   5.057   7.170 -0.4087  0.6002 -0.0307
   89SAPC  H14A 8386   2.149   5.120   7.142 -1.1854  0.2524  1.3874
   89SAPC  H14B 8387   2.214   5.032   7.273 -1.2573 -0.0546 -0.3265
   89SAPC  H14C 8388   2.321   5.118   7.165 -0.3501  0.9327  3.0680
   89SAPC   C15 8389   2.135   4.839   7.140  0.1827 -0.4231  0.0354
   89SAPC  H15A 8390   2.042   4.889   7.118 -0.2736 -1.6186 -0.9227
   89SAPC  H15B 8391   2.136   4.745   7.086 -2.6002  0.3061 -1.4985
   89SAPC  H15C 8392   2.143   4.800   7.240 -1.5923 -3.9069 -1.0133
   89SAPC   C11 8393   2.266   4.826   6.859 -0.3948  0.1090  0.5558
   89SAPC  H11A 8394   2.306   4.866   6.763 -1.4934  1.5507  0.6498
   89SAPC  H11B 8395   2.161   4.796   6.837  0.0145 -0.8630 -0.1426
   89SAPC     P 8396   2.287   4.571   6.871 -0.3916  0.0257 -0.2982
   89SAPC   O13 8397   2.405   4.478   6.878  0.0830 -0.5155 -0.4309
   89SAPC   O14 8398   2.168   4.544   6.959  0.2406  0.3324 -0.5396
   89SAPC   O12 8399   2.345   4.721   6.903 -0.6418  0.1528  0.1222
   89SAPC   O11 8400   2.234   4.576   6.724 -0.0954 -0.2888 -0.0217
   89SAPC    C1 8401   2.308   4.546   6.610 -0.8738 -0.0024 -0.1974
   89SAPC    HA 8402   2.293   4.633   6.542  1.7496  0.7870  0.1378
   89SAPC    HB 8403   2.416   4.544   6.634 -0.6523 -0.2851 -1.1602
   89SAPC    C2 8404   2.255   4.410   6.557  0.2022 -0.6676  0.4467
   89SAPC    HS 8405   2.258   4.344   6.646 -0.2379 -1.1948  0.0748
   89SAPC   O21 8406   2.349   4.371   6.456 -0.4981 -0.0146  0.5869
   89SAPC   C21 8407   2.353   4.245   6.414  0.2147 -0.8290 -0.3512
   89SAPC   O22 8408   2.280   4.160   6.463 -0.3562  0.3101  0.1827
   89SAPC   C22 8409   2.453   4.224   6.298 -0.0323 -0.1112 -0.5482
   89SAPC   H2R 8410   2.546   4.278   6.325 -1.2060  1.4702  0.5007
   89SAPC   H2S 8411   2.472   4.115   6.299  2.5557  0.2701  1.8261
   89SAPC    C3 8412   2.109   4.425   6.496  0.3653 -0.0285  0.1096
   89SAPC    HX 8413   2.029   4.452   6.569  0.3962 -1.2617  0.6195
   89SAPC    HY 8414   2.074   4.326   6.461 -0.0503 -0.8498  2.6803
   89SAPC   O31 8415   2.097   4.523   6.386 -0.2383 -0.1988 -0.0713
   89SAPC   C31 8416   1.976   4.541   6.345  0.1660 -0.1473 -0.3712
   89SAPC   O32 8417   1.873   4.478   6.363 -0.5362  0.8650 -0.0126
   89SAPC   C32 8418   1.974   4.670   6.263  0.5209 -0.7671  0.0115
   89SAPC   H2X 8419   1.995   4.757   6.329  1.2844  0.4312 -1.7306
   89SAPC   H2Y 8420   1.874   4.672   6.215  0.3760 -1.3402  0.2834
   89SAPC   C23 8421   2.399   4.286   6.166 -0.3373  0.3748  0.2399
   89SAPC   H3R 8422   2.481   4.267   6.093 -0.0369 -0.3029  0.7376
   89SAPC   H3S 8423   2.404   4.397   6.175  1.9431  0.2976  0.4946
   89SAPC   C24 8424   2.265   4.221   6.127 -0.0801 -0.9114  0.6556
   89SAPC   H4R 8425   2.184   4.282   6.173  0.4601 -0.7142  1.3637
   89SAPC   H4S 8426   2.248   4.123   6.176 -4.3359 -0.7533 -0.1632
   89SAPC   C25 8427   2.245   4.236   5.977  0.2392  0.1354 -0.2332
   89SAPC   H5R 8428   2.274   4.335   5.938  0.0701  0.5322  0.6385
   89SAPC   C26 8429   2.210   4.135   5.893  0.2692  0.2590  0.9288
   89SAPC   H6R 8430   2.179   4.158   5.790  2.7338 -0.1331  0.0256
   89SAPC   C27 8431   2.179   3.990   5.920  0.1734 -0.0535  0.5457
   89SAPC   H7R 8432   2.077   3.961   5.886  0.9609 -1.3373 -0.8593
   89SAPC   H7S 8433   2.169   3.965   6.028  0.2683 -1.1080  0.3240
   89SAPC   C28 8434   2.292   3.903   5.868 -0.9859  0.0997 -0.2507
   89SAPC   H8R 8435   2.384   3.897   5.928 -1.0803 -0.4821 -0.1600
   89SAPC   C29 8436   2.271   3.815   5.763  0.1707  0.5094 -0.1438
   89SAPC   H9R 8437   2.361   3.759   5.730 -0.7773 -1.9139  1.1049
   89SAPC  C210 8438   2.133   3.792   5.697  0.1043  0.7362  0.6263
   89SAPC  H10R 8439   2.051   3.775   5.771 -2.7165 -0.2108 -2.4806
   89SAPC  H10S 8440   2.142   3.692   5.650  0.3457  0.0225  2.1459
   89SAPC  C211 8441   2.081   3.893   5.598 -0.3968 -0.2367 -0.1857
   89SAPC  H11R 8442   2.047   3.985   5.649  0.3802 -1.2122  2.2656
   89SAPC  C212 8443   2.065   3.880   5.465  0.0747 -0.4917 -0.7365
   89SAPC  H12R 8444   2.029   3.963   5.402  3.7453  2.7398  0.9767
   89SAPC  C213 8445   2.099   3.756   5.393 -0.8794 -0.5532 -0.0919
   89SAPC  H13R 8446   2.064   3.781   5.290 -2.3892  1.6629  0.8716
   89SAPC  H13S 8447   2.033   3.677   5.435 -0.8400  0.4327  1.8955
   89SAPC  C214 8448   2.246   3.709   5.382 -0.0846  0.1516  0.6125
   89SAPC  H14R 8449   2.316   3.707   5.467  3.5723 -1.9617 -2.1621
   89SAPC  C215 8450   2.305   3.663   5.272 -0.8339 -0.4049  0.2667
   89SAPC  H15R 8451   2.406   3.622   5.281  0.0284  1.5050 -0.2548
   89SAPC  C216 8452   2.249   3.646   5.133  0.1156 -0.3383 -0.2164
   89SAPC  H16R 8453   2.145   3.612   5.148 -0.3366  0.8410 -0.5762
   89SAPC  H16S 8454   2.304   3.564   5.081  0.7528 -1.0618  1.5366
   89SAPC  C217 8455   2.229   3.765   5.033 -0.0431 -0.4948  0.5084
   89SAPC  H17R 8456   2.321   3.824   5.018  0.1826  0.0990  3.5756
   89SAPC  H17S 8457   2.156   3.830   5.086 -2.3340 -4.6181  2.9901
   89SAPC  C218 8458   2.170   3.729   4.893  0.2862 -1.0761 -0.0889
   89SAPC  H18R 8459   2.065   3.697   4.909  0.5295 -1.3141  1.1855
   89SAPC  H18S 8460   2.230   3.641   4.862 -0.5508 -1.5380 -0.4244
   89SAPC  C219 8461   2.180   3.845   4.794  0.3406  0.3017  0.1942
   89SAPC  H19R 8462   2.145   3.809   4.695  2.0765  1.5991 -0.9355
   89SAPC  H19S 8463   2.288   3.866   4.781 -0.0185  0.8283 -2.5224
   89SAPC  C220 8464   2.102   3.973   4.844  0.1158  1.0262  0.6207
   89SAPC  H20R 8465   2.069   4.044   4.766  2.0393  1.3305  0.0186
   89SAPC  H20S 8466   2.157   4.033   4.920 -0.7000  0.8503  1.3587
   89SAPC  H20T 8467   2.009   3.941   4.896  0.5167  1.1041  1.4049
   89SAPC   C33 8468   2.081   4.672   6.146  0.1966 -0.2010 -0.7946
   89SAPC   H3X 8469   2.181   4.639   6.180  0.3789  1.4119  0.3393
   89SAPC   H3Y 8470   2.086   4.776   6.108 -0.9570  0.5952  1.0680
   89SAPC   C34 8471   2.027   4.580   6.044  0.0062  0.2897 -0.2062
   89SAPC   H4X 8472   1.923   4.615   6.025 -0.3188 -0.9744 -0.9255
   89SAPC   H4Y 8473   2.040   4.473   6.070  3.6718  0.6866  0.0316
   89SAPC   C35 8474   2.102   4.585   5.911 -0.1219 -0.6649  0.0641
   89SAPC   H5X 8475   2.206   4.554   5.934 -0.0863 -2.3562 -2.1731
   89SAPC   H5Y 8476   2.099   4.694   5.887  1.4887 -0.6147 -0.0377
   89SAPC   C36 8477   2.046   4.501   5.801  0.3682  0.2429  0.4947
   89SAPC   H6X 8478   1.935   4.506   5.795  0.3968  2.0843  0.7964
   89SAPC   H6Y 8479   2.074   4.394   5.814  1.5020  0.4924  0.2048
   89SAPC   C37 8480   2.115   4.523   5.665  0.2013 -0.0119 -0.1217
   89SAPC   H7X 8481   2.223   4.525   5.690  0.1561  1.1353  0.0297
   89SAPC   H7Y 8482   2.077   4.617   5.620 -0.8597 -0.3889 -0.0548
   89SAPC   C38 8483   2.090   4.415   5.553  0.8385 -0.4604  0.0221
   89SAPC   H8X 8484   1.983   4.416   5.525  1.0324  1.4969 -0.8021
   89SAPC   H8Y 8485   2.110   4.315   5.597 -0.7125 -0.1500  1.5236
   89SAPC   C39 8486   2.167   4.437   5.421 -0.1543  0.1774 -0.0678
   89SAPC   H9X 8487   2.275   4.419   5.437  0.0656 -0.0382 -1.6299
   89SAPC   H9Y 8488   2.150   4.540   5.382 -0.8752 -0.3077 -1.0837
   89SAPC  C310 8489   2.118   4.338   5.312  0.1355  0.5635  0.1685
   89SAPC  H10X 8490   2.013   4.362   5.284  0.3958  0.7034 -0.7130
   89SAPC  H10Y 8491   2.125   4.233   5.351  0.2460  0.4114 -0.2610
   89SAPC  C311 8492   2.185   4.326   5.177  0.6899 -0.9282  0.2960
   89SAPC  H11X 8493   2.214   4.220   5.164 -0.1216 -0.9143 -2.0778
   89SAPC  H11Y 8494   2.276   4.390   5.185 -1.7465  2.6938  1.5982
   89SAPC  C312 8495   2.097   4.373   5.058 -0.0144  0.2275  0.2740
   89SAPC  H12X 8496   2.019   4.298   5.035  0.8902 -0.4710 -0.6018
   89SAPC  H12Y 8497   2.157   4.366   4.964 -0.8377 -0.1554 -0.2297
   89SAPC  C313 8498   2.057   4.524   5.059  0.4463 -0.1602 -0.1796
   89SAPC  H13X 8499   2.143   4.588   5.030 -1.1552  2.1465 -0.1011
   89SAPC  H13Y 8500   2.013   4.554   5.156 -1.7901 -0.5410 -1.0167
   89SAPC  C314 8501   1.942   4.567   4.952 -0.4675  0.3837  0.2309
   89SAPC  H14X 8502   1.973   4.550   4.847 -0.3337 -0.2682  0.3699
   89SAPC  H14Y 8503   1.931   4.677   4.960 -0.4055  0.2895  2.1866
   89SAPC  C315 8504   1.813   4.488   4.972 -0.5725  0.7454 -0.3466
   89SAPC  H15X 8505   1.760   4.535   5.058 -3.2643 -2.6027  0.0690
   89SAPC  H15Y 8506   1.844   4.382   4.989  1.9782  1.1550 -1.9721
   89SAPC  C316 8507   1.726   4.499   4.851  1.1006  0.4607  0.4952
   89SAPC  H16X 8508   1.631   4.441   4.853  0.6901  1.0871  0.0609
   89SAPC  H16Y 8509   1.782   4.467   4.761  1.0546 -2.5525  1.4337
   89SAPC  C317 8510   1.680   4.642   4.831 -0.0983 -0.2529  0.1721
   89SAPC  H17X 8511   1.773   4.700   4.808 -0.0173 -0.5786 -0.3433
   89SAPC  H17Y 8512   1.618   4.693   4.908 -1.5622 -0.2045 -0.9810
   89SAPC  C318 8513   1.593   4.653   4.699 -0.8821  0.3403  0.5707
   89SAPC  H18X 8514   1.572   4.755   4.659 -5.0165  0.1606  1.7671
   89SAPC  H18Y 8515   1.499   4.595   4.715 -0.2992 -0.9072 -0.3468
   89SAPC  H18Z 8516   1.653   4.593   4.627  1.6862  0.9853  2.0627
   90SAPC     N 8517   0.732   2.084   6.981 -0.3399  0.3796  0.5435
   90SAPC   C12 8518   0.608   2.126   6.901 -0.8266 -0.0037 -1.0862
   90SAPC  H12A 8519   0.631   2.196   6.822 -0.8902  1.4913  0.1471
   90SAPC  H12B 8520   0.542   2.169   6.975 -1.5056 -2.8050  0.0273
   90SAPC   C13 8521   0.812   2.203   7.016 -0.3581  0.0377  0.0766
   90SAPC  H13A 8522   0.875   2.251   6.941  0.7476  0.6730  1.3581
   90SAPC  H13B 8523   0.757   2.284   7.062 -1.1594  0.3178 -1.3254
   90SAPC  H13C 8524   0.892   2.172   7.082  0.2556 -1.4389 -1.3078
   90SAPC   C14 8525   0.701   2.024   7.117  0.1362  0.0407  0.5349
   90SAPC  H14A 8526   0.792   2.023   7.176  0.0359 -0.3046  0.6829
   90SAPC  H14B 8527   0.626   2.087   7.163 -1.4828 -1.6983  0.3820
   90SAPC  H14C 8528   0.658   1.925   7.120  0.4733 -0.1002  0.7751
   90SAPC   C15 8529   0.823   1.999   6.900 -0.7796  0.4036  0.4159
   90SAPC  H15A 8530   0.790   1.896   6.891  0.5287  0.0982 -1.4291
   90SAPC  H15B 8531   0.832   2.029   6.797 -0.0396 -1.9476 -0.2713
   90SAPC  H15C 8532   0.922   1.996   6.945 -0.9159 -0.1094  0.6965
   90SAPC   C11 8533   0.502   2.025   6.843 -0.1011  0.9156 -0.8221
   90SAPC  H11A 8534   0.549   1.973   6.756 -0.6864  1.7086 -1.6310
   90SAPC  H11B 8535   0.416   2.086   6.806  0.9921  2.8206 -0.3698
   90SAPC     P 8536   0.356   1.978   7.060 -0.3432 -0.0199  0.1963
   90SAPC   O13 8537   0.385   1.878   7.167  0.2311  0.3457  0.0287
   90SAPC   O14 8538   0.371   2.116   7.093  0.1064 -0.0800  0.2661
   90SAPC   O12 8539   0.464   1.938   6.948 -0.2332 -0.1670  0.3949
   90SAPC   O11 8540   0.219   1.945   6.981 -0.4298 -0.2023 -0.3764
   90SAPC    C1 8541   0.214   1.840   6.884  0.4829  0.3864 -0.5577
   90SAPC    HA 8542   0.141   1.872   6.807  1.4433  2.3149 -0.7357
   90SAPC    HB 8543   0.304   1.822   6.821 -0.3892  0.7321 -1.9480
   90SAPC    C2 8544   0.171   1.705   6.946  0.2305  0.4808 -0.0329
   90SAPC    HS 8545   0.241   1.676   7.027 -0.5585 -1.6584 -0.0709
   90SAPC   O21 8546   0.175   1.600   6.847 -0.6539  0.0371  0.1453
   90SAPC   C21 8547   0.291   1.565   6.804  0.1181  0.4344 -0.3351
   90SAPC   O22 8548   0.398   1.595   6.860 -0.1406  0.2650 -0.3204
   90SAPC   C22 8549   0.280   1.497   6.666  0.1920  0.2112  0.1217
   90SAPC   H2R 8550   0.362   1.422   6.660 -0.0504  0.0281 -2.0566
   90SAPC   H2S 8551   0.182   1.446   6.658  0.7523 -0.7561 -1.0130
   90SAPC    C3 8552   0.027   1.703   7.012  0.2089 -0.4246  0.7909
   90SAPC    HX 8553   0.029   1.797   7.072  1.4678 -0.1325  0.3119
   90SAPC    HY 8554   0.011   1.619   7.084 -2.8055  1.2636  2.2703
   90SAPC   O31 8555  -0.092   1.709   6.927 -0.6758 -0.0820  0.0818
   90SAPC   C31 8556  -0.127   1.603   6.855 -0.3797 -0.5626 -0.9543
   90SAPC   O32 8557  -0.072   1.496   6.858  0.7341  0.4800  0.1137
   90SAPC   C32 8558  -0.238   1.636   6.757 -0.4455  0.0243 -0.0619
   90SAPC   H2X 8559  -0.240   1.740   6.718  0.7339 -0.9008 -2.7816
   90SAPC   H2Y 8560  -0.336   1.622   6.807 -1.2252 -2.2134 -2.0598
   90SAPC   C23 8561   0.283   1.609   6.563 -0.1564  0.3635 -0.0289
   90SAPC   H3R 8562   0.228   1.701   6.591 -1.6832 -0.6146  0.2686
   90SAPC   H3S 8563   0.226   1.578   6.473 -0.3928  2.1917 -0.5496
   90SAPC   C24 8564   0.429   1.644   6.515  0.9444 -0.2531 -0.4490
   90SAPC   H4R 8565   0.483   1.704   6.592  0.8110 -0.2702 -0.3411
   90SAPC   H4S 8566   0.412   1.714   6.430 -0.1031 -2.4424 -2.1236
   90SAPC   C25 8567   0.519   1.525   6.476  0.0865  0.6282 -0.7631
   90SAPC   H5R 8568   0.507   1.445   6.551 -2.1303  3.0026  1.5836
   90SAPC   C26 8569   0.614   1.519   6.382 -0.4720  0.4781 -0.4196
   90SAPC   H6R 8570   0.667   1.425   6.361  0.7459  0.9219  0.5359
   90SAPC   C27 8571   0.641   1.635   6.289  0.3128 -0.0314  0.3598
   90SAPC   H7R 8572   0.750   1.631   6.268  0.3279 -1.5048  0.5970
   90SAPC   H7S 8573   0.617   1.735   6.332  0.2983  0.4103 -0.6624
   90SAPC   C28 8574   0.558   1.647   6.169 -0.2724 -0.3102  0.1060
   90SAPC   H8R 8575   0.454   1.612   6.179 -0.0736 -1.2392 -0.8909
   90SAPC   C29 8576   0.592   1.682   6.044 -0.3991 -0.9135 -0.0543
   90SAPC   H9R 8577   0.514   1.689   5.967  0.4100  0.2092 -0.7982
   90SAPC  C210 8578   0.729   1.719   5.999 -0.0228 -0.1118  0.1230
   90SAPC  H10R 8579   0.790   1.767   6.078  1.3239  2.1265 -2.1400
   90SAPC  H10S 8580   0.714   1.797   5.922 -0.5161 -1.4916 -1.2494
   90SAPC  C211 8581   0.819   1.609   5.943  0.4777 -0.2995  0.2926
   90SAPC  H11R 8582   0.812   1.514   5.998 -1.0979  0.3210  1.2609
   90SAPC  C212 8583   0.884   1.620   5.822  0.0384  0.1994 -0.5133
   90SAPC  H12R 8584   0.948   1.536   5.791  0.0422 -0.0531  0.1652
   90SAPC  C213 8585   0.870   1.728   5.723  0.3230 -0.0203 -0.1782
   90SAPC  H13R 8586   0.961   1.741   5.661 -0.7609  0.2157 -1.7813
   90SAPC  H13S 8587   0.861   1.824   5.778  0.4533 -1.0848  1.7974
   90SAPC  C214 8588   0.748   1.715   5.639 -0.8333  0.0928 -0.4738
   90SAPC  H14R 8589   0.660   1.742   5.700  0.0270  2.0886 -0.0330
   90SAPC  C215 8590   0.742   1.680   5.508  0.3661 -0.3194  0.1722
   90SAPC  H15R 8591   0.643   1.672   5.462  0.2774  0.9652  0.1132
   90SAPC  C216 8592   0.858   1.651   5.418 -0.2319  0.7551 -0.0219
   90SAPC  H16R 8593   0.917   1.573   5.471 -1.2852  0.7067  1.1200
   90SAPC  H16S 8594   0.923   1.741   5.416  0.8961  0.0136  1.5846
   90SAPC  C217 8595   0.832   1.598   5.276  0.6505  0.4496  0.4725
   90SAPC  H17R 8596   0.757   1.516   5.274  0.2738  0.7982 -1.2709
   90SAPC  H17S 8597   0.922   1.540   5.245 -0.3817 -0.5232 -0.8130
   90SAPC  C218 8598   0.798   1.703   5.172  1.0038 -0.9800 -0.1430
   90SAPC  H18R 8599   0.708   1.751   5.216  0.7635 -1.3218 -0.2545
   90SAPC  H18S 8600   0.769   1.638   5.086 -0.1964 -0.4464 -0.1601
   90SAPC  C219 8601   0.908   1.805   5.141  0.8858 -0.3226 -0.3925
   90SAPC  H19R 8602   0.998   1.756   5.098  0.7820 -0.3647 -0.5603
   90SAPC  H19S 8603   0.945   1.857   5.232  0.4113 -1.3996  0.4466
   90SAPC  C220 8604   0.857   1.915   5.040  0.5467  0.8231  0.7120
   90SAPC  H20R 8605   0.871   1.900   4.931 -0.0257  2.8508  0.3266
   90SAPC  H20S 8606   0.908   2.012   5.058  0.4932  0.4341  3.4353
   90SAPC  H20T 8607   0.748   1.926   5.052  0.2978 -1.3041  0.8326
   90SAPC   C33 8608  -0.237   1.545   6.637  0.2129  1.4023  0.1406
   90SAPC   H3X 8609  -0.329   1.561   6.577  0.3192 -1.8533 -1.0862
   90SAPC   H3Y 8610  -0.246   1.437   6.662 -0.3033  1.6705  1.1617
   90SAPC   C34 8611  -0.121   1.573   6.540  0.3809 -0.3883  0.5709
   90SAPC   H4X 8612  -0.022   1.536   6.574  0.2897  0.5622  1.9826
   90SAPC   H4Y 8613  -0.119   1.684   6.533  1.1045 -0.4624 -0.7147
   90SAPC   C35 8614  -0.137   1.511   6.401 -0.1293  0.3140  0.1807
   90SAPC   H5X 8615  -0.240   1.499   6.361 -0.1848 -1.3027  0.7474
   90SAPC   H5Y 8616  -0.109   1.408   6.431 -0.1110  0.2782  0.0406
   90SAPC   C36 8617  -0.037   1.567   6.307  0.4039  0.5563  0.8960
   90SAPC   H6X 8618  -0.043   1.523   6.205  1.4697  0.7961  0.7175
   90SAPC   H6Y 8619   0.066   1.544   6.342  0.1091 -0.6403  1.0244
   90SAPC   C37 8620  -0.052   1.721   6.282  0.4965 -0.6614  0.2173
   90SAPC   H7X 8621   0.009   1.763   6.365 -0.9320 -0.6638  1.2974
   90SAPC   H7Y 8622  -0.152   1.759   6.309  0.4427  1.3751 -2.4710
   90SAPC   C38 8623  -0.015   1.768   6.140 -0.3837 -0.2687 -0.4429
   90SAPC   H8X 8624   0.077   1.706   6.124 -0.4365 -0.0166 -1.8771
   90SAPC   H8Y 8625   0.011   1.876   6.140  0.0490 -0.2794  2.7683
   90SAPC   C39 8626  -0.106   1.732   6.018  0.0736  0.0948 -1.0712
   90SAPC   H9X 8627  -0.211   1.762   6.041  0.7085  1.5708  0.0771
   90SAPC   H9Y 8628  -0.104   1.624   5.993 -0.5033  0.1215 -1.2377
   90SAPC  C310 8629  -0.062   1.802   5.884  0.0284 -0.0008 -0.0559
   90SAPC  H10X 8630   0.036   1.758   5.860  1.0619  2.0915  0.1231
   90SAPC  H10Y 8631  -0.034   1.908   5.900 -2.5172  0.3996  2.8289
   90SAPC  C311 8632  -0.167   1.795   5.776 -0.2348  0.8146  0.0981
   90SAPC  H11X 8633  -0.264   1.826   5.818 -0.4588  0.8585 -0.4379
   90SAPC  H11Y 8634  -0.165   1.690   5.737 -0.5180  0.7207  0.3359
   90SAPC  C312 8635  -0.127   1.880   5.647  0.7624 -0.0025  0.7466
   90SAPC  H12X 8636  -0.023   1.855   5.616 -0.0155 -3.2133  0.2813
   90SAPC  H12Y 8637  -0.135   1.986   5.677  1.4920 -0.0878  1.2908
   90SAPC  C313 8638  -0.203   1.854   5.518 -0.5107  0.6813  0.2880
   90SAPC  H13X 8639  -0.312   1.845   5.541 -0.5882 -0.2931 -0.4191
   90SAPC  H13Y 8640  -0.188   1.749   5.485  2.4477  0.1858  2.7519
   90SAPC  C314 8641  -0.194   1.955   5.409  0.2470 -0.5928  0.2476
   90SAPC  H14X 8642  -0.090   1.951   5.370  0.4441 -1.5806  0.8254
   90SAPC  H14Y 8643  -0.235   2.052   5.441 -2.2857 -1.5588  0.1372
   90SAPC  C315 8644  -0.269   1.905   5.288  0.3025 -0.6350 -0.0326
   90SAPC  H15X 8645  -0.375   1.895   5.320  0.3476 -0.5235  0.1513
   90SAPC  H15Y 8646  -0.242   1.799   5.268 -2.7752 -1.7561  1.0724
   90SAPC  C316 8647  -0.241   1.982   5.159 -0.1844  0.2824  0.4356
   90SAPC  H16X 8648  -0.131   1.986   5.146 -0.1969 -0.0974  0.2058
   90SAPC  H16Y 8649  -0.278   2.086   5.174 -0.4596  0.0786  1.2204
   90SAPC  C317 8650  -0.292   1.904   5.044  0.5826 -1.0463 -0.3472
   90SAPC  H17X 8651  -0.399   1.885   5.066  0.4190 -1.0349 -1.0929
   90SAPC  H17Y 8652  -0.243   1.805   5.033 -0.2424 -1.9360  2.9003
   90SAPC  C318 8653  -0.292   1.970   4.908 -0.1323 -0.2533  0.1248
   90SAPC  H18X 8654  -0.385   2.026   4.888 -0.5599 -1.2842 -0.8799
   90SAPC  H18Y 8655  -0.286   1.894   4.827  1.1255 -1.4535  1.2711
   90SAPC  H18Z 8656  -0.201   2.032   4.893  0.2655 -0.6368  0.8776
   91SAPC     N 8657   4.694   6.366   7.219 -0.2174 -0.1240 -0.2861
   91SAPC   C12 8658   4.678   6.355   7.069 -0.5015  0.6227 -0.1310
   91SAPC  H12A 8659   4.681   6.456   7.032 -2.3569  0.7215 -0.0710
   91SAPC  H12B 8660   4.583   6.312   7.043 -0.3271  1.3731 -2.2365
   91SAPC   C13 8661   4.559   6.404   7.273 -0.2096 -0.3433  1.0791
   91SAPC  H13A 8662   4.531   6.497   7.226  2.4402 -0.3046 -0.6248
   91SAPC  H13B 8663   4.490   6.324   7.250  0.4805 -1.0188  1.3244
   91SAPC  H13C 8664   4.561   6.415   7.380  0.3107  1.2066  0.9339
   91SAPC   C14 8665   4.734   6.238   7.280 -1.1164 -0.1223  0.0300
   91SAPC  H14A 8666   4.665   6.156   7.265 -0.6809 -0.3672 -0.6667
   91SAPC  H14B 8667   4.829   6.211   7.238 -1.0751  0.3385 -0.1854
   91SAPC  H14C 8668   4.759   6.261   7.382  2.0193 -0.4400 -0.5552
   91SAPC   C15 8669   4.795   6.467   7.265 -0.6091  0.3090  0.9505
   91SAPC  H15A 8670   4.802   6.472   7.373 -0.2692  2.3516  0.8765
   91SAPC  H15B 8671   4.895   6.454   7.225 -0.8199  0.9721  0.1804
   91SAPC  H15C 8672   4.768   6.569   7.244 -0.5112  0.3986  1.2558
   91SAPC   C11 8673   4.794   6.272   7.003  0.3603 -0.6488  0.0995
   91SAPC  H11A 8674   4.891   6.304   7.046  0.7908 -0.0610 -1.2522
   91SAPC  H11B 8675   4.811   6.307   6.899 -0.0184 -0.0541  0.2359
   91SAPC     P 8676   4.654   6.059   6.934  0.3296 -0.1429 -0.3809
   91SAPC   O13 8677   4.649   5.914   6.965  0.1104  0.1835 -0.2985
   91SAPC   O14 8678   4.524   6.129   6.954  0.0369  0.0632  0.3679
   91SAPC   O12 8679   4.778   6.129   7.009 -0.5098 -0.6968  0.3004
   91SAPC   O11 8680   4.684   6.075   6.787  0.1353  0.0007  0.9679
   91SAPC    C1 8681   4.807   6.024   6.735  0.3304 -0.0652 -0.8394
   91SAPC    HA 8682   4.892   6.092   6.757 -0.9881  0.7890  2.0792
   91SAPC    HB 8683   4.842   5.926   6.773 -0.9248 -0.7557 -1.3865
   91SAPC    C2 8684   4.792   6.012   6.581 -0.7598 -0.2945  0.3611
   91SAPC    HS 8685   4.895   5.989   6.546 -1.2092 -2.4013  0.3229
   91SAPC   O21 8686   4.736   6.131   6.516  0.2692  0.5183  0.1805
   91SAPC   C21 8687   4.826   6.220   6.476 -0.1241 -0.2078 -0.2731
   91SAPC   O22 8688   4.944   6.211   6.494  0.2990 -0.2292  0.0205
   91SAPC   C22 8689   4.755   6.339   6.408  0.0733  0.0602  0.2007
   91SAPC   H2R 8690   4.692   6.296   6.327 -0.5093 -0.1909  0.7781
   91SAPC   H2S 8691   4.673   6.371   6.476 -2.4034 -0.5171 -2.3152
   91SAPC    C3 8692   4.698   5.885   6.552 -0.0859  0.0419  0.2985
   91SAPC    HX 8693   4.595   5.917   6.576  0.4509  2.0109  0.0898
   91SAPC    HY 8694   4.719   5.807   6.628 -0.9715 -1.0713 -0.5552
   91SAPC   O31 8695   4.700   5.833   6.412 -0.0588  0.6716  0.5853
   91SAPC   C31 8696   4.751   5.711   6.387  0.0564 -0.4762 -0.0471
   91SAPC   O32 8697   4.792   5.640   6.479  0.0475  0.2489  0.5957
   91SAPC   C32 8698   4.756   5.680   6.240  0.1447 -0.5757 -0.5407
   91SAPC   H2X 8699   4.827   5.748   6.188  1.1785  0.0460  1.5786
   91SAPC   H2Y 8700   4.654   5.692   6.197 -0.4391  1.3880  1.2355
   91SAPC   C23 8701   4.848   6.456   6.346 -0.1823  0.8814  0.0235
   91SAPC   H3R 8702   4.909   6.496   6.429  1.1630  0.2109 -0.6162
   91SAPC   H3S 8703   4.773   6.533   6.319  1.9046  2.9456 -0.1821
   91SAPC   C24 8704   4.920   6.407   6.221  0.0108  0.2475 -0.0846
   91SAPC   H4R 8705   4.983   6.323   6.256 -1.3694  0.6555  3.9038
   91SAPC   H4S 8706   4.984   6.487   6.179  1.2172 -1.2261 -1.1961
   91SAPC   C25 8707   4.835   6.375   6.099 -0.1481 -0.3137  0.3419
   91SAPC   H5R 8708   4.731   6.411   6.101  0.1885  0.6938  0.6226
   91SAPC   C26 8709   4.877   6.300   5.990  0.1722  0.1411 -1.1494
   91SAPC   H6R 8710   4.803   6.271   5.914 -0.1026 -2.0385 -0.1406
   91SAPC   C27 8711   5.010   6.231   5.974 -0.0642 -0.5473 -0.2511
   91SAPC   H7R 8712   5.081   6.278   6.045 -0.9579  0.2972  0.1046
   91SAPC   H7S 8713   5.052   6.256   5.874  1.8358  1.0571  0.8904
   91SAPC   C28 8714   5.013   6.081   5.985 -0.2724  0.1073  0.3435
   91SAPC   H8R 8715   4.970   6.032   6.073 -0.3500 -0.3047  0.0836
   91SAPC   C29 8716   5.061   5.994   5.896 -0.0825 -0.1562  0.1838
   91SAPC   H9R 8717   5.047   5.888   5.921  0.7113 -1.0570 -2.6943
   91SAPC  C210 8718   5.139   6.021   5.770 -0.2423 -0.3615 -0.0067
   91SAPC  H10R 8719   5.192   5.928   5.739 -0.1107 -0.3800  0.2691
   91SAPC  H10S 8720   5.220   6.096   5.778 -1.0001  0.3643  1.3587
   91SAPC  C211 8721   5.046   6.054   5.667  0.2201  0.6012 -0.1541
   91SAPC  H11R 8722   4.985   6.145   5.679  1.0354  0.9988  1.1971
   91SAPC  C212 8723   5.029   5.995   5.555  0.3185  0.5160  0.3516
   91SAPC  H12R 8724   4.937   6.014   5.497 -0.1666  0.8273  1.2023
   91SAPC  C213 8725   5.110   5.877   5.502  0.0352 -0.4284 -0.1615
   91SAPC  H13R 8726   5.046   5.814   5.437 -0.2465  0.3195 -0.6126
   91SAPC  H13S 8727   5.155   5.819   5.586  2.0805  1.6256  0.2604
   91SAPC  C214 8728   5.220   5.925   5.416 -0.2307  0.2154  0.4837
   91SAPC  H14R 8729   5.316   5.924   5.469  0.2648  0.0087 -0.4026
   91SAPC  C215 8730   5.226   5.928   5.282 -0.6839 -0.2761 -0.6516
   91SAPC  H15R 8731   5.321   5.958   5.235 -0.5587  1.6728  0.7119
   91SAPC  C216 8732   5.113   5.901   5.189  0.8819  0.5996 -0.4418
   91SAPC  H16R 8733   5.010   5.927   5.224  0.4422 -1.2000 -0.3070
   91SAPC  H16S 8734   5.123   5.792   5.170 -2.4474  0.4584 -2.1499
   91SAPC  C217 8735   5.119   5.971   5.052 -0.6918 -0.1160  0.1960
   91SAPC  H17R 8736   5.227   5.966   5.026 -0.7787 -3.0188  0.1316
   91SAPC  H17S 8737   5.107   6.082   5.057 -0.3683 -0.1119  1.0189
   91SAPC  C218 8738   5.023   5.909   4.943  0.1942 -0.1199 -0.5774
   91SAPC  H18R 8739   5.026   5.800   4.925 -3.2308 -0.5155  0.3966
   91SAPC  H18S 8740   5.045   5.956   4.845 -0.4499 -2.6357 -2.0109
   91SAPC  C219 8741   4.880   5.937   4.983  0.2989 -0.5639 -0.3061
   91SAPC  H19R 8742   4.866   6.043   5.013 -0.6828 -1.0603  1.0552
   91SAPC  H19S 8743   4.857   5.869   5.068  3.9963  0.7119  1.9644
   91SAPC  C220 8744   4.783   5.909   4.867 -0.3552 -0.4238 -0.9317
   91SAPC  H20R 8745   4.681   5.945   4.892 -1.0772 -2.9832  0.1374
   91SAPC  H20S 8746   4.770   5.799   4.859 -2.0206 -0.1210 -3.8918
   91SAPC  H20T 8747   4.821   5.956   4.773  1.3412  1.5582  0.6533
   91SAPC   C33 8748   4.799   5.534   6.210  0.7111 -0.5567  0.0956
   91SAPC   H3X 8749   4.751   5.462   6.279 -1.4414  0.5788 -0.1351
   91SAPC   H3Y 8750   4.909   5.526   6.227  0.7270 -0.4151  0.0675
   91SAPC   C34 8751   4.776   5.489   6.063 -0.0897 -0.4934  0.5453
   91SAPC   H4X 8752   4.695   5.552   6.021  0.2472  0.4378  1.2431
   91SAPC   H4Y 8753   4.743   5.383   6.062  0.2180 -0.6318  2.5804
   91SAPC   C35 8754   4.897   5.502   5.979 -0.2350  0.3451 -0.3204
   91SAPC   H5X 8755   4.982   5.451   6.029 -1.3075  0.5662  1.8558
   91SAPC   H5Y 8756   4.919   5.611   5.969  1.7934  0.0283  0.2948
   91SAPC   C36 8757   4.874   5.461   5.829  0.5121 -0.3739  0.4128
   91SAPC   H6X 8758   4.847   5.354   5.831 -3.2977  0.4407  2.9286
   91SAPC   H6Y 8759   4.967   5.494   5.776  0.8763  0.9943  1.8107
   91SAPC   C37 8760   4.770   5.547   5.761  0.4108 -0.7409  0.0547
   91SAPC   H7X 8761   4.783   5.655   5.782 -1.6956 -0.6323  1.0357
   91SAPC   H7Y 8762   4.675   5.516   5.811 -0.6892  0.1545 -1.3782
   91SAPC   C38 8763   4.759   5.529   5.610 -0.2212 -0.0939  0.0244
   91SAPC   H8X 8764   4.672   5.462   5.594 -0.1498 -0.3628  0.7443
   91SAPC   H8Y 8765   4.846   5.482   5.559 -0.9131  1.1930 -2.5051
   91SAPC   C39 8766   4.761   5.667   5.539 -0.0599 -0.4895  0.2840
   91SAPC   H9X 8767   4.862   5.707   5.517 -1.4606  1.2605 -4.1978
   91SAPC   H9Y 8768   4.713   5.745   5.602  1.5295  3.3168 -2.8367
   91SAPC  C310 8769   4.685   5.660   5.406 -0.3504  0.0127 -0.1502
   91SAPC  H10X 8770   4.578   5.643   5.428 -1.1155 -0.1830 -3.4374
   91SAPC  H10Y 8771   4.725   5.574   5.347  0.6742 -0.0602  0.6220
   91SAPC  C311 8772   4.689   5.798   5.331  0.7313  0.0002 -0.4510
   91SAPC  H11X 8773   4.660   5.783   5.225 -1.0881 -0.5282  0.0818
   91SAPC  H11Y 8774   4.795   5.834   5.331  1.9139 -3.1640  0.2393
   91SAPC  C312 8775   4.625   5.914   5.404 -0.7614  0.3392 -0.2827
   91SAPC  H12X 8776   4.689   5.943   5.490  0.5236 -0.3745 -0.9709
   91SAPC  H12Y 8777   4.526   5.891   5.451 -0.0583  1.1820  1.7557
   91SAPC  C313 8778   4.611   6.030   5.313  0.1268 -0.8341  1.0608
   91SAPC  H13X 8779   4.552   5.998   5.225 -1.3311  0.0546  1.6720
   91SAPC  H13Y 8780   4.703   6.087   5.287  0.1520 -1.3828 -0.1165
   91SAPC  C314 8781   4.532   6.144   5.388 -0.7644 -0.3581 -0.8797
   91SAPC  H14X 8782   4.581   6.236   5.348 -1.5794  0.5369  0.1380
   91SAPC  H14Y 8783   4.557   6.149   5.496  0.9270 -0.7460 -1.2268
   91SAPC  C315 8784   4.378   6.141   5.357  0.2053 -1.5028 -0.0512
   91SAPC  H15X 8785   4.333   6.205   5.436  2.1436 -0.5557  0.3405
   91SAPC  H15Y 8786   4.336   6.039   5.369 -0.8280 -1.0239  0.5182
   91SAPC  C316 8787   4.339   6.195   5.215  0.0249  0.2330 -0.2926
   91SAPC  H16X 8788   4.367   6.116   5.141 -0.2941  0.1961 -0.3751
   91SAPC  H16Y 8789   4.395   6.290   5.203  2.5829 -0.7531  2.5167
   91SAPC  C317 8790   4.193   6.199   5.197  0.0423 -0.2115  0.1840
   91SAPC  H17X 8791   4.142   6.109   5.239 -1.9393 -0.1069 -1.8100
   91SAPC  H17Y 8792   4.173   6.205   5.088  0.3513  1.4212  0.1930
   91SAPC  C318 8793   4.138   6.320   5.262 -0.0591 -0.0389  0.1791
   91SAPC  H18X 8794   4.166   6.329   5.369 -0.0146  1.8157  0.0485
   91SAPC  H18Y 8795   4.030   6.337   5.243 -0.2999  0.8043  2.1070
   91SAPC  H18Z 8796   4.186   6.403   5.206  1.1824 -0.2888  0.8422
   92SAPC     N 8797   4.193   4.684   6.977  0.6196  0.7400  0.4797
   92SAPC   C12 8798   4.227   4.701   6.835 -0.2398  0.4528  0.3699
   92SAPC  H12A 8799   4.228   4.803   6.800  1.6376  0.4781  0.3963
   92SAPC  H12B 8800   4.147   4.654   6.778  0.3818 -0.6518  0.3780
   92SAPC   C13 8801   4.314   4.719   7.066 -0.9836 -0.5908 -0.0870
   92SAPC  H13A 8802   4.288   4.730   7.171 -0.4066 -1.5968  0.1814
   92SAPC  H13B 8803   4.387   4.642   7.043  0.9527  0.9172  0.6652
   92SAPC  H13C 8804   4.351   4.815   7.033  1.0688 -1.4739 -0.5528
   92SAPC   C14 8805   4.078   4.765   7.014 -0.6785 -0.5584  0.2124
   92SAPC  H14A 8806   4.001   4.754   6.940 -0.6200 -0.1780  0.0914
   92SAPC  H14B 8807   4.030   4.746   7.109 -0.0465 -0.7319  0.4997
   92SAPC  H14C 8808   4.096   4.872   7.016  2.5590 -1.0187  1.5877
   92SAPC   C15 8809   4.173   4.539   7.000 -0.0294  0.0347 -0.0814
   92SAPC  H15A 8810   4.157   4.519   7.105  1.8243 -0.5071  0.1295
   92SAPC  H15B 8811   4.094   4.492   6.943  2.0621 -3.2527 -0.5193
   92SAPC  H15C 8812   4.258   4.479   6.971  0.3967 -0.3832  1.9221
   92SAPC   C11 8813   4.357   4.625   6.777 -0.2468 -0.2303  0.1764
   92SAPC  H11A 8814   4.445   4.635   6.843  1.2338  0.1097 -1.7520
   92SAPC  H11B 8815   4.386   4.671   6.680 -0.8059 -1.4536 -0.5924
   92SAPC     P 8816   4.241   4.422   6.670  0.0416  0.3099 -0.4070
   92SAPC   O13 8817   4.208   4.289   6.725  0.4574 -0.2343  0.3978
   92SAPC   O14 8818   4.129   4.513   6.652  0.2744  0.5996  0.3250
   92SAPC   O12 8819   4.349   4.485   6.765  0.6691 -0.1660 -0.1449
   92SAPC   O11 8820   4.328   4.404   6.546  0.0110  0.2811  1.1015
   92SAPC    C1 8821   4.319   4.492   6.435 -0.3215 -0.2513 -0.2310
   92SAPC    HA 8822   4.278   4.590   6.467 -2.0564 -1.3965  1.1982
   92SAPC    HB 8823   4.423   4.503   6.398 -0.2460 -1.7594 -0.5250
   92SAPC    C2 8824   4.237   4.435   6.312 -0.3789  0.2269 -0.1565
   92SAPC    HS 8825   4.284   4.480   6.222 -0.7641 -1.4957 -1.2696
   92SAPC   O21 8826   4.098   4.464   6.320  0.1615  0.0901  0.2685
   92SAPC   C21 8827   4.056   4.588   6.301  0.0402  0.1328 -0.0385
   92SAPC   O22 8828   4.129   4.682   6.272  0.3283  0.1891 -0.9034
   92SAPC   C22 8829   3.905   4.590   6.313 -0.1899  0.8099  0.1394
   92SAPC   H2R 8830   3.865   4.491   6.344 -0.3320  1.4027  1.9531
   92SAPC   H2S 8831   3.871   4.666   6.386 -1.8344 -0.0998  0.3767
   92SAPC    C3 8832   4.259   4.279   6.284  0.8482  0.3869 -0.1239
   92SAPC    HX 8833   4.191   4.222   6.352 -0.8284  1.3940 -0.8958
   92SAPC    HY 8834   4.363   4.248   6.310  0.1776 -1.4330  0.6023
   92SAPC   O31 8835   4.237   4.250   6.145  0.8204  0.1362 -0.2788
   92SAPC   C31 8836   4.181   4.135   6.118  0.1032 -0.3125  0.0862
   92SAPC   O32 8837   4.170   4.041   6.194  0.4563 -0.9849  0.5895
   92SAPC   C32 8838   4.115   4.143   5.981 -0.7793  0.7391 -0.3820
   92SAPC   H2X 8839   4.172   4.204   5.908 -1.3878  1.8486  0.0481
   92SAPC   H2Y 8840   4.026   4.207   5.999 -1.4355 -0.2401 -0.0160
   92SAPC   C23 8841   3.846   4.613   6.172 -0.0187 -0.8106  0.2530
   92SAPC   H3R 8842   3.895   4.701   6.125 -0.1252 -0.8713  0.0279
   92SAPC   H3S 8843   3.738   4.637   6.182  0.1676 -0.2027  0.8596
   92SAPC   C24 8844   3.868   4.501   6.075  0.3232  0.5393  0.1463
   92SAPC   H4R 8845   3.833   4.408   6.126 -1.9610  0.9532 -0.5423
   92SAPC   H4S 8846   3.978   4.498   6.063  0.3623 -1.2494  0.6777
   92SAPC   C25 8847   3.806   4.506   5.933 -0.5560 -0.1828  0.5755
   92SAPC   H5R 8848   3.696   4.502   5.934 -0.5473 -0.3615  0.9398
   92SAPC   C26 8849   3.857   4.536   5.808  0.2248  0.0969  0.1425
   92SAPC   H6R 8850   3.781   4.534   5.728 -0.0905  0.1427  0.4380
   92SAPC   C27 8851   3.997   4.552   5.759 -0.0627  0.5123  0.0851
   92SAPC   H7R 8852   4.059   4.534   5.850  0.6998 -1.6988 -0.7855
   92SAPC   H7S 8853   4.023   4.657   5.735 -0.7649  0.8121  0.6089
   92SAPC   C28 8854   4.033   4.440   5.658  0.2541 -0.0304 -0.4229
   92SAPC   H8R 8855   4.021   4.336   5.689 -0.9582  0.7197  1.8299
   92SAPC   C29 8856   4.080   4.455   5.536 -0.0629  0.0701  0.2481
   92SAPC   H9R 8857   4.087   4.365   5.473 -2.1409  0.5679 -0.8081
   92SAPC  C210 8858   4.114   4.579   5.459 -0.0777 -0.4358  0.4734
   92SAPC  H10R 8859   4.198   4.560   5.389  0.6499  0.3580  1.0940
   92SAPC  H10S 8860   4.152   4.651   5.536 -1.0986 -1.0333  1.5609
   92SAPC  C211 8861   3.978   4.628   5.389 -0.4769  0.8186  0.6304
   92SAPC  H11R 8862   3.882   4.588   5.424 -0.1942 -2.4790 -1.8928
   92SAPC  C212 8863   3.979   4.690   5.271 -0.6329  0.0333 -1.1857
   92SAPC  H12R 8864   3.884   4.733   5.235 -1.6098  0.8230  2.0621
   92SAPC  C213 8865   4.108   4.742   5.207 -0.2602 -0.1549 -0.0104
   92SAPC  H13R 8866   4.177   4.658   5.187 -2.2970 -2.4514  1.8736
   92SAPC  H13S 8867   4.159   4.799   5.287 -1.1712 -1.1494  1.3218
   92SAPC  C214 8868   4.078   4.831   5.081  0.3246  0.6266 -0.4175
   92SAPC  H14R 8869   4.078   4.939   5.100 -0.3795  0.6420 -0.5005
   92SAPC  C215 8870   4.041   4.781   4.960 -0.3744  0.8789 -0.0528
   92SAPC  H15R 8871   4.014   4.846   4.876 -1.3145  1.5216  0.7240
   92SAPC  C216 8872   4.029   4.627   4.941 -0.5055 -0.3365 -0.1689
   92SAPC  H16R 8873   3.929   4.582   4.958 -0.4676 -0.7853 -1.0731
   92SAPC  H16S 8874   4.098   4.575   5.011 -1.4460  1.3714  2.1823
   92SAPC  C217 8875   4.078   4.602   4.799  0.0910 -0.4416 -0.0726
   92SAPC  H17R 8876   4.182   4.639   4.786 -0.8260  2.5458  0.2403
   92SAPC  H17S 8877   4.014   4.637   4.716 -1.3130  0.3228  1.2854
   92SAPC  C218 8878   4.085   4.449   4.769 -0.5152  0.5637  0.2441
   92SAPC  H18R 8879   3.980   4.414   4.762  0.1244 -2.0272  2.2032
   92SAPC  H18S 8880   4.129   4.407   4.862  0.2119 -3.9711 -1.8875
   92SAPC  C219 8881   4.172   4.413   4.651 -0.0108  0.5523 -0.4830
   92SAPC  H19R 8882   4.182   4.302   4.640  1.1778  0.6958 -1.0764
   92SAPC  H19S 8883   4.272   4.457   4.672 -1.7100  4.2799  0.4602
   92SAPC  C220 8884   4.126   4.463   4.512  0.5818 -0.6407  0.0787
   92SAPC  H20R 8885   4.194   4.438   4.428  0.1237  0.2572 -0.5844
   92SAPC  H20S 8886   4.122   4.574   4.512  1.5860 -0.5965  0.1858
   92SAPC  H20T 8887   4.028   4.419   4.481  0.0541  1.2337 -1.0994
   92SAPC   C33 8888   4.069   4.015   5.908 -0.8989  0.6397  0.0655
   92SAPC   H3X 8889   3.992   3.958   5.964 -2.3379  2.1130 -0.3316
   92SAPC   H3Y 8890   4.154   3.945   5.888 -0.7841  0.0820  2.1866
   92SAPC   C34 8891   4.005   4.052   5.770  0.5163  0.3748 -0.4119
   92SAPC   H4X 8892   4.082   4.101   5.706 -0.5861 -0.2123 -2.2583
   92SAPC   H4Y 8893   3.918   4.119   5.785 -0.2541 -0.6254 -0.2990
   92SAPC   C35 8894   3.947   3.933   5.693 -0.1198  0.3169 -0.3112
   92SAPC   H5X 8895   3.871   3.873   5.747  0.6396  1.0356  1.6614
   92SAPC   H5Y 8896   4.030   3.860   5.684  0.4067  0.6559  1.3657
   92SAPC   C36 8897   3.879   3.967   5.558 -0.3672  0.3389  0.1562
   92SAPC   H6X 8898   3.800   4.042   5.578 -0.3651  0.5446 -0.5897
   92SAPC   H6Y 8899   3.835   3.874   5.517  1.3938 -0.9739  1.1037
   92SAPC   C37 8900   3.970   4.043   5.450  0.0996  0.8427 -0.4319
   92SAPC   H7X 8901   4.056   3.973   5.437 -1.8137 -1.8184  0.4543
   92SAPC   H7Y 8902   4.005   4.146   5.476  0.5720  0.9003 -1.2426
   92SAPC   C38 8903   3.896   4.055   5.309  0.0312  0.1561 -0.0321
   92SAPC   H8X 8904   3.837   4.149   5.313 -2.1744 -1.1571  0.3424
   92SAPC   H8Y 8905   3.830   3.966   5.320 -0.5045  0.3914 -1.1461
   92SAPC   C39 8906   3.981   4.043   5.184  0.3930 -0.6137  0.8563
   92SAPC   H9X 8907   4.065   3.973   5.203  0.4916 -1.7496 -2.9506
   92SAPC   H9Y 8908   4.026   4.140   5.154 -2.6119  1.1073  1.4760
   92SAPC  C310 8909   3.895   3.995   5.058  0.1999 -0.0116  0.2615
   92SAPC  H10X 8910   3.794   4.041   5.046  0.8158  2.1849  2.5288
   92SAPC  H10Y 8911   3.881   3.888   5.082 -1.8504  0.1837  0.1456
   92SAPC  C311 8912   3.978   4.004   4.928 -0.3111  0.5573  0.1923
   92SAPC  H11X 8913   4.070   3.949   4.953  0.3666  0.6679 -1.8881
   92SAPC  H11Y 8914   4.016   4.103   4.893 -0.8517  0.0915 -1.8424
   92SAPC  C312 8915   3.912   3.946   4.805 -0.6046  0.1231  0.2867
   92SAPC  H12X 8916   3.887   3.844   4.841 -0.2857  0.7995  2.6291
   92SAPC  H12Y 8917   3.992   3.938   4.729 -0.5647 -0.7556  0.4074
   92SAPC  C313 8918   3.787   4.014   4.751  0.3991 -0.2636 -0.1857
   92SAPC  H13X 8919   3.826   4.117   4.734 -0.9339  0.1645 -0.7500
   92SAPC  H13Y 8920   3.710   4.010   4.831 -0.7783 -0.6367 -1.3201
   92SAPC  C314 8921   3.728   3.947   4.622  0.0760  0.2041  0.0479
   92SAPC  H14X 8922   3.624   3.981   4.602 -0.4128 -2.2636 -1.9894
   92SAPC  H14Y 8923   3.717   3.839   4.643  0.0552 -0.3001 -2.3050
   92SAPC  C315 8924   3.811   3.977   4.497 -0.0329  0.0649  0.2979
   92SAPC  H15X 8925   3.913   3.934   4.505  0.5042  0.5982 -2.7138
   92SAPC  H15Y 8926   3.814   4.088   4.490 -2.0472  0.2530  1.3407
   92SAPC  C316 8927   3.745   3.918   4.371  0.0736 -0.6047  0.1853
   92SAPC  H16X 8928   3.641   3.953   4.356  0.4339  0.8523  0.8809
   92SAPC  H16Y 8929   3.737   3.808   4.388 -1.4829 -0.9533 -2.3513
   92SAPC  C317 8930   3.810   3.950   4.241 -0.4650 -0.6199 -0.2024
   92SAPC  H17X 8931   3.914   3.912   4.233  0.1158  0.7520  0.3742
   92SAPC  H17Y 8932   3.804   4.061   4.230 -1.4820 -0.6168  0.2044
   92SAPC  C318 8933   3.733   3.879   4.126 -0.9817  0.1890 -0.4447
   92SAPC  H18X 8934   3.765   3.929   4.033  4.3184  0.8544  1.4203
   92SAPC  H18Y 8935   3.623   3.894   4.139 -0.8195  0.6737  0.5000
   92SAPC  H18Z 8936   3.756   3.773   4.106 -0.0166  0.1571  0.7333
   93SAPC     N 8937   0.149   6.528   7.277  0.0290  0.5639  0.0260
   93SAPC   C12 8938   0.043   6.583   7.187 -0.7181  0.0351 -0.8412
   93SAPC  H12A 8939  -0.031   6.644   7.238 -1.7608  0.1245 -2.3757
   93SAPC  H12B 8940  -0.015   6.507   7.137  1.4863 -1.5669 -1.1115
   93SAPC   C13 8941   0.251   6.454   7.202  0.2385  0.2893 -0.2927
   93SAPC  H13A 8942   0.224   6.356   7.164 -0.9191  0.5745 -0.2413
   93SAPC  H13B 8943   0.280   6.516   7.118  0.4848  1.1811  0.4420
   93SAPC  H13C 8944   0.336   6.423   7.261 -0.4251 -1.6071 -0.2606
   93SAPC   C14 8945   0.220   6.647   7.342 -0.0866  0.4027 -0.3185
   93SAPC  H14A 8946   0.273   6.707   7.270 -0.1533  0.2515 -0.4939
   93SAPC  H14B 8947   0.152   6.723   7.377  1.0619  1.5289 -0.4854
   93SAPC  H14C 8948   0.277   6.613   7.427 -2.4228 -1.5360  0.6079
   93SAPC   C15 8949   0.086   6.441   7.383  0.8898 -0.7970 -0.1997
   93SAPC  H15A 8950   0.017   6.366   7.345  1.5911 -1.5286 -0.0543
   93SAPC  H15B 8951   0.158   6.380   7.434  0.3743 -0.7792  0.5779
   93SAPC  H15C 8952   0.041   6.496   7.465  1.7006 -4.2203  2.7894
   93SAPC   C11 8953   0.095   6.658   7.062  0.4916  0.0184  1.2088
   93SAPC  H11A 8954   0.016   6.664   6.984  1.0722 -0.9852  0.5057
   93SAPC  H11B 8955   0.163   6.588   7.008 -1.1079  0.2062 -1.2344
   93SAPC     P 8956   0.242   6.866   6.989 -0.3669  0.1379 -0.1911
   93SAPC   O13 8957   0.233   7.015   7.017  0.0036  0.4196 -0.0443
   93SAPC   O14 8958   0.382   6.812   6.991 -0.1080 -0.6447 -0.1155
   93SAPC   O12 8959   0.151   6.793   7.091  0.2379  0.1100 -0.6950
   93SAPC   O11 8960   0.183   6.832   6.850 -0.3042  0.2019 -0.2768
   93SAPC    C1 8961   0.055   6.861   6.794 -0.3227 -0.7796 -0.1566
   93SAPC    HA 8962  -0.008   6.770   6.780 -0.7093 -0.3979 -0.9447
   93SAPC    HB 8963   0.002   6.943   6.848 -0.7543 -0.3924 -1.1417
   93SAPC    C2 8964   0.072   6.922   6.654 -0.4642 -0.7796 -0.2811
   93SAPC    HS 8965   0.096   6.837   6.587 -1.5677 -0.8558 -0.6026
   93SAPC   O21 8966   0.176   7.028   6.650  0.1509  0.2476  0.1299
   93SAPC   C21 8967   0.289   6.981   6.605 -0.9037 -0.2059 -0.1586
   93SAPC   O22 8968   0.316   6.866   6.565 -0.1033 -0.5588  0.3137
   93SAPC   C22 8969   0.404   7.088   6.627  0.2961  0.0125  0.4156
   93SAPC   H2R 8970   0.357   7.175   6.678  3.4772  1.2051  1.5684
   93SAPC   H2S 8971   0.467   7.043   6.706 -2.0185  0.1807  2.4585
   93SAPC    C3 8972  -0.055   6.985   6.589  0.6974 -0.5226 -0.5465
   93SAPC    HX 8973  -0.070   7.078   6.648 -0.1613 -2.5252  2.6359
   93SAPC    HY 8974  -0.142   6.917   6.601  0.6072 -0.3838 -0.4146
   93SAPC   O31 8975  -0.034   7.009   6.450  0.4566  0.0541  0.2143
   93SAPC   C31 8976  -0.133   7.042   6.380 -0.3341  0.4855 -0.1369
   93SAPC   O32 8977  -0.248   7.049   6.416  0.5012 -0.2873  0.0076
   93SAPC   C32 8978  -0.082   7.067   6.234 -0.0731 -0.2329  0.8287
   93SAPC   H2X 8979  -0.005   6.992   6.208 -1.2054 -1.7466  1.6980
   93SAPC   H2Y 8980  -0.033   7.166   6.219  0.4086 -0.5430  0.3690
   93SAPC   C23 8981   0.482   7.121   6.493 -0.6829  0.3704  0.2358
   93SAPC   H3R 8982   0.486   7.032   6.426 -2.2083  1.3125 -1.1790
   93SAPC   H3S 8983   0.587   7.143   6.522 -0.1474  1.7491 -2.4444
   93SAPC   C24 8984   0.436   7.233   6.404 -0.4561  0.2376  0.1419
   93SAPC   H4R 8985   0.506   7.282   6.333  0.4356  0.9127  1.4470
   93SAPC   H4S 8986   0.415   7.314   6.477 -2.8070 -0.1348 -0.0430
   93SAPC   C25 8987   0.312   7.193   6.334 -0.2483  0.0419  0.4876
   93SAPC   H5R 8988   0.229   7.173   6.404 -1.2391 -3.0315 -1.3848
   93SAPC   C26 8989   0.289   7.172   6.204 -0.3288 -0.3303  0.4227
   93SAPC   H6R 8990   0.188   7.155   6.162 -0.9477 -0.5604  1.9557
   93SAPC   C27 8991   0.397   7.199   6.097  0.0025  0.1039 -0.5319
   93SAPC   H7R 8992   0.419   7.104   6.044  0.4778  0.0635 -0.2609
   93SAPC   H7S 8993   0.493   7.239   6.135  1.0922 -2.3410 -0.5817
   93SAPC   C28 8994   0.343   7.304   6.003  0.5092 -0.2003 -0.1996
   93SAPC   H8R 8995   0.335   7.403   6.050 -1.2225 -1.0005  1.2992
   93SAPC   C29 8996   0.315   7.299   5.871  1.0751 -0.2585  0.4510
   93SAPC   H9R 8997   0.276   7.393   5.829 -3.9098 -0.9981  2.7502
   93SAPC  C210 8998   0.305   7.181   5.777  0.1105 -0.8371  0.6844
   93SAPC  H10R 8999   0.331   7.084   5.824 -0.4599 -0.8452  0.9940
   93SAPC  H10S 9000   0.387   7.192   5.703 -0.5681 -0.1268  0.0173
   93SAPC  C211 9001   0.170   7.168   5.720  0.1549 -0.0129 -0.0407
   93SAPC  H11R 9002   0.100   7.129   5.796  0.7217  0.2541  0.6295
   93SAPC  C212 9003   0.136   7.198   5.596 -0.2190  0.5930 -0.1864
   93SAPC  H12R 9004   0.030   7.186   5.570  0.0374 -0.4071 -0.8191
   93SAPC  C213 9005   0.207   7.251   5.477 -0.6010  0.1889  0.2223
   93SAPC  H13R 9006   0.250   7.349   5.509  0.3776 -0.7527  1.9433
   93SAPC  H13S 9007   0.140   7.285   5.396  2.2058  2.2018 -1.4411
   93SAPC  C214 9008   0.309   7.151   5.414  0.4142  0.2113  0.2095
   93SAPC  H14R 9009   0.341   7.067   5.479  2.4242  1.0663  0.3912
   93SAPC  C215 9010   0.363   7.161   5.295  0.8154 -0.2301 -0.2493
   93SAPC  H15R 9011   0.432   7.083   5.257  1.6722 -1.1550  2.9231
   93SAPC  C216 9012   0.314   7.272   5.193  0.5835  0.4174 -0.4716
   93SAPC  H16R 9013   0.387   7.355   5.184  0.6183  0.4052 -0.3074
   93SAPC  H16S 9014   0.220   7.321   5.225 -0.5075 -0.6711 -1.9163
   93SAPC  C217 9015   0.273   7.219   5.057  0.3835  0.1477 -0.2670
   93SAPC  H17R 9016   0.365   7.182   5.006  1.1873  0.7818  0.6799
   93SAPC  H17S 9017   0.234   7.306   4.999  1.4675 -0.5908 -2.2176
   93SAPC  C218 9018   0.158   7.113   5.056 -0.6655 -0.4458 -0.0532
   93SAPC  H18R 9019   0.097   7.152   5.141  1.9960  0.9148  1.3819
   93SAPC  H18S 9020   0.209   7.019   5.086  0.4038  0.6576  1.7939
   93SAPC  C219 9021   0.084   7.104   4.926  0.3002 -0.6655  0.1720
   93SAPC  H19R 9022   0.161   7.098   4.846 -0.2472  0.7124 -0.4888
   93SAPC  H19S 9023   0.033   7.202   4.918 -0.9333 -1.2771  0.3900
   93SAPC  C220 9024  -0.023   7.001   4.910  0.3972  0.6125 -0.1698
   93SAPC  H20R 9025  -0.086   6.977   4.998 -1.1804  1.1856 -1.0915
   93SAPC  H20S 9026   0.015   6.900   4.886 -2.3324 -0.6990  0.6664
   93SAPC  H20T 9027  -0.095   7.033   4.831  0.2643 -1.2997 -0.8587
   93SAPC   C33 9028  -0.197   7.046   6.134  0.6033 -0.0384  0.1518
   93SAPC   H3X 9029  -0.271   7.125   6.160  1.9054  1.3119 -0.1575
   93SAPC   H3Y 9030  -0.243   6.945   6.136  0.8010 -0.1793 -1.4648
   93SAPC   C34 9031  -0.155   7.079   5.990  0.6071  0.4221 -0.6741
   93SAPC   H4X 9032  -0.150   6.974   5.954 -3.0207  0.2429 -0.9669
   93SAPC   H4Y 9033  -0.060   7.137   5.988  0.7266  0.2112 -1.8312
   93SAPC   C35 9034  -0.251   7.154   5.905  0.3425  0.1885 -0.5406
   93SAPC   H5X 9035  -0.262   7.262   5.932  1.1149  0.1762 -0.1644
   93SAPC   H5Y 9036  -0.350   7.104   5.906  0.7896 -0.8493 -2.5140
   93SAPC   C36 9037  -0.201   7.148   5.761 -0.1232 -0.1142 -0.5004
   93SAPC   H6X 9038  -0.156   7.049   5.741  1.6201  0.2487  1.2937
   93SAPC   H6Y 9039  -0.124   7.228   5.748  0.4791 -0.6032 -0.0311
   93SAPC   C37 9040  -0.317   7.164   5.668 -0.6996  0.2223  0.1214
   93SAPC   H7X 9041  -0.378   7.252   5.698  0.4801  0.9165  0.5374
   93SAPC   H7Y 9042  -0.380   7.073   5.680 -0.1267 -0.3292 -0.9718
   93SAPC   C38 9043  -0.269   7.168   5.521 -0.5008  0.7827  0.7588
   93SAPC   H8X 9044  -0.206   7.078   5.506 -1.3963 -0.0704  1.8615
   93SAPC   H8Y 9045  -0.186   7.241   5.522  1.0073 -0.8722  0.8408
   93SAPC   C39 9046  -0.381   7.194   5.422 -0.1584  0.4107  0.3360
   93SAPC   H9X 9047  -0.452   7.267   5.468  0.5225  0.4524  1.3607
   93SAPC   H9Y 9048  -0.443   7.102   5.420  0.4502 -0.0010  0.3987
   93SAPC  C310 9049  -0.333   7.254   5.299 -0.6486  0.4078  0.6781
   93SAPC  H10X 9050  -0.267   7.187   5.241 -1.4447  0.0631  0.1499
   93SAPC  H10Y 9051  -0.274   7.347   5.316  2.6163 -1.8773  2.9118
   93SAPC  C311 9052  -0.459   7.292   5.206 -0.2162 -0.0022  0.9741
   93SAPC  H11X 9053  -0.525   7.361   5.263 -0.4229 -0.5480  1.4042
   93SAPC  H11Y 9054  -0.514   7.203   5.169 -0.2262  0.9541 -1.4792
   93SAPC  C312 9055  -0.420   7.378   5.084 -0.2265  0.5980  0.2233
   93SAPC  H12X 9056  -0.332   7.436   5.118  1.1066 -0.8422 -0.6301
   93SAPC  H12Y 9057  -0.507   7.444   5.064 -1.7513 -0.4873  2.7148
   93SAPC  C313 9058  -0.377   7.297   4.962 -0.0793  0.0326 -0.3361
   93SAPC  H13X 9059  -0.293   7.230   4.992  0.0252 -0.1676 -1.0604
   93SAPC  H13Y 9060  -0.332   7.371   4.892 -1.8590  1.4811 -0.0525
   93SAPC  C314 9061  -0.487   7.217   4.891  0.7577  0.4009  0.4793
   93SAPC  H14X 9062  -0.583   7.273   4.899  1.2222  1.0911  1.3764
   93SAPC  H14Y 9063  -0.518   7.121   4.937 -0.1936 -0.2324 -1.3561
   93SAPC  C315 9064  -0.454   7.202   4.740  0.9467  0.5112 -0.1389
   93SAPC  H15X 9065  -0.349   7.169   4.731  1.2865  0.2039  3.6166
   93SAPC  H15Y 9066  -0.475   7.302   4.695 -1.7560 -0.6685 -1.7241
   93SAPC  C316 9067  -0.551   7.113   4.663  0.5950 -0.6375  0.5452
   93SAPC  H16X 9068  -0.655   7.146   4.687  0.0181 -0.3211 -2.0863
   93SAPC  H16Y 9069  -0.537   7.009   4.701  5.7224  0.0451  1.2091
   93SAPC  C317 9070  -0.549   7.138   4.514 -0.2189  0.5612  0.2068
   93SAPC  H17X 9071  -0.452   7.109   4.468  0.2709  2.1745  0.1679
   93SAPC  H17Y 9072  -0.550   7.248   4.507  0.6209  0.6870  1.6581
   93SAPC  C318 9073  -0.664   7.077   4.437 -0.2526 -0.2652  0.0859
   93SAPC  H18X 9074  -0.648   7.085   4.328  2.2950 -0.8967  0.3532
   93SAPC  H18Y 9075  -0.760   7.130   4.451 -1.0259 -1.2991 -1.1269
   93SAPC  H18Z 9076  -0.683   6.970   4.460  0.1015 -0.1629  0.8890
   94SAPC     N 9077   5.760   4.625   7.096 -0.4861  0.5275 -0.3311
   94SAPC   C12 9078   5.684   4.757   7.105 -0.2376 -0.3274  0.4505
   94SAPC  H12A 9079   5.744   4.832   7.154 -0.0540  0.6343 -1.1761
   94SAPC  H12B 9080   5.590   4.738   7.155 -1.2819  1.0854 -0.8705
   94SAPC   C13 9081   5.797   4.577   7.239  0.5115  0.6463 -0.0457
   94SAPC  H13A 9082   5.713   4.567   7.306  0.7054 -0.1977  0.0848
   94SAPC  H13B 9083   5.851   4.483   7.240 -0.8168 -0.1411  0.1295
   94SAPC  H13C 9084   5.861   4.650   7.286  1.9924 -0.1109 -0.8168
   94SAPC   C14 9085   5.675   4.527   7.025 -0.3595  0.6602  0.3640
   94SAPC  H14A 9086   5.582   4.500   7.073 -1.5956  0.7677 -1.8254
   94SAPC  H14B 9087   5.649   4.561   6.925 -1.4975 -0.4726  0.2534
   94SAPC  H14C 9088   5.737   4.441   7.004 -2.8168 -0.7546 -1.6900
   94SAPC   C15 9089   5.893   4.641   7.013 -0.0532 -0.0370  0.5226
   94SAPC  H15A 9090   5.937   4.543   7.009 -2.4578 -1.1618 -0.5789
   94SAPC  H15B 9091   5.877   4.678   6.913  0.6784  0.7301  0.6806
   94SAPC  H15C 9092   5.968   4.704   7.058  1.8358 -1.4065 -0.5888
   94SAPC   C11 9093   5.634   4.829   6.978 -0.8498 -0.3727  0.5645
   94SAPC  H11A 9094   5.574   4.915   7.016  0.3421 -0.5488  3.0306
   94SAPC  H11B 9095   5.575   4.760   6.915  1.0129 -1.2570 -0.2725
   94SAPC     P 9096   5.801   5.028   6.895  0.2131 -0.6283 -0.1033
   94SAPC   O13 9097   5.813   5.083   7.035  0.2373  0.3743  0.1311
   94SAPC   O14 9098   5.921   5.026   6.811 -0.1161  0.0288 -0.3131
   94SAPC   O12 9099   5.746   4.879   6.901 -0.6663  0.3834  0.1437
   94SAPC   O11 9100   5.687   5.112   6.818  0.0739  0.3281  0.2188
   94SAPC    C1 9101   5.594   5.047   6.722  0.3531  0.4601 -1.0191
   94SAPC    HA 9102   5.527   4.973   6.770  1.0070 -0.9604 -2.2322
   94SAPC    HB 9103   5.529   5.126   6.679 -0.8043  0.9492  1.4122
   94SAPC    C2 9104   5.663   4.972   6.608  0.0389  0.6014  0.7803
   94SAPC    HS 9105   5.718   4.885   6.649 -0.5691 -0.8966 -1.4478
   94SAPC   O21 9106   5.740   5.074   6.542  0.4451 -0.0133 -0.1934
   94SAPC   C21 9107   5.843   5.027   6.480  0.2760 -0.5429 -0.1193
   94SAPC   O22 9108   5.889   4.914   6.487 -0.0887  0.0664  0.2048
   94SAPC   C22 9109   5.896   5.141   6.396 -0.5803  1.1140  0.1761
   94SAPC   H2R 9110   5.810   5.185   6.341 -1.2055  0.5844  0.7204
   94SAPC   H2S 9111   5.937   5.222   6.460 -2.6188  0.3757  2.5894
   94SAPC    C3 9112   5.552   4.918   6.512 -0.2170 -0.5593 -0.0664
   94SAPC    HX 9113   5.497   5.008   6.475 -2.8093 -1.2515  1.8258
   94SAPC    HY 9114   5.482   4.852   6.568 -0.0405 -3.0797 -2.5753
   94SAPC   O31 9115   5.607   4.849   6.401 -0.5618  0.8316 -0.3080
   94SAPC   C31 9116   5.628   4.723   6.434 -0.0228 -0.3735  0.4825
   94SAPC   O32 9117   5.604   4.671   6.543 -0.2411  0.0500 -0.0823
   94SAPC   C32 9118   5.683   4.643   6.322  0.0213 -0.5282 -0.7652
   94SAPC   H2X 9119   5.598   4.578   6.291 -0.7765 -0.3462  0.9295
   94SAPC   H2Y 9120   5.766   4.586   6.368 -0.4460 -0.7387 -0.1765
   94SAPC   C23 9121   6.008   5.091   6.295  0.3555  0.1897  0.0689
   94SAPC   H3R 9122   5.975   5.003   6.236  2.7982 -1.3030  0.7826
   94SAPC   H3S 9123   6.099   5.069   6.356 -0.4474 -1.2219  0.8170
   94SAPC   C24 9124   6.036   5.198   6.190  0.1050 -0.8755  0.7046
   94SAPC   H4R 9125   5.954   5.193   6.115 -0.1327 -1.5276  1.0078
   94SAPC   H4S 9126   6.126   5.167   6.133  0.7866  2.4911 -0.3199
   94SAPC   C25 9127   6.036   5.346   6.224  0.3955  0.9306  0.1712
   94SAPC   H5R 9128   6.110   5.361   6.304 -0.6181  0.3316  1.2435
   94SAPC   C26 9129   5.944   5.444   6.209 -0.2557 -0.0391 -0.2177
   94SAPC   H6R 9130   5.973   5.541   6.255  0.2690  0.3291 -1.2889
   94SAPC   C27 9131   5.823   5.443   6.117  0.2258 -0.5746 -0.4623
   94SAPC   H7R 9132   5.781   5.340   6.124 -2.1019  0.2224 -1.7221
   94SAPC   H7S 9133   5.858   5.464   6.014  4.2688  0.0532  0.8501
   94SAPC   C28 9134   5.726   5.546   6.173 -0.3985 -0.0847 -0.5116
   94SAPC   H8R 9135   5.661   5.509   6.254  1.8894 -0.9396  1.0359
   94SAPC   C29 9136   5.693   5.657   6.114  0.0908  0.1148 -0.5387
   94SAPC   H9R 9137   5.618   5.720   6.164 -0.5924 -1.9865  1.2637
   94SAPC  C210 9138   5.768   5.717   5.998 -0.5062 -0.1161  0.1325
   94SAPC  H10R 9139   5.873   5.681   5.986  0.4215  3.0829 -3.0476
   94SAPC  H10S 9140   5.773   5.826   6.017 -0.5829 -0.1404  0.2931
   94SAPC  C211 9141   5.711   5.709   5.858  0.1460  0.2058 -0.5755
   94SAPC  H11R 9142   5.601   5.705   5.856  0.1172  0.9430 -0.6544
   94SAPC  C212 9143   5.775   5.693   5.745 -0.0641 -0.4951 -0.3582
   94SAPC  H12R 9144   5.712   5.696   5.655 -1.3190  0.7104  0.5265
   94SAPC  C213 9145   5.918   5.685   5.727 -0.1164  0.0104 -0.2901
   94SAPC  H13R 9146   5.938   5.599   5.661  0.4119 -0.1937  0.1282
   94SAPC  H13S 9147   5.973   5.652   5.818  0.7911 -0.4808 -1.0046
   94SAPC  C214 9148   5.993   5.805   5.674  0.5579  0.5530  0.4354
   94SAPC  H14R 9149   6.035   5.881   5.742  0.7721  2.1522 -1.4006
   94SAPC  C215 9150   6.034   5.820   5.549  0.6363  0.4850  0.6069
   94SAPC  H15R 9151   6.076   5.915   5.515 -1.7129  0.9732 -1.1912
   94SAPC  C216 9152   5.999   5.722   5.435  0.0729  0.2106  0.5189
   94SAPC  H16R 9153   5.952   5.628   5.473  1.0493 -0.0329  1.1813
   94SAPC  H16S 9154   6.096   5.698   5.386 -0.5373 -1.3395  0.0124
   94SAPC  C217 9155   5.905   5.787   5.334  0.4614  0.8988  0.4741
   94SAPC  H17R 9156   5.825   5.838   5.391  1.2098  1.6770  0.8389
   94SAPC  H17S 9157   5.860   5.703   5.277  0.5839  0.2916  1.2570
   94SAPC  C218 9158   5.961   5.890   5.240 -0.1109 -0.1740  0.6362
   94SAPC  H18R 9159   5.983   5.982   5.299 -1.5080  0.9686 -0.5674
   94SAPC  H18S 9160   5.879   5.911   5.168  1.4044  0.0914 -1.0981
   94SAPC  C219 9161   6.082   5.845   5.163  0.0155  0.5719  0.6585
   94SAPC  H19R 9162   6.057   5.750   5.110  1.5238 -0.5419  1.8345
   94SAPC  H19S 9163   6.171   5.837   5.228  1.8236  0.2779 -1.6906
   94SAPC  C220 9164   6.124   5.944   5.048 -0.2048 -0.0036  0.0713
   94SAPC  H20R 9165   6.188   6.019   5.098  0.5365  0.1949 -1.1239
   94SAPC  H20S 9166   6.032   5.992   5.010  1.1721  0.9617 -2.2666
   94SAPC  H20T 9167   6.174   5.881   4.971  0.5621 -0.3169  0.8127
   94SAPC   C33 9168   5.737   4.717   6.201 -0.3457  0.6564 -0.6071
   94SAPC   H3X 9169   5.808   4.792   6.242 -1.0019  0.6928  0.5135
   94SAPC   H3Y 9170   5.661   4.779   6.148 -1.8239  1.1693  1.9558
   94SAPC   C34 9171   5.818   4.646   6.091  0.5242  0.1557 -0.0506
   94SAPC   H4X 9172   5.758   4.554   6.073  0.3614  0.6404 -2.2117
   94SAPC   H4Y 9173   5.913   4.601   6.127  0.4031 -1.4260 -1.6019
   94SAPC   C35 9174   5.832   4.731   5.967  0.0780 -0.1119  0.3523
   94SAPC   H5X 9175   5.885   4.823   5.998 -2.7098  2.6481 -2.4188
   94SAPC   H5Y 9176   5.737   4.774   5.931  1.2699  0.6063 -2.1759
   94SAPC   C36 9177   5.896   4.657   5.850  0.3419  0.4322  1.0500
   94SAPC   H6X 9178   5.831   4.579   5.807  0.6710  0.7858 -0.1153
   94SAPC   H6Y 9179   5.988   4.597   5.869  0.7999  0.1844 -1.5697
   94SAPC   C37 9180   5.939   4.759   5.742  0.3512 -0.6524  0.2778
   94SAPC   H7X 9181   6.029   4.814   5.778 -1.2692  1.9174  0.5858
   94SAPC   H7Y 9182   5.859   4.828   5.708  2.2063  1.2434 -0.5249
   94SAPC   C38 9183   5.971   4.688   5.608  0.3176 -0.2239 -0.1058
   94SAPC   H8X 9184   5.885   4.623   5.579  0.0693  0.0068  0.1082
   94SAPC   H8Y 9185   6.055   4.616   5.617 -0.5306 -1.0844  1.3927
   94SAPC   C39 9186   6.004   4.779   5.491 -0.7061 -0.2601 -0.1755
   94SAPC   H9X 9187   6.109   4.811   5.503 -1.2827  1.1596  1.5352
   94SAPC   H9Y 9188   5.944   4.873   5.498  0.3335  0.3483  0.8575
   94SAPC  C310 9189   5.996   4.722   5.360 -0.2252  0.3256  0.3461
   94SAPC  H10X 9190   5.886   4.707   5.346 -0.3792 -1.2875  2.7886
   94SAPC  H10Y 9191   6.040   4.620   5.353 -0.4019  0.3061 -0.7812
   94SAPC  C311 9192   6.047   4.815   5.251  0.2811  0.4670 -0.1803
   94SAPC  H11X 9193   6.143   4.864   5.280 -1.0258  2.0466  1.7301
   94SAPC  H11Y 9194   5.980   4.903   5.239 -2.2708 -0.7621  3.4207
   94SAPC  C312 9195   6.060   4.752   5.114 -0.3486  0.0544 -0.2983
   94SAPC  H12X 9196   5.964   4.759   5.057 -0.8280  2.7475  0.6664
   94SAPC  H12Y 9197   6.080   4.644   5.125  0.2200  0.3240  1.7047
   94SAPC  C313 9198   6.165   4.811   5.024  0.3849 -0.2781 -0.5668
   94SAPC  H13X 9199   6.267   4.796   5.067 -0.5398 -0.1149  1.8230
   94SAPC  H13Y 9200   6.151   4.921   5.018 -0.7694 -0.4890 -2.6553
   94SAPC  C314 9201   6.173   4.760   4.875 -0.1313  0.6652  0.0573
   94SAPC  H14X 9202   6.083   4.787   4.817  1.6351 -0.4532 -3.5099
   94SAPC  H14Y 9203   6.170   4.650   4.892  0.7163  0.5278 -0.5804
   94SAPC  C315 9204   6.304   4.793   4.807  0.2977  0.6601  0.0204
   94SAPC  H15X 9205   6.389   4.777   4.877  0.0566  3.3490  1.0225
   94SAPC  H15Y 9206   6.292   4.899   4.778  0.0815  0.5492 -0.3012
   94SAPC  C316 9207   6.320   4.708   4.673  0.1242  0.1526 -0.4680
   94SAPC  H16X 9208   6.311   4.602   4.703  1.5395 -0.4541 -1.9813
   94SAPC  H16Y 9209   6.419   4.736   4.631 -0.0336  0.7437 -0.4509
   94SAPC  C317 9210   6.211   4.722   4.568 -0.5274 -0.0903 -0.4318
   94SAPC  H17X 9211   6.213   4.827   4.531  2.3812  0.2756  0.4444
   94SAPC  H17Y 9212   6.113   4.709   4.618 -0.9036  0.5540 -0.9987
   94SAPC  C318 9213   6.223   4.626   4.457  0.3305  0.1772  0.5712
   94SAPC  H18X 9214   6.323   4.626   4.409  0.2326  1.9171  0.3050
   94SAPC  H18Y 9215   6.147   4.655   4.381  0.2059 -1.1029  0.1877
   94SAPC  H18Z 9216   6.211   4.522   4.492 -0.0721 -0.3407 -1.0058
   95SAPC     N 9217   0.566   5.349   2.445  0.2559  0.1305  0.8013
   95SAPC   C12 9218   0.624   5.437   2.555 -0.0352  0.4976  0.8462
   95SAPC  H12A 9219   0.542   5.461   2.621 -0.3385  0.6453  0.4176
   95SAPC  H12B 9220   0.646   5.530   2.505 -2.5779 -0.6803 -2.9170
   95SAPC   C13 9221   0.449   5.422   2.387  0.3863  0.4486 -0.4596
   95SAPC  H13A 9222   0.380   5.461   2.460  0.2324  0.3445 -0.5501
   95SAPC  H13B 9223   0.482   5.508   2.331 -0.1652  1.0740  0.1611
   95SAPC  H13C 9224   0.396   5.364   2.313  1.3663 -0.4917 -0.4413
   95SAPC   C14 9225   0.668   5.321   2.336  0.4243 -0.4687 -1.0770
   95SAPC  H14A 9226   0.754   5.291   2.396  0.9016  1.8756 -0.5001
   95SAPC  H14B 9227   0.639   5.251   2.259  2.0209 -2.3752 -0.0542
   95SAPC  H14C 9228   0.697   5.414   2.289  1.0281 -0.4305 -0.6463
   95SAPC   C15 9229   0.526   5.212   2.504 -0.1335 -0.2745 -0.1118
   95SAPC  H15A 9230   0.496   5.158   2.415 -1.9118 -0.4405  0.5589
   95SAPC  H15B 9231   0.613   5.180   2.560 -1.1976  1.3846  2.6612
   95SAPC  H15C 9232   0.441   5.216   2.570  0.1824  0.1950  0.2780
   95SAPC   C11 9233   0.756   5.391   2.617  0.0009  0.2649 -0.1889
   95SAPC  H11A 9234   0.751   5.292   2.667 -0.2085  0.8019  0.8678
   95SAPC  H11B 9235   0.771   5.460   2.703 -1.4390  1.1412 -0.6040
   95SAPC     P 9236   0.950   5.515   2.508  0.0495 -0.0213  0.1946
   95SAPC   O13 9237   1.054   5.469   2.408  0.1315 -0.1665 -0.1722
   95SAPC   O14 9238   0.863   5.635   2.477  0.1404  0.1197  0.1629
   95SAPC   O12 9239   0.861   5.386   2.527 -0.9211  0.4437  0.0202
   95SAPC   O11 9240   1.029   5.556   2.640  0.4556  0.3010  0.2790
   95SAPC    C1 9241   1.094   5.451   2.713 -0.0230 -0.3686 -0.3801
   95SAPC    HA 9242   1.050   5.349   2.705  1.5497 -0.9497 -2.7476
   95SAPC    HB 9243   1.202   5.448   2.689  0.9311 -0.8243  3.4428
   95SAPC    C2 9244   1.077   5.483   2.862 -0.8112  1.0481  0.1750
   95SAPC    HS 9245   0.969   5.482   2.888 -1.1693 -1.5932 -1.1069
   95SAPC   O21 9246   1.151   5.608   2.881  0.2604 -0.0390  0.2594
   95SAPC   C21 9247   1.083   5.711   2.939 -0.5208 -0.2295  0.2795
   95SAPC   O22 9248   0.964   5.716   2.953 -0.7232  0.3647  0.3537
   95SAPC   C22 9249   1.187   5.825   2.974 -0.2171  0.2183  0.1964
   95SAPC   H2R 9250   1.266   5.775   3.034 -0.8852 -1.0598  0.0461
   95SAPC   H2S 9251   1.231   5.861   2.879 -3.0246 -0.2177 -1.3811
   95SAPC    C3 9252   1.135   5.369   2.948  0.1003 -0.2170 -0.4553
   95SAPC    HX 9253   1.239   5.347   2.916  0.8938 -0.1479  1.8664
   95SAPC    HY 9254   1.078   5.275   2.936  0.7088 -0.4777 -1.3365
   95SAPC   O31 9255   1.130   5.416   3.085 -0.5047 -0.0450  0.0182
   95SAPC   C31 9256   1.014   5.398   3.141  0.4923 -0.0795  0.9395
   95SAPC   O32 9257   0.924   5.324   3.094  0.1237 -0.0099  0.5766
   95SAPC   C32 9258   1.002   5.483   3.267 -0.1165 -0.4956  0.6413
   95SAPC   H2X 9259   1.051   5.580   3.247 -0.2714 -0.6575 -0.6316
   95SAPC   H2Y 9260   1.059   5.427   3.344  0.1348 -1.0405  0.0685
   95SAPC   C23 9261   1.134   5.944   3.066 -0.7689  0.3759  0.0946
   95SAPC   H3R 9262   1.100   5.911   3.166 -1.3357  1.2255  0.1905
   95SAPC   H3S 9263   1.049   5.993   3.014 -0.1728 -0.9901 -2.3419
   95SAPC   C24 9264   1.250   6.041   3.099 -0.3784 -0.4589 -0.0222
   95SAPC   H4R 9265   1.301   6.069   3.005  1.6567  0.1080  1.2030
   95SAPC   H4S 9266   1.320   5.976   3.156 -1.9529  0.0604  2.7003
   95SAPC   C25 9267   1.184   6.163   3.170  0.0609 -0.1342  0.1243
   95SAPC   H5R 9268   1.096   6.202   3.117  1.0244  0.9006 -0.7373
   95SAPC   C26 9269   1.234   6.223   3.277 -0.4389  0.2364 -0.7272
   95SAPC   H6R 9270   1.178   6.306   3.321  1.0902  1.1074 -0.3450
   95SAPC   C27 9271   1.353   6.188   3.358 -0.3205 -0.0494 -0.3627
   95SAPC   H7R 9272   1.423   6.114   3.313  0.1797  0.2485 -0.0843
   95SAPC   H7S 9273   1.319   6.120   3.439  0.7601 -1.2495 -0.8681
   95SAPC   C28 9274   1.442   6.306   3.398  0.6280 -0.4501 -0.0440
   95SAPC   H8R 9275   1.504   6.348   3.317  0.1555  1.4526  0.5355
   95SAPC   C29 9276   1.443   6.361   3.521 -0.7861  0.2073  0.0494
   95SAPC   H9R 9277   1.522   6.433   3.547  1.1392 -1.6159 -0.5236
   95SAPC  C210 9278   1.360   6.305   3.635 -0.1306 -0.2438 -0.1227
   95SAPC  H10R 9279   1.274   6.248   3.596 -0.4065 -0.0642  0.2136
   95SAPC  H10S 9280   1.312   6.388   3.692 -2.3175  0.5022 -2.8677
   95SAPC  C211 9281   1.448   6.216   3.713  0.1180 -0.2469  0.0444
   95SAPC  H11R 9282   1.433   6.111   3.686 -0.9009  0.0693 -0.7245
   95SAPC  C212 9283   1.517   6.240   3.821  0.1621  0.8249 -0.8762
   95SAPC  H12R 9284   1.585   6.165   3.864 -2.8319 -1.0948  0.8297
   95SAPC  C213 9285   1.532   6.370   3.895  0.0573 -0.2098 -0.0934
   95SAPC  H13R 9286   1.438   6.429   3.888 -0.5473 -0.8264  1.9750
   95SAPC  H13S 9287   1.603   6.428   3.834 -0.3568  0.6679  0.2446
   95SAPC  C214 9288   1.574   6.359   4.036  0.8351  0.1340 -0.4267
   95SAPC  H14R 9289   1.656   6.429   4.060 -0.7409  1.9183  0.0684
   95SAPC  C215 9290   1.503   6.307   4.142 -0.5581  0.3810  0.5933
   95SAPC  H15R 9291   1.565   6.316   4.233 -0.7063  0.1514  0.7181
   95SAPC  C216 9292   1.374   6.234   4.153  1.0127  0.4332 -0.7730
   95SAPC  H16R 9293   1.380   6.147   4.222 -1.8592  1.1357  0.5213
   95SAPC  H16S 9294   1.345   6.197   4.052  1.7866  1.9077 -1.5698
   95SAPC  C217 9295   1.265   6.331   4.199 -0.1984 -0.3343 -0.3215
   95SAPC  H17R 9296   1.259   6.407   4.118 -1.4844 -1.2791 -1.1566
   95SAPC  H17S 9297   1.292   6.381   4.295 -1.0326 -0.7220  0.1315
   95SAPC  C218 9298   1.122   6.276   4.226 -0.1723 -0.3737 -0.0898
   95SAPC  H18R 9299   1.065   6.362   4.267 -1.1085 -1.3299  0.6861
   95SAPC  H18S 9300   1.126   6.190   4.297 -0.6536 -0.2388  0.1000
   95SAPC  C219 9301   1.056   6.227   4.100 -0.8725  0.7038  0.0040
   95SAPC  H19R 9302   1.135   6.168   4.049 -0.2060  1.3807  0.2325
   95SAPC  H19S 9303   1.030   6.316   4.038 -0.7744  2.8395  2.8289
   95SAPC  C220 9304   0.931   6.144   4.131 -1.0241 -0.3246 -0.2437
   95SAPC  H20R 9305   0.869   6.124   4.041 -0.2046  2.0887 -1.4474
   95SAPC  H20S 9306   0.872   6.193   4.210  0.7145  1.3722  0.0839
   95SAPC  H20T 9307   0.962   6.048   4.177  0.6470  0.9498  1.4205
   95SAPC   C33 9308   0.858   5.518   3.315  0.0392 -0.1415 -0.0662
   95SAPC   H3X 9309   0.791   5.440   3.273 -0.0197 -0.2256  0.1828
   95SAPC   H3Y 9310   0.824   5.610   3.261  1.4936  1.4779  1.6501
   95SAPC   C34 9311   0.837   5.514   3.470 -0.3420 -0.1143 -0.1567
   95SAPC   H4X 9312   0.857   5.416   3.518 -2.5772 -0.6780 -0.2965
   95SAPC   H4Y 9313   0.730   5.543   3.470 -0.1096  0.8098 -0.5994
   95SAPC   C35 9314   0.920   5.623   3.534 -0.1409  0.2967 -0.7915
   95SAPC   H5X 9315   0.920   5.711   3.467  1.8139  1.5582  0.7252
   95SAPC   H5Y 9316   1.024   5.584   3.526  0.7681  2.1412  0.8919
   95SAPC   C36 9317   0.885   5.660   3.676  0.6287  0.1438 -0.2783
   95SAPC   H6X 9318   0.775   5.668   3.675  0.5596  0.6712  2.7741
   95SAPC   H6Y 9319   0.925   5.753   3.722  1.5469 -0.6319  0.5514
   95SAPC   C37 9320   0.918   5.548   3.769  0.4976 -0.3797 -0.0321
   95SAPC   H7X 9321   1.029   5.535   3.770  0.6187  0.3758  1.9347
   95SAPC   H7Y 9322   0.864   5.459   3.731 -2.6402  0.4806  2.0811
   95SAPC   C38 9323   0.865   5.567   3.918 -0.0326 -0.9886  0.5148
   95SAPC   H8X 9324   0.755   5.571   3.911 -0.0100  2.2440  0.3151
   95SAPC   H8Y 9325   0.889   5.667   3.961 -2.8973  0.0699 -0.1323
   95SAPC   C39 9326   0.916   5.458   4.014 -0.3422 -0.1868 -0.6566
   95SAPC   H9X 9327   1.027   5.457   4.022 -0.3705 -1.7141 -0.0567
   95SAPC   H9Y 9328   0.889   5.357   3.976  1.4899 -0.5076 -1.2133
   95SAPC  C310 9329   0.856   5.471   4.154  0.3415  0.4334 -0.7279
   95SAPC  H10X 9330   0.746   5.469   4.138  0.3139 -2.0029 -0.6329
   95SAPC  H10Y 9331   0.872   5.571   4.199 -3.7112  0.8606  0.1983
   95SAPC  C311 9332   0.908   5.350   4.237 -0.1926 -0.4854  0.1782
   95SAPC  H11X 9333   1.017   5.335   4.223 -0.4788 -0.1793 -2.9241
   95SAPC  H11Y 9334   0.863   5.258   4.193  1.1229 -0.4045 -1.4201
   95SAPC  C312 9335   0.887   5.364   4.388 -0.3383 -0.1038 -0.1795
   95SAPC  H12X 9336   0.948   5.453   4.414  1.0596 -0.9825 -0.3180
   95SAPC  H12Y 9337   0.943   5.285   4.443  1.4593  2.6939  2.3045
   95SAPC  C313 9338   0.736   5.371   4.422 -0.7153  0.0950  0.0088
   95SAPC  H13X 9339   0.677   5.287   4.382  1.2208  0.2206 -3.4805
   95SAPC  H13Y 9340   0.698   5.466   4.378  0.5481  0.6989  0.1416
   95SAPC  C314 9341   0.717   5.380   4.573  0.2901  0.5981  0.1572
   95SAPC  H14X 9342   0.760   5.477   4.607 -0.1273  1.9210 -2.7805
   95SAPC  H14Y 9343   0.768   5.297   4.626  0.6693  0.2864 -0.6828
   95SAPC  C315 9344   0.571   5.385   4.600  0.0089  0.5377 -0.1234
   95SAPC  H15X 9345   0.533   5.287   4.564  1.2034 -1.0192  2.5218
   95SAPC  H15Y 9346   0.520   5.468   4.547 -3.5852 -2.5710 -2.0303
   95SAPC  C316 9347   0.549   5.394   4.747 -0.6011  0.5843  0.0538
   95SAPC  H16X 9348   0.605   5.481   4.786  1.5493 -0.8043  0.1959
   95SAPC  H16Y 9349   0.597   5.310   4.801  1.3567  0.7254 -1.3841
   95SAPC  C317 9350   0.405   5.387   4.792  0.7181  0.3526  0.3199
   95SAPC  H17X 9351   0.345   5.466   4.742  1.7052  0.2114 -1.1560
   95SAPC  H17Y 9352   0.416   5.421   4.898  2.5447 -2.5056  1.1620
   95SAPC  C318 9353   0.337   5.251   4.793 -0.0916  0.2894 -0.2505
   95SAPC  H18X 9354   0.374   5.187   4.877 -1.5774 -0.9214 -0.4605
   95SAPC  H18Y 9355   0.343   5.208   4.691  2.3064  0.7190 -0.3388
   95SAPC  H18Z 9356   0.231   5.274   4.819  0.0742  1.2371 -0.4028
   96SAPC     N 9357   3.761   1.515   2.276  0.3607  0.0953  0.1885
   96SAPC   C12 9358   3.817   1.457   2.407 -0.1386 -0.4822  0.8574
   96SAPC  H12A 9359   3.770   1.491   2.498 -0.1727  0.1994  0.5896
   96SAPC  H12B 9360   3.918   1.493   2.413  0.3137 -1.2985 -1.0343
   96SAPC   C13 9361   3.634   1.449   2.255  0.5698 -0.1287 -0.3695
   96SAPC  H13A 9362   3.592   1.477   2.160 -1.1646 -1.5966 -0.1042
   96SAPC  H13B 9363   3.649   1.342   2.260  0.5114 -0.1145  0.1516
   96SAPC  H13C 9364   3.562   1.493   2.323  1.3209  0.1046  0.2982
   96SAPC   C14 9365   3.727   1.661   2.284  0.1212  0.1237 -0.3814
   96SAPC  H14A 9366   3.659   1.694   2.207 -2.2717 -1.4720  0.9089
   96SAPC  H14B 9367   3.688   1.684   2.382  0.8736 -2.1088  0.5181
   96SAPC  H14C 9368   3.812   1.727   2.273 -0.5779  0.7455 -2.4093
   96SAPC   C15 9369   3.844   1.488   2.155  0.1087 -0.1359  0.0475
   96SAPC  H15A 9370   3.851   1.385   2.126 -4.9329 -0.2921 -1.4282
   96SAPC  H15B 9371   3.804   1.535   2.067 -1.4956 -1.1475  0.2057
   96SAPC  H15C 9372   3.943   1.532   2.163 -0.0092  0.0297  0.6361
   96SAPC   C11 9373   3.848   1.301   2.406  0.5227 -0.1248 -0.5860
   96SAPC  H11A 9374   3.916   1.281   2.491  1.0164 -1.2285 -1.2115
   96SAPC  H11B 9375   3.916   1.276   2.321 -2.1384  0.9146 -3.2236
   96SAPC     P 9376   3.652   1.214   2.540  0.3085  0.2076  0.2875
   96SAPC   O13 9377   3.569   1.335   2.566  0.1121 -0.4347 -0.4142
   96SAPC   O14 9378   3.578   1.085   2.528  0.3292 -0.3638 -0.7200
   96SAPC   O12 9379   3.730   1.215   2.402  0.1926 -0.7000  0.0814
   96SAPC   O11 9380   3.769   1.195   2.650  0.0621 -0.0499 -0.3189
   96SAPC    C1 9381   3.721   1.163   2.782 -0.5627 -0.0387  0.1136
   96SAPC    HA 9382   3.625   1.211   2.811  0.3714  3.5049 -2.0885
   96SAPC    HB 9383   3.710   1.052   2.788 -0.5257  0.0321  1.9338
   96SAPC    C2 9384   3.819   1.215   2.884 -0.2977 -0.8725 -0.0007
   96SAPC    HS 9385   3.915   1.160   2.878 -1.0805 -2.3520  0.4155
   96SAPC   O21 9386   3.773   1.207   3.015  0.3771  0.0565  0.1948
   96SAPC   C21 9387   3.860   1.174   3.112  0.4904 -0.5890  0.1257
   96SAPC   O22 9388   3.978   1.161   3.103  0.2203  0.0238  0.3729
   96SAPC   C22 9389   3.775   1.152   3.235  0.7250  0.8284 -0.2401
   96SAPC   H2R 9390   3.687   1.219   3.230  1.1979  1.6823  1.8239
   96SAPC   H2S 9391   3.730   1.050   3.229 -1.2916  1.6557  0.0940
   96SAPC    C3 9392   3.856   1.361   2.854 -0.6298  0.3739  0.4009
   96SAPC    HX 9393   3.895   1.361   2.750  1.0115 -1.4905  0.9431
   96SAPC    HY 9394   3.944   1.376   2.921 -1.0851 -0.7930  1.2969
   96SAPC   O31 9395   3.752   1.455   2.870  0.4222  0.1449 -0.4572
   96SAPC   C31 9396   3.723   1.515   2.986 -0.1349 -0.1483  0.3123
   96SAPC   O32 9397   3.779   1.488   3.089 -0.6134 -0.0423  0.3907
   96SAPC   C32 9398   3.628   1.639   2.970 -0.1035  0.4725  0.3562
   96SAPC   H2X 9399   3.541   1.597   2.915 -0.7895  2.1894  0.0407
   96SAPC   H2Y 9400   3.675   1.709   2.897 -0.4129  0.5746  0.2530
   96SAPC   C23 9401   3.843   1.151   3.376  0.4585  0.1534 -0.1065
   96SAPC   H3R 9402   3.938   1.093   3.374  0.1636 -0.4087  1.3541
   96SAPC   H3S 9403   3.779   1.098   3.450  3.4029 -0.1583  2.4288
   96SAPC   C24 9404   3.880   1.290   3.418  0.5780 -0.5957  0.0857
   96SAPC   H4R 9405   3.937   1.337   3.335 -1.1823  1.4366 -0.0701
   96SAPC   H4S 9406   3.950   1.299   3.504  2.2302 -2.2729 -1.0290
   96SAPC   C25 9407   3.757   1.378   3.444  0.5248 -0.3690 -0.7900
   96SAPC   H5R 9408   3.723   1.440   3.359  2.6825 -1.8580 -2.8697
   96SAPC   C26 9409   3.696   1.398   3.561 -0.3274  0.6813 -0.4190
   96SAPC   H6R 9410   3.608   1.465   3.561 -0.1280  1.0263  1.6613
   96SAPC   C27 9411   3.730   1.331   3.688 -0.4906  0.6025  0.1475
   96SAPC   H7R 9412   3.820   1.375   3.736 -0.2574  1.1776 -0.7930
   96SAPC   H7S 9413   3.761   1.227   3.668  2.4041  1.5046 -0.4736
   96SAPC   C28 9414   3.612   1.346   3.778  0.2122 -0.2895  0.1146
   96SAPC   H8R 9415   3.513   1.324   3.735  0.6499 -0.7059 -0.7005
   96SAPC   C29 9416   3.610   1.358   3.913  0.1582  0.2470  0.0909
   96SAPC   H9R 9417   3.513   1.358   3.966 -0.1822  0.7911 -0.5095
   96SAPC  C210 9418   3.718   1.378   4.015 -0.6022  0.7485  0.4967
   96SAPC  H10R 9419   3.820   1.376   3.971 -0.0896  2.1452  1.5632
   96SAPC  H10S 9420   3.716   1.290   4.083  3.1651 -0.3239 -0.5427
   96SAPC  C211 9421   3.712   1.495   4.100  0.2542  0.3078  0.1463
   96SAPC  H11R 9422   3.697   1.583   4.036 -2.1015 -0.3313 -0.2911
   96SAPC  C212 9423   3.713   1.493   4.236  0.1730 -0.5039 -0.2359
   96SAPC  H12R 9424   3.708   1.588   4.290 -1.7677 -0.5104 -0.3431
   96SAPC  C213 9425   3.720   1.369   4.327 -0.0880 -0.1571  0.2163
   96SAPC  H13R 9426   3.751   1.407   4.427 -0.1539 -0.2004  0.2533
   96SAPC  H13S 9427   3.801   1.307   4.283  0.7611  1.8438 -1.1776
   96SAPC  C214 9428   3.601   1.278   4.346  0.3190  0.4366 -0.4557
   96SAPC  H14R 9429   3.500   1.319   4.329 -0.2253 -0.4187  0.5788
   96SAPC  C215 9430   3.605   1.142   4.390  0.0622 -1.1033  0.0123
   96SAPC  H15R 9431   3.512   1.086   4.398 -0.7302  0.0001 -1.0660
   96SAPC  C216 9432   3.722   1.054   4.420 -0.4857 -0.3186  0.6424
   96SAPC  H16R 9433   3.797   1.112   4.478 -0.3839  0.6597 -0.4234
   96SAPC  H16S 9434   3.764   1.020   4.323  0.2282  0.7466  0.5579
   96SAPC  C217 9435   3.698   0.915   4.491  0.0302 -0.1797  0.2950
   96SAPC  H17R 9436   3.623   0.859   4.432  2.0663 -3.4340  0.5871
   96SAPC  H17S 9437   3.658   0.927   4.593 -1.1683 -0.2936 -0.1460
   96SAPC  C218 9438   3.827   0.834   4.512 -0.3378  0.8759  0.7388
   96SAPC  H18R 9439   3.896   0.912   4.551 -0.1307  2.3501 -2.2869
   96SAPC  H18S 9440   3.856   0.787   4.416  0.8886 -0.2606  1.6312
   96SAPC  C219 9441   3.812   0.710   4.612  0.0260  0.2433 -0.5211
   96SAPC  H19R 9442   3.732   0.642   4.574  0.0711 -0.5976  0.8002
   96SAPC  H19S 9443   3.775   0.745   4.711 -0.2312  0.2256 -0.6106
   96SAPC  C220 9444   3.946   0.644   4.625 -0.0783  0.4906 -0.4082
   96SAPC  H20R 9445   3.942   0.551   4.686 -0.1828  0.6139 -0.2229
   96SAPC  H20S 9446   4.025   0.713   4.662  1.6904 -0.9335 -1.4191
   96SAPC  H20T 9447   3.983   0.615   4.525 -0.4274 -3.3889  0.4261
   96SAPC   C33 9448   3.590   1.703   3.101 -0.7088  0.0923  0.4092
   96SAPC   H3X 9449   3.534   1.796   3.079 -0.8685 -0.2959 -0.8810
   96SAPC   H3Y 9450   3.677   1.733   3.163  0.2344 -0.7820 -0.4458
   96SAPC   C34 9451   3.491   1.618   3.174  0.2569  0.4199  0.0751
   96SAPC   H4X 9452   3.543   1.521   3.187  0.8658  0.9168  1.4258
   96SAPC   H4Y 9453   3.409   1.601   3.100 -1.1752  1.3859  1.3743
   96SAPC   C35 9454   3.440   1.669   3.305 -0.3185  0.2134  0.3423
   96SAPC   H5X 9455   3.369   1.752   3.285 -0.2405 -0.1961 -1.9708
   96SAPC   H5Y 9456   3.525   1.703   3.368  0.5015 -2.1196  0.6036
   96SAPC   C36 9457   3.374   1.552   3.376  0.5024 -0.6960  0.0307
   96SAPC   H6X 9458   3.448   1.469   3.381 -1.1115 -2.2292 -0.3886
   96SAPC   H6Y 9459   3.292   1.516   3.311 -0.4414 -0.6644  1.1745
   96SAPC   C37 9460   3.323   1.588   3.518 -0.4346  0.0641 -0.3793
   96SAPC   H7X 9461   3.240   1.662   3.522  0.9503  1.6388  2.3317
   96SAPC   H7Y 9462   3.404   1.624   3.585 -1.7182  0.1645  1.1714
   96SAPC   C38 9463   3.258   1.459   3.572 -0.0215  0.3413 -0.1612
   96SAPC   H8X 9464   3.340   1.388   3.598 -0.3821  0.3470  1.0564
   96SAPC   H8Y 9465   3.179   1.412   3.509 -2.4887  3.6048  0.2705
   96SAPC   C39 9466   3.200   1.478   3.715  0.1291 -0.0655  0.6662
   96SAPC   H9X 9467   3.108   1.541   3.706 -0.4983 -1.1549 -0.8908
   96SAPC   H9Y 9468   3.270   1.536   3.778  1.0925 -0.3971 -0.0807
   96SAPC  C310 9469   3.153   1.347   3.780 -0.3223 -0.3964  0.2023
   96SAPC  H10X 9470   3.237   1.287   3.822 -0.0913  0.3680  0.8520
   96SAPC  H10Y 9471   3.089   1.282   3.716  1.6041 -2.6789  0.4520
   96SAPC  C311 9472   3.068   1.372   3.909 -0.3399  0.2983  0.0399
   96SAPC  H11X 9473   2.977   1.431   3.883 -0.9274 -0.2144  0.8614
   96SAPC  H11Y 9474   3.120   1.432   3.986  0.9104 -3.5671  2.4799
   96SAPC  C312 9475   3.020   1.246   3.984  0.4406  0.1929  0.0698
   96SAPC  H12X 9476   3.106   1.192   4.030  0.7299  1.0700  0.6065
   96SAPC  H12Y 9477   2.965   1.180   3.914 -0.9548  2.1355 -0.7666
   96SAPC  C313 9478   2.909   1.279   4.087 -0.0441 -0.1322 -0.4258
   96SAPC  H13X 9479   2.946   1.358   4.156  0.9087 -1.7009  0.9423
   96SAPC  H13Y 9480   2.907   1.190   4.153  1.6970 -0.1530 -0.3431
   96SAPC  C314 9481   2.768   1.305   4.028  0.2455  0.7246  0.1703
   96SAPC  H14X 9482   2.745   1.239   3.941  1.7562 -0.6275  0.7495
   96SAPC  H14Y 9483   2.769   1.413   3.999 -2.2363  0.5281 -0.8988
   96SAPC  C315 9484   2.654   1.288   4.129  0.3208 -0.5125 -0.2414
   96SAPC  H15X 9485   2.572   1.352   4.092  0.6996 -0.7112 -1.5004
   96SAPC  H15Y 9486   2.682   1.340   4.223 -1.1092 -4.3800  2.5822
   96SAPC  C316 9487   2.617   1.143   4.158  0.5606 -0.0021  1.0832
   96SAPC  H16X 9488   2.540   1.141   4.239  0.3670  1.7935  0.9776
   96SAPC  H16Y 9489   2.702   1.075   4.182  2.1914  1.8124  0.6528
   96SAPC  C317 9490   2.532   1.067   4.042 -0.3386  0.3346  0.1124
   96SAPC  H17X 9491   2.602   1.045   3.959 -1.5045 -2.8290 -0.1984
   96SAPC  H17Y 9492   2.449   1.127   4.000  1.3869  0.8573 -2.7886
   96SAPC  C318 9493   2.486   0.928   4.088  0.7365 -0.2904 -0.1531
   96SAPC  H18X 9494   2.566   0.874   4.142 -1.5085 -1.8742  1.7946
   96SAPC  H18Y 9495   2.461   0.871   3.996  2.4053 -3.3874  1.2024
   96SAPC  H18Z 9496   2.397   0.947   4.152 -1.0153  0.3165 -2.6208
   97SAPC     N 9497   6.305   6.071   2.629 -0.7569  0.2833 -0.0157
   97SAPC   C12 9498   6.270   6.145   2.760 -0.6075  0.1252 -0.4158
   97SAPC  H12A 9499   6.291   6.075   2.839  1.1601 -0.8733 -1.7090
   97SAPC  H12B 9500   6.162   6.156   2.764 -0.4795  1.3044  0.0848
   97SAPC   C13 9501   6.226   5.942   2.615 -0.3813 -0.1627  0.1702
   97SAPC  H13A 9502   6.258   5.889   2.526 -1.0570  0.0274 -0.1979
   97SAPC  H13B 9503   6.237   5.874   2.697 -0.1190  0.5228  0.7163
   97SAPC  H13C 9504   6.119   5.951   2.602 -0.5700 -2.9273 -0.8730
   97SAPC   C14 9505   6.279   6.161   2.514 -0.1425  0.8127 -0.4243
   97SAPC  H14A 9506   6.173   6.160   2.494 -0.0907  0.7339 -0.6994
   97SAPC  H14B 9507   6.304   6.263   2.540 -0.5012  0.3851  1.8007
   97SAPC  H14C 9508   6.325   6.126   2.423 -1.4467  1.6513 -1.4476
   97SAPC   C15 9509   6.460   6.041   2.623  1.0169 -0.4959 -0.3408
   97SAPC  H15A 9510   6.500   5.994   2.711 -0.8336 -0.7778  0.3927
   97SAPC  H15B 9511   6.484   5.972   2.543  1.1347 -1.7354  0.7417
   97SAPC  H15C 9512   6.503   6.136   2.595 -0.7512 -0.0293 -1.6762
   97SAPC   C11 9513   6.331   6.286   2.781  0.2636 -0.2897 -0.3764
   97SAPC  H11A 9514   6.436   6.279   2.746  0.3785 -2.0272  0.2336
   97SAPC  H11B 9515   6.336   6.307   2.890 -0.0679 -1.4086 -0.1325
   97SAPC     P 9516   6.300   6.518   2.662 -0.4035 -0.2824 -0.5121
   97SAPC   O13 9517   6.344   6.492   2.524  0.1102 -0.3809  0.8544
   97SAPC   O14 9518   6.186   6.609   2.679  0.3199 -0.6081 -0.2587
   97SAPC   O12 9519   6.243   6.381   2.724 -0.3788  0.1778  0.3708
   97SAPC   O11 9520   6.421   6.554   2.757 -0.4392  0.6676 -0.2755
   97SAPC    C1 9521   6.442   6.680   2.821  0.0914 -0.3961 -0.0276
   97SAPC    HA 9522   6.550   6.706   2.817 -0.0019 -0.0804 -0.6731
   97SAPC    HB 9523   6.397   6.762   2.762 -0.3876 -1.3303 -1.0003
   97SAPC    C2 9524   6.415   6.682   2.969  0.2426  0.0737 -0.6951
   97SAPC    HS 9525   6.443   6.781   3.011  0.8420 -0.3312 -0.1161
   97SAPC   O21 9526   6.509   6.592   3.030 -0.3531 -0.3508 -0.3104
   97SAPC   C21 9527   6.627   6.643   3.066 -0.5181  0.1019 -0.1952
   97SAPC   O22 9528   6.669   6.752   3.037  0.5086  0.1224 -0.0648
   97SAPC   C22 9529   6.717   6.539   3.134 -0.8792  0.0237 -1.1274
   97SAPC   H2R 9530   6.663   6.444   3.156 -1.2318  0.2094 -1.1843
   97SAPC   H2S 9531   6.801   6.511   3.067 -0.8469 -1.2455 -0.6011
   97SAPC    C3 9532   6.263   6.648   3.000 -0.1962  0.7890  1.0518
   97SAPC    HX 9533   6.224   6.553   2.956 -3.2359  1.5048  1.9769
   97SAPC    HY 9534   6.193   6.722   2.955 -0.5088  1.4700  2.6122
   97SAPC   O31 9535   6.245   6.644   3.141 -0.0817 -0.0440 -0.4046
   97SAPC   C31 9536   6.241   6.520   3.192 -0.4081 -0.0699 -0.0284
   97SAPC   O32 9537   6.256   6.419   3.132 -0.0664  0.1787  0.3774
   97SAPC   C32 9538   6.251   6.530   3.344 -0.3170 -0.4354 -0.2786
   97SAPC   H2X 9539   6.206   6.624   3.380  0.0127 -0.7842  1.1161
   97SAPC   H2Y 9540   6.361   6.534   3.360 -0.1838  0.6171 -1.3529
   97SAPC   C23 9541   6.778   6.611   3.255  0.5621  0.3708 -0.3027
   97SAPC   H3R 9542   6.819   6.712   3.232 -0.6013  0.7892 -0.6050
   97SAPC   H3S 9543   6.863   6.553   3.295  2.0168  1.3657 -1.7952
   97SAPC   C24 9544   6.683   6.627   3.368 -0.5234 -0.3640 -0.4705
   97SAPC   H4R 9545   6.643   6.527   3.396  0.1433 -1.2656 -2.5807
   97SAPC   H4S 9546   6.600   6.693   3.337  1.7351  2.9110 -0.0060
   97SAPC   C25 9547   6.762   6.683   3.481 -0.2684  0.1480  0.0734
   97SAPC   H5R 9548   6.801   6.785   3.469  0.5155 -0.3669 -2.0410
   97SAPC   C26 9549   6.804   6.614   3.587  0.7273  0.1744 -1.0868
   97SAPC   H6R 9550   6.876   6.661   3.657 -0.4172 -0.8221  0.8621
   97SAPC   C27 9551   6.785   6.470   3.622 -0.0355 -0.1463  0.3898
   97SAPC   H7R 9552   6.881   6.433   3.665 -0.4094 -1.5334  0.0877
   97SAPC   H7S 9553   6.780   6.418   3.524  1.5791  0.1784  0.1023
   97SAPC   C28 9554   6.671   6.440   3.715 -0.4802 -0.3077 -0.2157
   97SAPC   H8R 9555   6.592   6.515   3.701 -0.4604 -0.7716 -3.6462
   97SAPC   C29 9556   6.662   6.344   3.807 -0.0154  0.1499 -0.3248
   97SAPC   H9R 9557   6.577   6.348   3.877  0.8716  0.0575  0.7705
   97SAPC  C210 9558   6.775   6.260   3.852 -0.1588  0.2990 -0.0005
   97SAPC  H10R 9559   6.833   6.328   3.918 -1.0578 -0.9329  2.1441
   97SAPC  H10S 9560   6.840   6.239   3.764  0.0553 -0.2171  0.2810
   97SAPC  C211 9561   6.746   6.134   3.933 -0.3516  0.4309 -0.1713
   97SAPC  H11R 9562   6.697   6.055   3.874 -2.1252  3.7544 -3.5801
   97SAPC  C212 9563   6.764   6.111   4.069 -0.2397  0.1685 -0.1165
   97SAPC  H12R 9564   6.746   6.009   4.107  2.2362 -0.4962 -0.4959
   97SAPC  C213 9565   6.812   6.214   4.174 -0.1814 -0.5773  0.5122
   97SAPC  H13R 9566   6.771   6.311   4.140 -1.4147 -1.1678  0.2595
   97SAPC  H13S 9567   6.923   6.203   4.166 -0.3048 -1.2136 -0.5772
   97SAPC  C214 9568   6.766   6.190   4.317  0.3848 -0.1231  0.4118
   97SAPC  H14R 9569   6.661   6.214   4.337  0.4660  0.6725 -0.0842
   97SAPC  C215 9570   6.843   6.165   4.428 -0.2865 -0.3677 -0.6330
   97SAPC  H15R 9571   6.789   6.163   4.524 -0.4542  0.4617 -0.6990
   97SAPC  C216 9572   6.987   6.126   4.440  0.3377 -0.1787  0.1119
   97SAPC  H16R 9573   7.034   6.196   4.513  2.4835 -0.6846 -0.7232
   97SAPC  H16S 9574   7.042   6.135   4.344 -0.6557  1.1383 -0.3672
   97SAPC  C217 9575   7.023   5.985   4.484  0.5913 -0.1953  0.0592
   97SAPC  H17R 9576   6.947   5.916   4.442 -0.8942  1.7280 -0.5323
   97SAPC  H17S 9577   7.012   5.983   4.595 -0.7072  1.0719 -0.0256
   97SAPC  C218 9578   7.169   5.944   4.441  0.4298 -0.4629 -0.1973
   97SAPC  H18R 9579   7.240   5.982   4.517  0.7616  0.2698 -0.8526
   97SAPC  H18S 9580   7.192   5.984   4.340  2.9645  2.9089  1.4999
   97SAPC  C219 9581   7.170   5.791   4.429 -0.1724  0.3555 -0.6346
   97SAPC  H19R 9582   7.274   5.756   4.412 -0.6342 -0.6794 -1.4717
   97SAPC  H19S 9583   7.117   5.765   4.334 -0.8624  1.0763 -0.4602
   97SAPC  C220 9584   7.100   5.706   4.537 -0.1034 -0.1134 -0.8993
   97SAPC  H20R 9585   6.991   5.724   4.546  0.1509  0.6892  1.1030
   97SAPC  H20S 9586   7.146   5.719   4.638 -0.4442 -1.7632 -0.4935
   97SAPC  H20T 9587   7.122   5.599   4.513  1.0548 -0.1784  0.2880
   97SAPC   C33 9588   6.181   6.409   3.409 -0.3752  0.1261 -0.0355
   97SAPC   H3X 9589   6.241   6.319   3.382  0.5939  1.4477 -2.6795
   97SAPC   H3Y 9590   6.077   6.404   3.371 -0.5047 -0.8974  0.4357
   97SAPC   C34 9591   6.169   6.431   3.558 -0.2273  1.0339  0.2127
   97SAPC   H4X 9592   6.122   6.531   3.572  1.2775  1.5888  1.6920
   97SAPC   H4Y 9593   6.268   6.418   3.608 -0.2287 -3.5178 -0.5458
   97SAPC   C35 9594   6.083   6.314   3.608  1.0064 -0.6307 -0.0957
   97SAPC   H5X 9595   6.123   6.213   3.582  0.1363 -0.4569 -2.4287
   97SAPC   H5Y 9596   5.981   6.316   3.563  0.9898  0.1536 -0.0218
   97SAPC   C36 9597   6.055   6.319   3.769 -0.1469  0.0299  1.1227
   97SAPC   H6X 9598   6.012   6.413   3.811  0.1243  1.0620 -0.7991
   97SAPC   H6Y 9599   6.156   6.310   3.816  0.8032  1.0678 -0.6306
   97SAPC   C37 9600   5.953   6.220   3.799  0.1886  0.9056 -0.3711
   97SAPC   H7X 9601   5.997   6.124   3.764  1.7097  1.6396 -0.5803
   97SAPC   H7Y 9602   5.853   6.234   3.755 -0.4903 -0.6757  0.5598
   97SAPC   C38 9603   5.945   6.187   3.957 -0.2689 -0.3248  0.0869
   97SAPC   H8X 9604   6.046   6.172   3.999 -0.7376 -1.3739  0.9109
   97SAPC   H8Y 9605   5.894   6.093   3.990 -1.1569  0.0793 -0.1076
   97SAPC   C39 9606   5.892   6.304   4.033  0.2347 -0.1816 -0.2493
   97SAPC   H9X 9607   5.783   6.321   4.020 -0.1021  0.5550  2.7079
   97SAPC   H9Y 9608   5.941   6.400   4.006  1.1042 -0.3640  0.5915
   97SAPC  C310 9609   5.902   6.291   4.187  0.2336  0.0119 -0.3250
   97SAPC  H10X 9610   6.009   6.275   4.214  0.2916  0.4884 -0.2702
   97SAPC  H10Y 9611   5.850   6.198   4.216  1.2264 -0.4922 -0.1086
   97SAPC  C311 9612   5.848   6.411   4.268  0.2613  0.3888  0.0998
   97SAPC  H11X 9613   5.758   6.362   4.310  0.2482 -0.4219 -0.8350
   97SAPC  H11Y 9614   5.804   6.488   4.200  1.4590  1.2531  0.2874
   97SAPC  C312 9615   5.922   6.467   4.385 -0.4916 -0.6473 -0.1693
   97SAPC  H12X 9616   5.918   6.402   4.475  1.9567 -0.3447  0.2263
   97SAPC  H12Y 9617   5.868   6.561   4.410 -0.9535 -1.8940  4.3748
   97SAPC  C313 9618   6.068   6.496   4.365  0.6867 -0.2376 -0.1893
   97SAPC  H13X 9619   6.092   6.563   4.279  1.3585 -1.7585 -1.2219
   97SAPC  H13Y 9620   6.125   6.403   4.343  2.2742  0.3102  1.3762
   97SAPC  C314 9621   6.119   6.562   4.492 -0.1557 -0.1791 -0.4834
   97SAPC  H14X 9622   6.099   6.500   4.582  0.8045 -0.3013 -0.3406
   97SAPC  H14Y 9623   6.075   6.663   4.508  1.7963  0.5671  0.5274
   97SAPC  C315 9624   6.272   6.576   4.503  0.0397  0.5107 -0.1836
   97SAPC  H15X 9625   6.320   6.609   4.408  2.2141 -2.7994 -0.4101
   97SAPC  H15Y 9626   6.313   6.472   4.507  1.7707  1.1335 -0.6021
   97SAPC  C316 9627   6.314   6.650   4.631  0.7204  0.8893 -0.0739
   97SAPC  H16X 9628   6.272   6.601   4.721  1.5354  0.4895  0.0925
   97SAPC  H16Y 9629   6.276   6.754   4.642  1.6962  1.1515  1.0275
   97SAPC  C317 9630   6.467   6.653   4.642  0.4591 -0.5498  0.6600
   97SAPC  H17X 9631   6.505   6.698   4.549 -2.2826 -0.7246 -0.6493
   97SAPC  H17Y 9632   6.503   6.548   4.631  1.9870 -0.1276  1.4398
   97SAPC  C318 9633   6.520   6.720   4.765  0.1843 -0.0010  0.1881
   97SAPC  H18X 9634   6.515   6.830   4.755  0.4365 -0.0125 -0.0937
   97SAPC  H18Y 9635   6.623   6.693   4.797 -0.6373  0.7121  3.9262
   97SAPC  H18Z 9636   6.459   6.676   4.847 -0.9948 -2.0828 -1.7000
   98SAPC     N 9637   3.893   3.723   1.722  0.1907  0.1611  0.2184
   98SAPC   C12 9638   3.987   3.805   1.805  0.0617 -0.1033  0.9328
   98SAPC  H12A 9639   3.948   3.904   1.821  1.4046  0.2942  1.8806
   98SAPC  H12B 9640   4.078   3.824   1.750 -1.1971  0.6733 -1.0144
   98SAPC   C13 9641   3.881   3.795   1.590 -0.3848  0.0836 -0.4189
   98SAPC  H13A 9642   3.825   3.886   1.604 -1.3963 -0.5362 -0.3400
   98SAPC  H13B 9643   3.980   3.814   1.551 -1.3430  1.1336 -2.4472
   98SAPC  H13C 9644   3.829   3.730   1.523  1.0882 -0.6328 -0.9172
   98SAPC   C14 9645   3.948   3.586   1.693  0.1194 -0.3807 -0.9716
   98SAPC  H14A 9646   4.036   3.597   1.631  0.1272  0.1616 -0.8673
   98SAPC  H14B 9647   3.963   3.535   1.787  1.2302  1.6463  0.0312
   98SAPC  H14C 9648   3.880   3.528   1.632 -1.9320  1.1016 -0.1935
   98SAPC   C15 9649   3.761   3.707   1.785  0.7702 -0.4352 -0.0523
   98SAPC  H15A 9650   3.688   3.672   1.713  0.6329  0.8812 -0.5837
   98SAPC  H15B 9651   3.767   3.627   1.857  0.4221 -0.0056  0.4598
   98SAPC  H15C 9652   3.715   3.792   1.833 -0.8418 -1.1809 -0.2039
   98SAPC   C11 9653   4.022   3.755   1.951 -0.5474 -0.3371 -0.4926
   98SAPC  H11A 9654   3.921   3.767   1.995 -0.7021  1.9312 -1.3761
   98SAPC  H11B 9655   4.095   3.824   1.997  0.8250 -0.5769 -2.2199
   98SAPC     P 9656   4.211   3.565   1.939 -0.4627 -0.1130 -0.3937
   98SAPC   O13 9657   4.187   3.443   1.865  0.0372  0.0834  0.2054
   98SAPC   O14 9658   4.302   3.667   1.881  0.1443 -0.1848 -0.0204
   98SAPC   O12 9659   4.065   3.619   1.955 -0.1710 -0.3133 -0.7057
   98SAPC   O11 9660   4.258   3.526   2.087 -0.0687  0.5864  0.3068
   98SAPC    C1 9661   4.221   3.602   2.206  0.1485  0.1943  0.2584
   98SAPC    HA 9662   4.276   3.699   2.203 -3.5559  2.4651 -2.6189
   98SAPC    HB 9663   4.113   3.627   2.198 -0.0678 -1.3120 -3.6689
   98SAPC    C2 9664   4.237   3.526   2.344 -0.8428  0.0562 -0.0442
   98SAPC    HS 9665   4.221   3.606   2.419 -0.5974  1.9192 -1.8863
   98SAPC   O21 9666   4.374   3.470   2.340 -0.4647 -0.0093 -0.3310
   98SAPC   C21 9667   4.445   3.513   2.440  0.3185 -0.0747  0.4497
   98SAPC   O22 9668   4.417   3.603   2.518  0.2195 -0.2247  0.0993
   98SAPC   C22 9669   4.576   3.437   2.436 -0.1171 -0.3242  0.8808
   98SAPC   H2R 9670   4.556   3.338   2.391 -2.4172  0.1218  0.7892
   98SAPC   H2S 9671   4.641   3.481   2.358 -0.3742 -2.8955 -0.9172
   98SAPC    C3 9672   4.134   3.412   2.369 -0.2371 -0.1106  0.3990
   98SAPC    HX 9673   4.156   3.331   2.297 -1.2815  0.7024 -0.8601
   98SAPC    HY 9674   4.035   3.448   2.334  1.3792  2.5635 -1.8168
   98SAPC   O31 9675   4.131   3.360   2.505 -0.3147 -0.3485  0.3286
   98SAPC   C31 9676   4.213   3.263   2.539 -0.3040 -0.1411  0.4459
   98SAPC   O32 9677   4.304   3.222   2.468 -0.4212 -0.1167 -0.0395
   98SAPC   C32 9678   4.184   3.221   2.688 -0.4329 -0.0562 -0.2415
   98SAPC   H2X 9679   4.077   3.191   2.697 -0.5859  0.9134  1.9138
   98SAPC   H2Y 9680   4.209   3.312   2.746  0.1991  0.6530 -1.5768
   98SAPC   C23 9681   4.640   3.418   2.572 -0.1854 -0.3430  0.0979
   98SAPC   H3R 9682   4.633   3.309   2.593  2.3168 -0.3749  1.1627
   98SAPC   H3S 9683   4.588   3.483   2.645  0.3837  0.0939  0.1236
   98SAPC   C24 9684   4.793   3.466   2.577 -0.2438  0.0386 -0.0185
   98SAPC   H4R 9685   4.819   3.470   2.685  1.2923 -0.0114 -0.3692
   98SAPC   H4S 9686   4.795   3.573   2.545 -2.4289 -0.6353 -2.7148
   98SAPC   C25 9687   4.874   3.375   2.489 -0.7313 -0.1935 -0.8174
   98SAPC   H5R 9688   4.818   3.361   2.395 -2.1730  1.0993 -0.1746
   98SAPC   C26 9689   4.988   3.313   2.528 -0.5063  0.1699 -0.5040
   98SAPC   H6R 9690   5.041   3.257   2.449  1.0114 -0.0296  0.6035
   98SAPC   C27 9691   5.068   3.324   2.656  0.0676 -0.4808 -0.2927
   98SAPC   H7R 9692   5.138   3.239   2.667  0.5936  0.1847  2.3197
   98SAPC   H7S 9693   4.986   3.326   2.732  0.3965 -0.2320  0.0594
   98SAPC   C28 9694   5.153   3.453   2.657  0.8447 -0.1043 -0.2949
   98SAPC   H8R 9695   5.141   3.518   2.569 -2.1250 -1.2866 -0.8738
   98SAPC   C29 9696   5.225   3.500   2.763 -0.0721  0.7469 -0.0107
   98SAPC   H9R 9697   5.310   3.568   2.749  1.4250 -0.8917  0.7270
   98SAPC  C210 9698   5.224   3.446   2.904 -0.4358 -0.3498  0.2239
   98SAPC  H10R 9699   5.325   3.406   2.926  0.0453 -0.6963 -2.3142
   98SAPC  H10S 9700   5.158   3.357   2.911 -1.9084  0.7143  0.4349
   98SAPC  C211 9701   5.174   3.551   2.998  0.1956  0.1427 -0.6052
   98SAPC  H11R 9702   5.068   3.572   2.980 -0.7087 -2.3593  1.2388
   98SAPC  C212 9703   5.225   3.590   3.110  0.0058  0.0740 -0.2323
   98SAPC  H12R 9704   5.169   3.667   3.164  2.6557  1.2363  1.0614
   98SAPC  C213 9705   5.360   3.552   3.167 -0.3552  0.8894 -0.0854
   98SAPC  H13R 9706   5.426   3.518   3.085  0.5630 -1.9265  1.6745
   98SAPC  H13S 9707   5.352   3.464   3.234  0.5361  0.5554 -0.4038
   98SAPC  C214 9708   5.433   3.672   3.230  0.4405 -0.4807  0.0414
   98SAPC  H14R 9709   5.479   3.736   3.152 -4.2192  1.8483 -1.1746
   98SAPC  C215 9710   5.458   3.696   3.361  0.0714  0.5381 -0.2923
   98SAPC  H15R 9711   5.519   3.782   3.394 -1.0385  0.4285  2.3019
   98SAPC  C216 9712   5.420   3.613   3.485 -1.7054  0.6866 -0.1487
   98SAPC  H16R 9713   5.504   3.554   3.527 -3.6210 -0.0450  3.0019
   98SAPC  H16S 9714   5.352   3.530   3.456  0.7375 -1.1208 -1.0946
   98SAPC  C217 9715   5.373   3.694   3.600 -0.1282  0.8955 -0.2678
   98SAPC  H17R 9716   5.288   3.760   3.573 -0.3146  0.5479 -0.5328
   98SAPC  H17S 9717   5.446   3.770   3.635 -0.5408  1.2577 -0.1792
   98SAPC  C218 9718   5.328   3.598   3.720  0.1346  0.0073 -0.1399
   98SAPC  H18R 9719   5.411   3.531   3.754  1.0125  1.5784  0.9239
   98SAPC  H18S 9720   5.237   3.541   3.691 -1.8345  1.8977  1.9690
   98SAPC  C219 9721   5.289   3.685   3.837  0.2109 -0.2451 -0.3817
   98SAPC  H19R 9722   5.180   3.705   3.839  0.2685  0.0704  0.9636
   98SAPC  H19S 9723   5.348   3.779   3.837  0.6395 -0.4539  1.7181
   98SAPC  C220 9724   5.308   3.616   3.972 -0.1087  0.4994  0.2785
   98SAPC  H20R 9725   5.226   3.637   4.044  1.8787  2.1049  2.2238
   98SAPC  H20S 9726   5.399   3.637   4.032 -0.9055 -1.1861  2.1844
   98SAPC  H20T 9727   5.311   3.508   3.947 -1.9800  1.2927 -4.4769
   98SAPC   C33 9728   4.272   3.106   2.747  0.5364 -0.4470  0.0105
   98SAPC   H3X 9729   4.381   3.123   2.746  0.2635  1.4888 -0.8785
   98SAPC   H3Y 9730   4.242   3.019   2.684  1.4891  0.7404 -2.1943
   98SAPC   C34 9731   4.233   3.080   2.898 -0.7256  0.3512 -0.1172
   98SAPC   H4X 9732   4.289   2.986   2.916  0.2084  1.0070  0.5373
   98SAPC   H4Y 9733   4.125   3.056   2.901 -1.4575  3.3721  1.0577
   98SAPC   C35 9734   4.264   3.184   3.010  0.2390  0.6438  0.3888
   98SAPC   H5X 9735   4.186   3.263   3.007  0.6223  1.0196 -1.2417
   98SAPC   H5Y 9736   4.360   3.237   2.993  0.7943 -1.1462 -2.7985
   98SAPC   C36 9737   4.258   3.105   3.141 -0.1497 -0.2741 -0.4368
   98SAPC   H6X 9738   4.301   3.002   3.135 -1.0432 -1.0056  3.2041
   98SAPC   H6Y 9739   4.149   3.099   3.164  0.4714 -0.8249  2.8420
   98SAPC   C37 9740   4.329   3.175   3.263 -0.6388 -0.0217 -0.5073
   98SAPC   H7X 9741   4.308   3.282   3.288  4.0760  0.7028  1.2663
   98SAPC   H7Y 9742   4.437   3.177   3.237  0.0550  0.5048  2.1230
   98SAPC   C38 9743   4.296   3.091   3.389 -0.3171  0.3113  0.3588
   98SAPC   H8X 9744   4.313   2.985   3.362  0.0077  0.7162 -1.1434
   98SAPC   H8Y 9745   4.194   3.112   3.427 -0.7475 -0.0892 -0.5491
   98SAPC   C39 9746   4.391   3.103   3.508 -0.4268  0.2723  0.1661
   98SAPC   H9X 9747   4.362   3.206   3.537 -2.0863 -0.0887 -0.1095
   98SAPC   H9Y 9748   4.500   3.102   3.485 -0.4767  1.3877 -0.1579
   98SAPC  C310 9749   4.368   3.014   3.623 -0.6063 -0.0740 -0.2153
   98SAPC  H10X 9750   4.399   2.911   3.596 -0.7603  0.0352 -0.8208
   98SAPC  H10Y 9751   4.259   3.009   3.645 -0.5349 -1.3633 -0.0455
   98SAPC  C311 9752   4.444   3.057   3.746  0.0942 -0.0466  0.0322
   98SAPC  H11X 9753   4.453   3.167   3.753 -0.5339 -0.0119  0.2972
   98SAPC  H11Y 9754   4.549   3.022   3.730  0.1753 -0.1821  0.8489
   98SAPC  C312 9755   4.389   3.002   3.882  0.3125 -0.1750 -0.1856
   98SAPC  H12X 9756   4.390   2.892   3.897  0.5361 -0.1673 -0.1375
   98SAPC  H12Y 9757   4.282   3.029   3.899  0.2992  0.6548 -1.4625
   98SAPC  C313 9758   4.470   3.066   3.998 -0.4306 -0.4083  1.0001
   98SAPC  H13X 9759   4.458   3.176   3.991 -1.1393 -0.5306  0.1012
   98SAPC  H13Y 9760   4.578   3.042   3.985 -0.3116 -0.4969  2.0972
   98SAPC  C314 9761   4.420   3.015   4.133 -0.3018  0.0932  0.0638
   98SAPC  H14X 9762   4.446   2.907   4.135  0.6414  0.3166  1.4582
   98SAPC  H14Y 9763   4.310   3.014   4.150 -0.5601 -2.2109 -1.3290
   98SAPC  C315 9764   4.483   3.090   4.256 -0.0875 -0.5391  0.4505
   98SAPC  H15X 9765   4.593   3.081   4.250  0.1632  1.9550  0.1966
   98SAPC  H15Y 9766   4.454   3.034   4.347 -2.7733 -1.1537 -0.6717
   98SAPC  C316 9767   4.447   3.233   4.276 -0.4315 -0.6111 -0.0949
   98SAPC  H16X 9768   4.338   3.252   4.267 -0.4319 -0.0534  1.0167
   98SAPC  H16Y 9769   4.507   3.288   4.199 -0.4423  0.0520  0.3678
   98SAPC  C317 9770   4.479   3.289   4.414 -0.3201  0.0971 -0.0372
   98SAPC  H17X 9771   4.434   3.390   4.418  1.8318  1.4284 -3.8061
   98SAPC  H17Y 9772   4.590   3.295   4.416 -0.3294  0.0187  0.9444
   98SAPC  C318 9773   4.448   3.206   4.542 -0.4112  0.1079 -0.6410
   98SAPC  H18X 9774   4.340   3.187   4.562 -0.0894  1.5358  3.2273
   98SAPC  H18Y 9775   4.483   3.246   4.639 -0.0392  1.1909 -1.2104
   98SAPC  H18Z 9776   4.501   3.110   4.521 -0.3620  0.0648 -0.3277
   99SAPC     N 9777   2.440   6.519   2.052 -0.5565  0.2167 -0.0252
   99SAPC   C12 9778   2.572   6.613   2.077 -0.1961  0.1290 -0.0648
   99SAPC  H12A 9779   2.558   6.670   2.168 -1.2215  0.4194 -0.3963
   99SAPC  H12B 9780   2.571   6.677   1.990  1.7470  0.6674  0.2534
   99SAPC   C13 9781   2.439   6.460   1.910 -0.7902  0.3957  0.0775
   99SAPC  H13A 9782   2.515   6.384   1.905  0.4713  1.5522  1.0553
   99SAPC  H13B 9783   2.341   6.417   1.893 -0.4408 -0.1904 -0.4998
   99SAPC  H13C 9784   2.453   6.539   1.839 -0.2907 -1.2721 -1.7712
   99SAPC   C14 9785   2.440   6.419   2.155 -0.1395  0.4214  0.2453
   99SAPC  H14A 9786   2.366   6.343   2.136  0.0439  0.1947  0.4209
   99SAPC  H14B 9787   2.537   6.371   2.165 -0.8571 -1.0994  0.1878
   99SAPC  H14C 9788   2.425   6.466   2.251  0.3782  0.0286  0.5263
   99SAPC   C15 9789   2.319   6.598   2.064 -0.5011  0.2555  0.1775
   99SAPC  H15A 9790   2.325   6.656   2.155  1.5875  0.0746  0.1998
   99SAPC  H15B 9791   2.304   6.662   1.978 -1.4211  1.6675  1.3234
   99SAPC  H15C 9792   2.228   6.541   2.071  0.3872 -1.1464  0.5517
   99SAPC   C11 9793   2.719   6.553   2.064 -0.7884  1.0518  0.0934
   99SAPC  H11A 9794   2.798   6.631   2.051  1.3991 -0.8286  1.2505
   99SAPC  H11B 9795   2.721   6.488   1.973  1.0644  2.7831 -1.1863
   99SAPC     P 9796   2.905   6.427   2.200 -0.2622  0.1357 -0.2277
   99SAPC   O13 9797   2.904   6.290   2.149 -0.0806 -0.2765 -0.1381
   99SAPC   O14 9798   3.004   6.518   2.137 -0.0946  0.3310 -0.3704
   99SAPC   O12 9799   2.754   6.478   2.185  0.5382  0.0411 -0.0112
   99SAPC   O11 9800   2.917   6.430   2.362 -0.2955  0.6483  0.7076
   99SAPC    C1 9801   3.026   6.369   2.422 -0.2110 -0.4087 -0.2140
   99SAPC    HA 9802   3.041   6.261   2.402  0.3715 -0.2763 -0.5248
   99SAPC    HB 9803   3.120   6.417   2.388 -0.8191  0.3330 -0.8765
   99SAPC    C2 9804   3.021   6.415   2.573 -0.0866  0.2175 -0.3450
   99SAPC    HS 9805   3.117   6.389   2.622  0.1619  0.2836 -0.7876
   99SAPC   O21 9806   2.908   6.355   2.644  0.1731 -0.1313  0.1904
   99SAPC   C21 9807   2.893   6.226   2.653  0.4281 -0.0597 -0.2744
   99SAPC   O22 9808   2.983   6.149   2.622  0.2664  0.1761 -0.1192
   99SAPC   C22 9809   2.760   6.185   2.717 -0.2057  0.0110  0.1913
   99SAPC   H2R 9810   2.694   6.168   2.629 -0.6936  0.0766  0.5407
   99SAPC   H2S 9811   2.772   6.078   2.744 -4.2003 -0.9819 -1.2791
   99SAPC    C3 9812   3.005   6.567   2.589 -1.0055 -0.3120  0.0579
   99SAPC    HX 9813   2.907   6.592   2.542 -1.0505  0.6650  0.6698
   99SAPC    HY 9814   3.083   6.609   2.522 -0.2905 -0.3649  0.8474
   99SAPC   O31 9815   3.011   6.600   2.727 -0.1965 -0.2841  0.0837
   99SAPC   C31 9816   2.889   6.634   2.780 -0.3203  0.2819  0.8171
   99SAPC   O32 9817   2.787   6.641   2.714 -0.2096 -0.0417  0.1106
   99SAPC   C32 9818   2.881   6.664   2.926  0.2321 -0.1409  0.3853
   99SAPC   H2X 9819   2.947   6.751   2.947 -0.3053 -0.2965  3.1030
   99SAPC   H2Y 9820   2.931   6.584   2.985  0.8731 -0.1014 -0.0930
   99SAPC   C23 9821   2.710   6.270   2.832 -0.0257  0.2066 -0.4221
   99SAPC   H3R 9822   2.615   6.223   2.864 -0.4034  2.4454  2.1094
   99SAPC   H3S 9823   2.686   6.372   2.795 -0.1708 -0.1348 -1.2973
   99SAPC   C24 9824   2.788   6.269   2.964 -0.2653  0.7918  0.5144
   99SAPC   H4R 9825   2.728   6.334   3.031 -0.3901  0.2420  0.9431
   99SAPC   H4S 9826   2.888   6.317   2.957  0.9672 -1.4624  1.4729
   99SAPC   C25 9827   2.812   6.128   3.020 -0.0809 -0.3674 -0.5674
   99SAPC   H5R 9828   2.853   6.060   2.945 -0.1870 -0.5371 -0.4714
   99SAPC   C26 9829   2.747   6.079   3.129  0.1513  0.0087  0.6172
   99SAPC   H6R 9830   2.768   5.976   3.160  0.7801 -0.5557 -1.5167
   99SAPC   C27 9831   2.651   6.156   3.213  0.0528 -0.0263  0.4332
   99SAPC   H7R 9832   2.578   6.207   3.146  0.6557 -1.3765 -1.3397
   99SAPC   H7S 9833   2.703   6.239   3.265 -3.3969  0.5645  3.3297
   99SAPC   C28 9834   2.584   6.082   3.325  0.4707  0.4223  0.0626
   99SAPC   H8R 9835   2.486   6.042   3.294  1.4502 -0.7905 -1.6734
   99SAPC   C29 9836   2.635   6.052   3.444 -0.2612  0.1442 -0.1345
   99SAPC   H9R 9837   2.577   5.991   3.515 -0.4483  1.3597  0.7949
   99SAPC  C210 9838   2.768   6.094   3.501 -0.0533 -0.0162  0.7581
   99SAPC  H10R 9839   2.746   6.186   3.561 -0.7622 -0.3907  1.0861
   99SAPC  H10S 9840   2.814   6.131   3.407 -0.5433 -2.6868 -0.6184
   99SAPC  C211 9841   2.855   5.993   3.565  0.1854 -0.1700  0.2145
   99SAPC  H11R 9842   2.879   5.900   3.511  3.8905  0.3306  0.7556
   99SAPC  C212 9843   2.906   6.003   3.690 -0.7466  0.1874 -0.1134
   99SAPC  H12R 9844   2.965   5.919   3.731 -1.4548  0.1837  0.9361
   99SAPC  C213 9845   2.910   6.129   3.776  0.1453  0.3582  0.5970
   99SAPC  H13R 9846   2.844   6.205   3.729 -0.8383 -0.1401  1.1355
   99SAPC  H13S 9847   3.014   6.165   3.764  0.9959 -2.3346 -1.1443
   99SAPC  C214 9848   2.874   6.118   3.916 -0.5515  0.5744 -0.4777
   99SAPC  H14R 9849   2.771   6.104   3.952  0.1614 -1.2575  1.0008
   99SAPC  C215 9850   2.956   6.093   4.021 -0.1355 -0.4297  1.4296
   99SAPC  H15R 9851   2.920   6.088   4.125  1.5892  0.9456  2.1408
   99SAPC  C216 9852   3.104   6.069   4.015  1.0014 -0.1354  0.3336
   99SAPC  H16R 9853   3.145   6.113   3.921  0.7660  1.3570  0.8969
   99SAPC  H16S 9854   3.120   5.961   4.030  0.2206 -0.7030 -2.4287
   99SAPC  C217 9855   3.166   6.160   4.122 -0.3042  1.6452  0.6364
   99SAPC  H17R 9856   3.273   6.133   4.125 -0.3350  0.9076 -2.1121
   99SAPC  H17S 9857   3.114   6.149   4.220  0.2115  1.0579  0.8537
   99SAPC  C218 9858   3.161   6.306   4.091 -0.1245 -1.0644  0.0790
   99SAPC  H18R 9859   3.061   6.351   4.072  0.4553  0.1874 -0.0706
   99SAPC  H18S 9860   3.220   6.317   3.997  1.6354  3.9721  1.4576
   99SAPC  C219 9861   3.227   6.400   4.193  0.2106  0.4857 -0.0929
   99SAPC  H19R 9862   3.221   6.503   4.150  0.0812  0.2415 -0.6632
   99SAPC  H19S 9863   3.337   6.385   4.200  0.1701  0.2125 -0.0402
   99SAPC  C220 9864   3.156   6.393   4.328 -0.2972  0.1228 -0.0366
   99SAPC  H20R 9865   3.167   6.289   4.365  2.3268  0.0002 -0.9473
   99SAPC  H20S 9866   3.047   6.412   4.315  0.0363  1.4170 -1.1539
   99SAPC  H20T 9867   3.206   6.463   4.398 -0.6626 -0.5708  0.9486
   99SAPC   C33 9868   2.734   6.696   2.962  0.3917  0.0314  0.6099
   99SAPC   H3X 9869   2.676   6.605   2.933  1.3186 -0.4132  0.1138
   99SAPC   H3Y 9870   2.701   6.785   2.903 -1.8923  0.2285  2.0599
   99SAPC   C34 9871   2.703   6.721   3.111  0.6856  0.6166 -0.3279
   99SAPC   H4X 9872   2.594   6.743   3.105  0.4071 -0.4368  0.5150
   99SAPC   H4Y 9873   2.743   6.815   3.155 -2.0050  2.1129 -0.8828
   99SAPC   C35 9874   2.711   6.594   3.204 -0.4353 -0.3009  0.6499
   99SAPC   H5X 9875   2.817   6.561   3.211 -0.9199 -2.5546 -1.1867
   99SAPC   H5Y 9876   2.668   6.503   3.157  2.8489 -0.9253 -1.5845
   99SAPC   C36 9877   2.666   6.623   3.345 -0.2821  0.3154 -0.0541
   99SAPC   H6X 9878   2.556   6.607   3.335 -0.5359  1.3827  0.8308
   99SAPC   H6Y 9879   2.695   6.726   3.373 -0.1805  0.3442 -0.2623
   99SAPC   C37 9880   2.724   6.525   3.450  0.1867  0.6513 -0.9420
   99SAPC   H7X 9881   2.835   6.530   3.453  0.3194 -1.5686 -0.4035
   99SAPC   H7Y 9882   2.697   6.420   3.424 -0.6472  0.6534 -0.1485
   99SAPC   C38 9883   2.666   6.562   3.587 -0.0738  0.1209  0.1921
   99SAPC   H8X 9884   2.556   6.552   3.579 -0.5104  3.4959  0.4527
   99SAPC   H8Y 9885   2.674   6.673   3.596 -0.3853  0.0673  1.2811
   99SAPC   C39 9886   2.702   6.483   3.715 -0.0273  0.2441 -0.1521
   99SAPC   H9X 9887   2.813   6.482   3.721  0.0541  1.6144 -0.9771
   99SAPC   H9Y 9888   2.660   6.380   3.716 -1.2250  0.7084  1.6234
   99SAPC  C310 9889   2.652   6.546   3.848 -0.5531 -0.1955  0.6220
   99SAPC  H10X 9890   2.543   6.542   3.830 -0.7502  0.7665  1.5313
   99SAPC  H10Y 9891   2.697   6.646   3.863 -2.1606  0.6080  0.1971
   99SAPC  C311 9892   2.695   6.450   3.955 -0.1945  0.6095  0.0281
   99SAPC  H11X 9893   2.805   6.442   3.969 -0.1286  2.0463  0.4658
   99SAPC  H11Y 9894   2.665   6.347   3.927  0.2225  0.2777  0.7883
   99SAPC  C312 9895   2.635   6.490   4.091 -0.0215 -0.8320 -0.3141
   99SAPC  H12X 9896   2.528   6.506   4.065  0.3500 -1.4854 -2.4806
   99SAPC  H12Y 9897   2.675   6.588   4.125 -0.3993 -1.0349  0.7550
   99SAPC  C313 9898   2.634   6.380   4.203 -0.1838  0.0731  0.4254
   99SAPC  H13X 9899   2.605   6.280   4.163  0.4148  0.4682 -1.0675
   99SAPC  H13Y 9900   2.567   6.409   4.287 -1.8646  0.4665 -1.0048
   99SAPC  C314 9901   2.783   6.370   4.246 -0.4736  0.0477  0.3716
   99SAPC  H14X 9902   2.843   6.462   4.258 -2.6018  1.7304 -1.1101
   99SAPC  H14Y 9903   2.844   6.312   4.173  0.9686  0.7668  0.9681
   99SAPC  C315 9904   2.799   6.303   4.387  0.9125 -0.3987 -0.8752
   99SAPC  H15X 9905   2.898   6.252   4.396  0.4017 -1.4514 -1.0647
   99SAPC  H15Y 9906   2.721   6.230   4.415 -0.8013  2.2789  1.9772
   99SAPC  C316 9907   2.813   6.405   4.497  0.2658 -0.6246  0.3354
   99SAPC  H16X 9908   2.712   6.447   4.512  1.2332  1.7048  0.7014
   99SAPC  H16Y 9909   2.886   6.482   4.464  2.4051 -2.6932 -0.0334
   99SAPC  C317 9910   2.877   6.343   4.629  1.3429  0.5736 -0.1952
   99SAPC  H17X 9911   2.867   6.413   4.715 -2.7969  0.5253 -0.4459
   99SAPC  H17Y 9912   2.981   6.308   4.608  0.8105 -1.3621  0.1853
   99SAPC  C318 9913   2.787   6.219   4.674  0.0613  0.1588 -0.3238
   99SAPC  H18X 9914   2.680   6.244   4.689  0.4331  1.4557  0.3165
   99SAPC  H18Y 9915   2.826   6.169   4.765 -0.3677 -0.9084 -0.7132
   99SAPC  H18Z 9916   2.790   6.136   4.600  3.1450 -1.5822  1.5438
  100SAPC     N 9917   6.351   3.727   2.404  0.0037 -0.3961 -0.7270
  100SAPC   C12 9918   6.273   3.791   2.521  0.3023 -0.5977 -0.5104
  100SAPC  H12A 9919   6.284   3.726   2.606 -0.8558  0.8406  0.8103
  100SAPC  H12B 9920   6.166   3.790   2.502 -0.7613  3.7338  3.5212
  100SAPC   C13 9921   6.313   3.785   2.273  0.2007  0.9111  0.1591
  100SAPC  H13A 9922   6.352   3.885   2.270 -1.3875  1.5562  0.1210
  100SAPC  H13B 9923   6.358   3.741   2.185 -0.1286  1.2759 -0.1922
  100SAPC  H13C 9924   6.206   3.780   2.258 -0.0465  1.0532  1.6884
  100SAPC   C14 9925   6.496   3.741   2.429  0.2959  0.2339 -0.6947
  100SAPC  H14A 9926   6.531   3.843   2.423 -2.5851  1.2790 -1.1094
  100SAPC  H14B 9927   6.525   3.707   2.527  2.8338  4.5572  0.3077
  100SAPC  H14C 9928   6.550   3.686   2.353 -1.1797 -1.0408 -0.8763
  100SAPC   C15 9929   6.314   3.585   2.389  0.7040 -0.6397  0.3846
  100SAPC  H15A 9930   6.340   3.528   2.477  0.0931 -0.6643  0.5590
  100SAPC  H15B 9931   6.207   3.574   2.375  0.3892  4.2045 -3.6587
  100SAPC  H15C 9932   6.359   3.550   2.298 -0.6473 -1.4860  0.0083
  100SAPC   C11 9933   6.301   3.942   2.559 -0.2377 -0.5255  0.5260
  100SAPC  H11A 9934   6.411   3.954   2.568 -0.4614  0.5420  2.5536
  100SAPC  H11B 9935   6.258   3.967   2.659 -0.8124  1.0278 -0.0857
  100SAPC     P 9936   6.091   4.051   2.452  0.3145 -0.0719 -0.3980
  100SAPC   O13 9937   6.063   4.160   2.356 -0.4304  0.2019  0.3629
  100SAPC   O14 9938   6.023   3.918   2.423  0.2041  0.2578  0.2852
  100SAPC   O12 9939   6.250   4.035   2.461  0.4227 -0.2863  0.3385
  100SAPC   O11 9940   6.050   4.093   2.597  0.3787 -0.7484 -0.2411
  100SAPC    C1 9941   6.062   4.224   2.654  0.1985  0.0570  0.1397
  100SAPC    HA 9942   6.070   4.304   2.577  0.7404 -0.2543 -0.1323
  100SAPC    HB 9943   5.972   4.249   2.716  0.4000  0.6349  0.2099
  100SAPC    C2 9944   6.179   4.224   2.752 -0.4114  0.1326  0.3053
  100SAPC    HS 9945   6.266   4.197   2.688  0.0343  1.3108  0.3872
  100SAPC   O21 9946   6.148   4.134   2.856 -0.1154  0.1260 -0.3876
  100SAPC   C21 9947   6.252   4.101   2.922 -0.3793  0.0072 -0.0038
  100SAPC   O22 9948   6.371   4.106   2.894  0.1896 -0.0134 -0.1897
  100SAPC   C22 9949   6.196   4.025   3.044 -0.3746 -0.3643  0.6166
  100SAPC   H2R 9950   6.147   4.101   3.109  0.8039  2.8801 -1.9939
  100SAPC   H2S 9951   6.122   3.954   3.002  1.6696 -2.0850 -0.2441
  100SAPC    C3 9952   6.200   4.371   2.801 -0.6319  0.0920  0.7864
  100SAPC    HX 9953   6.182   4.439   2.714  1.6218 -1.0895 -0.7038
  100SAPC    HY 9954   6.308   4.376   2.825 -0.6791  1.6507  0.8035
  100SAPC   O31 9955   6.124   4.408   2.914 -0.5354  0.7122  0.0617
  100SAPC   C31 9956   6.007   4.468   2.902 -0.1781  0.0672 -0.8768
  100SAPC   O32 9957   5.955   4.508   2.799  0.0674 -0.3745  0.8593
  100SAPC   C32 9958   5.945   4.485   3.048 -0.0870 -0.2687 -0.6514
  100SAPC   H2X 9959   6.016   4.449   3.125  1.7658 -0.4692 -2.3750
  100SAPC   H2Y 9960   5.874   4.401   3.055  0.2711 -0.5065  0.1991
  100SAPC   C23 9961   6.297   3.946   3.130 -0.2590  0.2468  0.2794
  100SAPC   H3R 9962   6.348   4.026   3.188 -0.5669  1.6825 -1.3424
  100SAPC   H3S 9963   6.371   3.899   3.061  0.8360 -0.3483  1.8016
  100SAPC   C24 9964   6.227   3.844   3.224 -0.4185 -0.0532 -0.4553
  100SAPC   H4R 9965   6.156   3.785   3.163  1.3073 -0.4695 -2.1434
  100SAPC   H4S 9966   6.176   3.916   3.292  0.4356 -0.0811  0.2429
  100SAPC   C25 9967   6.315   3.759   3.313 -0.3475  0.4457 -0.3692
  100SAPC   H5R 9968   6.351   3.664   3.270 -0.4530 -0.3550  1.2574
  100SAPC   C26 9969   6.342   3.774   3.444  0.0263 -0.0978 -0.5878
  100SAPC   H6R 9970   6.391   3.694   3.501  0.7868  0.3482 -0.5952
  100SAPC   C27 9971   6.297   3.895   3.532  0.3040  0.0408 -0.6859
  100SAPC   H7R 9972   6.207   3.875   3.593  0.9525  2.0547  1.0865
  100SAPC   H7S 9973   6.264   3.979   3.466 -3.2218  0.4837  1.4059
  100SAPC   C28 9974   6.415   3.936   3.617 -0.5314  0.1425 -0.0702
  100SAPC   H8R 9975   6.468   4.017   3.564  0.6138  0.4055  1.4017
  100SAPC   C29 9976   6.457   3.893   3.738 -0.3101 -0.2346  0.4280
  100SAPC   H9R 9977   6.544   3.937   3.790 -2.0968  2.8976  0.9888
  100SAPC  C210 9978   6.378   3.784   3.805  0.8321 -0.6620  0.2572
  100SAPC  H10R 9979   6.449   3.716   3.858 -1.0312 -1.6096  1.6186
  100SAPC  H10S 9980   6.325   3.719   3.732 -2.1015  1.4897  0.3231
  100SAPC  C211 9981   6.273   3.853   3.897 -0.6076 -0.1910  0.4019
  100SAPC  H11R 9982   6.202   3.912   3.837  0.0911  0.3403  0.0917
  100SAPC  C212 9983   6.268   3.841   4.034  0.2073 -0.8466 -0.4113
  100SAPC  H12R 9984   6.188   3.887   4.094  0.6978 -2.3833  1.5518
  100SAPC  C213 9985   6.353   3.761   4.124  0.5690 -0.1557  0.8773
  100SAPC  H13R 9986   6.434   3.722   4.058 -1.7937 -0.5146 -2.0437
  100SAPC  H13S 9987   6.300   3.676   4.172  0.0056  0.0306  0.5974
  100SAPC  C214 9988   6.406   3.859   4.222  0.4438  0.2934 -0.1789
  100SAPC  H14R 9989   6.455   3.948   4.180 -2.5543  1.9163 -0.5454
  100SAPC  C215 9990   6.374   3.859   4.352  0.0182 -0.0230  0.0490
  100SAPC  H15R 9991   6.401   3.947   4.411  0.3957 -0.5010  0.5985
  100SAPC  C216 9992   6.291   3.756   4.426  0.5419 -0.1979  0.9679
  100SAPC  H16R 9993   6.215   3.715   4.355 -0.7413  2.5644  0.5928
  100SAPC  H16S 9994   6.229   3.810   4.501 -0.5774 -1.5046  1.0320
  100SAPC  C217 9995   6.365   3.640   4.491  0.6235  0.4581 -0.8228
  100SAPC  H17R 9996   6.424   3.684   4.575 -1.1020  1.4437 -0.0663
  100SAPC  H17S 9997   6.436   3.591   4.422  0.7735 -1.3703  0.5585
  100SAPC  C218 9998   6.275   3.522   4.550 -0.3570  0.2078  1.2864
  100SAPC  H18R 9999   6.230   3.556   4.646  0.9008  2.0135  1.2912
  100SAPC  H18S10000   6.350   3.441   4.562 -0.1460  0.2802  0.4836
  100SAPC  C21910001   6.185   3.461   4.451  0.2159  1.0729  0.7691
  100SAPC  H19R10002   6.247   3.431   4.364 -1.8845  0.1956 -0.5217
  100SAPC  H19S10003   6.107   3.532   4.416 -0.0149  1.3827  1.8531
  100SAPC  C22010004   6.125   3.337   4.514 -0.3880  0.3018  0.2096
  100SAPC  H20R10005   6.123   3.250   4.445  0.6157 -0.0504  0.6052
  100SAPC  H20S10006   6.020   3.366   4.538  0.1975  1.2721  1.7805
  100SAPC  H20T10007   6.175   3.294   4.604 -2.3341 -0.7697  0.8443
  100SAPC   C3310008   5.888   4.621   3.084 -0.3246  0.3282 -0.4601
  100SAPC   H3X10009   5.829   4.644   2.993  0.0645 -0.9247 -1.0572
  100SAPC   H3Y10010   5.971   4.695   3.083  3.4223 -3.4676 -0.8471
  100SAPC   C3410011   5.800   4.617   3.204 -0.0415  0.4161 -0.3425
  100SAPC   H4X10012   5.735   4.528   3.195  0.2131  0.1240  0.6760
  100SAPC   H4Y10013   5.743   4.712   3.206  1.3803  1.3254  2.6820
  100SAPC   C3510014   5.875   4.607   3.336  0.6947  0.1872  0.0014
  100SAPC   H5X10015   5.933   4.699   3.355  0.5981  0.7130 -1.9461
  100SAPC   H5Y10016   5.952   4.527   3.333 -0.3703 -0.8488 -0.6256
  100SAPC   C3610017   5.785   4.555   3.449  0.6510 -0.5788 -0.1618
  100SAPC   H6X10018   5.746   4.455   3.419 -1.0444  0.8583 -3.1787
  100SAPC   H6Y10019   5.693   4.617   3.458  1.3110  0.7244 -1.8964
  100SAPC   C3710020   5.864   4.554   3.587  0.7398  0.8474  0.0972
  100SAPC   H7X10021   5.871   4.658   3.626  1.3913  1.0890 -0.6394
  100SAPC   H7Y10022   5.966   4.517   3.565 -0.5906 -2.4929 -1.1356
  100SAPC   C3810023   5.793   4.463   3.691 -0.1367 -1.2122 -0.2651
  100SAPC   H8X10024   5.777   4.365   3.642 -0.4788 -0.4889 -1.6499
  100SAPC   H8Y10025   5.692   4.509   3.693  0.9488  1.3770 -0.5851
  100SAPC   C3910026   5.842   4.461   3.832 -0.5999 -0.4134 -0.0849
  100SAPC   H9X10027   5.948   4.427   3.830 -0.4224  0.0664  0.6131
  100SAPC   H9Y10028   5.784   4.381   3.883 -2.8454  2.1643  1.6558
  100SAPC  C31010029   5.811   4.580   3.923  0.5491 -0.1526 -0.0855
  100SAPC  H10X10030   5.702   4.580   3.946  0.3553  0.9824 -0.9290
  100SAPC  H10Y10031   5.832   4.667   3.857 -0.9539 -1.1979 -2.0555
  100SAPC  C31110032   5.875   4.604   4.063 -0.2992  0.4820 -0.5008
  100SAPC  H11X10033   5.853   4.710   4.090  1.3308  0.6069  0.4776
  100SAPC  H11Y10034   5.983   4.581   4.050 -0.7265 -0.3623 -3.1917
  100SAPC  C31210035   5.808   4.531   4.179 -0.3071  0.0818 -0.5362
  100SAPC  H12X10036   5.823   4.421   4.173 -0.7660  0.1074 -2.8803
  100SAPC  H12Y10037   5.700   4.559   4.177 -0.1299  0.8743  0.1088
  100SAPC  C31310038   5.865   4.571   4.320 -0.6498  0.0775  0.4681
  100SAPC  H13X10039   5.870   4.682   4.328  2.6087  0.2036 -1.3972
  100SAPC  H13Y10040   5.972   4.542   4.327 -0.3734  0.7459 -0.6549
  100SAPC  C31410041   5.780   4.513   4.434  0.2402 -0.3525 -0.8610
  100SAPC  H14X10042   5.765   4.404   4.414 -3.3356 -0.1955  0.2799
  100SAPC  H14Y10043   5.674   4.542   4.419  0.6460  1.8375  0.1850
  100SAPC  C31510044   5.827   4.545   4.579  0.3966  0.6121  0.0381
  100SAPC  H15X10045   5.936   4.525   4.587 -0.2578 -3.3313  1.9197
  100SAPC  H15Y10046   5.788   4.469   4.650  2.9274  0.0387  0.9251
  100SAPC  C31610047   5.788   4.681   4.630 -0.0407 -0.1805  0.2317
  100SAPC  H16X10048   5.688   4.722   4.602  0.5678  0.6060 -0.9123
  100SAPC  H16Y10049   5.859   4.757   4.590  0.9103 -0.7914  0.7402
  100SAPC  C31710050   5.807   4.698   4.781 -0.4960 -0.1267 -0.0285
  100SAPC  H17X10051   5.914   4.680   4.808 -0.8286 -1.0588  0.7273
  100SAPC  H17Y10052   5.739   4.620   4.822 -1.7900  1.4677  0.9588
  100SAPC  C31810053   5.763   4.827   4.845 -0.4407 -0.1345  0.0951
  100SAPC  H18X10054   5.656   4.833   4.815 -0.8441 -0.7837  1.3277
  100SAPC  H18Y10055   5.824   4.914   4.815 -2.1195  0.8194 -0.6544
  100SAPC  H18Z10056   5.760   4.824   4.956  1.9526 -1.8416  0.2070
  101OSM      N10057   2.017   1.652   7.012 -0.1097  0.6812 -0.3782
  101OSM    C1510058   1.865   1.675   7.003 -0.4370 -0.4774 -0.1349
  101OSM   H15A10059   1.811   1.587   7.036 -0.2629 -0.3786  0.4285
  101OSM   H15B10060   1.829   1.702   6.905 -1.8405 -1.1727  0.1645
  101OSM   H15C10061   1.833   1.764   7.055  0.5507  1.3329 -2.4423
  101OSM    C1410062   2.093   1.780   6.975 -0.2062  0.0099 -0.0125
  101OSM   H14A10063   2.199   1.763   6.980  0.5585  4.1437  0.8021
  101OSM   H14B10064   2.073   1.862   7.043  2.2880  1.2171 -0.6315
  101OSM   H14C10065   2.058   1.807   6.877  0.1564  1.6875  0.3000
  101OSM    C1310066   2.035   1.637   7.156 -0.3328  0.6104  0.1128
  101OSM   H13A10067   2.141   1.628   7.174 -0.0116 -0.7465 -2.1653
  101OSM   H13B10068   1.992   1.543   7.185  0.2857  0.0110 -0.8795
  101OSM   H13C10069   1.990   1.712   7.220 -1.2741 -0.6745  0.9928
  101OSM    C1210070   2.056   1.527   6.937 -0.5688  0.0655  0.4998
  101OSM   H12A10071   2.013   1.552   6.841  1.5815  3.3113  0.2411
  101OSM   H12B10072   2.009   1.442   6.984 -0.7024 -0.4431 -0.5252
  101OSM    C1110073   2.211   1.501   6.922  0.3560 -0.2140  0.2088
  101OSM   H11A10074   2.217   1.411   6.858 -1.7388  0.0304 -0.4186
  101OSM   H11B10075   2.261   1.492   7.021 -0.3601  0.5588  0.6519
  101OSM      P10076   2.423   1.638   6.849  0.3787  0.2390 -0.5389
  101OSM    O1310077   2.435   1.767   6.784 -0.0210  0.5405 -0.2651
  101OSM    O1410078   2.481   1.613   6.984 -0.1367 -0.7253 -0.0147
  101OSM    O1110079   2.479   1.521   6.751  0.1455  0.1222 -0.2739
  101OSM    O1210080   2.267   1.609   6.843 -0.3346  0.5415 -0.6434
  101OSM    C1S10081   2.399   1.472   6.650 -0.5532 -0.6490  0.0776
  101OSM    H1S10082   2.315   1.536   6.615 -1.5369 -1.7904  0.2793
  101OSM    H1T10083   2.344   1.382   6.686  1.7640 -1.4984  1.7456
  101OSM     NF10084   2.411   1.425   6.408 -0.5054 -0.2493 -0.1237
  101OSM    HNF10085   2.363   1.340   6.390  1.2034 -0.9485 -1.6599
  101OSM    C2S10086   2.488   1.431   6.527 -0.6257  0.1627 -0.6620
  101OSM    H2S10087   2.568   1.505   6.506  1.6103 -2.2047 -1.1334
  101OSM    C3S10088   2.562   1.294   6.554 -0.3283  0.1732  0.1861
  101OSM    H3S10089   2.478   1.221   6.545  0.2823 -0.3857 -1.2872
  101OSM     O310090   2.599   1.287   6.690 -0.1071 -0.0059 -0.1988
  101OSM    HO310091   2.562   1.369   6.726 -1.1479 -0.1124 -0.9861
  101OSM    C4S10092   2.668   1.259   6.452  0.1225 -0.2520  0.3490
  101OSM    H4S10093   2.624   1.216   6.361  1.4565  0.3007 -0.5844
  101OSM    C5S10094   2.785   1.321   6.446  0.0483 -0.5508 -0.0229
  101OSM    H5S10095   2.820   1.383   6.530 -0.8305  0.4649 -0.3843
  101OSM    C6S10096   2.892   1.291   6.344 -0.7961  0.7508 -1.2675
  101OSM    H6S10097   2.888   1.181   6.326  0.7013  0.4639 -0.0221
  101OSM    H6T10098   2.995   1.318   6.375 -0.9257  0.7151 -0.8049
  101OSM    C7S10099   2.870   1.363   6.208 -0.2754  0.8708 -0.1115
  101OSM    H7S10100   2.951   1.321   6.143 -0.2002  1.3705 -0.3431
  101OSM    H7T10101   2.875   1.471   6.233 -0.4776  0.9420 -0.3647
  101OSM    C8S10102   2.744   1.330   6.127  0.1521  0.8723 -0.2386
  101OSM    H8S10103   2.653   1.350   6.188  1.7160  2.4463  1.6761
  101OSM    H8T10104   2.747   1.221   6.107  0.3534  0.9200 -0.4678
  101OSM    C9S10105   2.751   1.414   5.995 -0.8345  0.8154  0.8372
  101OSM    H9S10106   2.858   1.426   5.968 -1.3748  2.4716 -0.7475
  101OSM    H9T10107   2.716   1.518   6.016 -0.3703  0.9495  0.9732
  101OSM   C10S10108   2.668   1.370   5.873  0.6833  0.5551  0.3264
  101OSM   H10S10109   2.564   1.343   5.902  0.2745  0.0630 -1.4793
  101OSM   H10T10110   2.709   1.273   5.838  0.2167  0.3675  0.2961
  101OSM   C11S10111   2.664   1.467   5.759  0.5329 -0.0950  0.2394
  101OSM   H11S10112   2.771   1.475   5.729  0.6826 -1.4506  0.3661
  101OSM   H11T10113   2.614   1.563   5.785 -1.2345 -0.1381 -2.6069
  101OSM   C12S10114   2.591   1.404   5.635 -0.8606  0.0066  0.0965
  101OSM   H12S10115   2.483   1.379   5.637 -0.4670 -1.9627 -1.0471
  101OSM   H12T10116   2.650   1.313   5.610  0.0188  0.9430 -1.4433
  101OSM   C13S10117   2.601   1.501   5.519 -0.1624 -0.8344  0.1634
  101OSM   H13S10118   2.704   1.539   5.501 -0.9468  1.3071 -0.1006
  101OSM   H13T10119   2.549   1.597   5.538 -0.4785 -1.2382  1.4782
  101OSM   C14S10120   2.561   1.440   5.387  0.4184  0.3834  0.1014
  101OSM   H14S10121   2.463   1.388   5.390  1.2073 -1.1611 -0.0565
  101OSM   H14T10122   2.636   1.366   5.353  1.1231  0.0086  2.2838
  101OSM   C15S10123   2.549   1.552   5.274 -0.2922  0.2697 -0.0609
  101OSM   H15S10124   2.647   1.604   5.270 -0.5635  0.7135 -1.6801
  101OSM   H15T10125   2.464   1.617   5.304 -0.0019 -0.5765  2.9306
  101OSM   C16S10126   2.530   1.493   5.137  0.0192  0.6360  0.5778
  101OSM   H16S10127   2.424   1.463   5.132  0.2470 -0.0726 -0.4717
  101OSM   H16T10128   2.595   1.402   5.133 -1.0679 -0.1650  0.9168
  101OSM   C17S10129   2.574   1.595   5.030 -0.1964  0.9496  0.0409
  101OSM   H17S10130   2.681   1.617   5.045  0.0151 -0.6160  1.1095
  101OSM   H17T10131   2.519   1.691   5.043  1.1169  2.4301 -3.8675
  101OSM   C18S10132   2.548   1.549   4.886 -0.5088  0.4288  0.4036
  101OSM   H18S10133   2.571   1.629   4.812 -2.4984  3.0130  2.3918
  101OSM   H18T10134   2.439   1.529   4.873 -0.6393  1.2337  0.2016
  101OSM   H18U10135   2.606   1.456   4.868  1.2131  1.4702  0.3604
  101OSM    C1F10136   2.380   1.535   6.336  1.3896  0.3535 -0.0806
  101OSM     OF10137   2.422   1.641   6.374  0.1234 -0.4981  0.1597
  101OSM    C2F10138   2.284   1.522   6.218 -0.1023  0.1403  0.1910
  101OSM    H2F10139   2.217   1.607   6.240  0.9706  0.4826  2.4014
  101OSM    H2G10140   2.227   1.427   6.219  1.4746 -0.9359 -1.9886
  101OSM    C3F10141   2.345   1.541   6.073  0.7901  0.0221 -0.4555
  101OSM    H3F10142   2.397   1.448   6.041  3.2969  0.8867  0.8202
  101OSM    H3G10143   2.421   1.621   6.061  1.1994  0.1970  2.5271
  101OSM    C4F10144   2.236   1.564   5.965 -0.1404  0.1898 -0.9510
  101OSM    H4F10145   2.171   1.646   6.002 -0.2620 -0.4509  0.3191
  101OSM    H4G10146   2.170   1.477   5.984  0.0779  0.3214  0.4940
  101OSM    C5F10147   2.290   1.578   5.826  0.1119 -0.1117  0.2624
  101OSM    H5F10148   2.334   1.478   5.810 -1.7419 -0.7766 -1.1086
  101OSM    H5G10149   2.360   1.664   5.829 -0.1693  0.1196  0.2529
  101OSM    C6F10150   2.174   1.595   5.727 -0.5461  0.3898  0.0587
  101OSM    H6F10151   2.107   1.680   5.752  1.0571  1.4834  0.7891
  101OSM    H6G10152   2.124   1.500   5.753 -1.1329  0.6006 -0.2856
  101OSM    C7F10153   2.219   1.611   5.578  0.0713 -0.2738 -0.5618
  101OSM    H7F10154   2.286   1.534   5.535  0.1105 -0.6213  0.1048
  101OSM    H7G10155   2.277   1.705   5.595  1.9582 -1.4342 -0.3655
  101OSM    C8F10156   2.104   1.639   5.479  0.0360 -0.0246 -0.0777
  101OSM    H8F10157   2.039   1.721   5.519  1.1084  1.7717 -1.8642
  101OSM    H8G10158   2.047   1.544   5.478 -1.4008  0.7937  0.0944
  101OSM    C9F10159   2.152   1.682   5.337  0.6286  1.1213 -0.3350
  101OSM    H9F10160   2.192   1.783   5.322  1.5577  0.7622 -0.3192
  101OSM   C10F10161   2.155   1.596   5.231  0.3886 -0.3185  0.3059
  101OSM   H10F10162   2.197   1.639   5.139 -0.0685  0.9866  0.6922
  101OSM   C11F10163   2.113   1.458   5.221  0.1962  0.2989  0.3172
  101OSM   H11F10164   2.052   1.430   5.310  1.3314  4.0344  2.4574
  101OSM   H11G10165   2.207   1.399   5.226  1.8466  2.8523  0.7770
  101OSM   C12F10166   2.024   1.415   5.095  0.6510  0.0386 -0.2482
  101OSM   H12F10167   1.927   1.462   5.119  0.1336 -0.8147 -0.6080
  101OSM   H12G10168   2.018   1.304   5.095 -0.7583  0.0891  0.7542
  101OSM   C13F10169   2.073   1.456   4.957 -0.3725  0.1396  0.2666
  101OSM   H13F10170   2.173   1.409   4.947 -0.4133  0.5868 -3.4306
  101OSM   H13G10171   2.090   1.566   4.954 -0.0023  0.0799  0.0980
  101OSM   C14F10172   1.983   1.391   4.849  0.4187  0.3963  0.1977
  101OSM   H14F10173   1.884   1.440   4.857  0.2136  0.0020  0.1153
  101OSM   H14G10174   1.965   1.282   4.863 -0.5363  0.7141  1.6407
  101OSM   C15F10175   2.053   1.413   4.720  0.2084 -0.0208  0.0848
  101OSM   H15F10176   2.078   1.520   4.700  0.4692 -0.5619 -3.0056
  101OSM   H15G10177   1.973   1.385   4.648  0.5571 -1.9259  0.4092
  101OSM   C16F10178   2.178   1.332   4.697  0.0029  0.5748 -0.7611
  101OSM   H16F10179   2.159   1.224   4.713 -0.5726  0.6623 -0.8175
  101OSM   H16G10180   2.248   1.356   4.779 -0.8849 -2.1571  0.9064
  101OSM   C17F10181   2.222   1.345   4.552  0.5610  0.1233  0.5909
  101OSM   H17F10182   2.131   1.322   4.493  0.4095 -2.5489  1.7144
  101OSM   H17G10183   2.293   1.264   4.525 -1.3915 -1.6154  0.4668
  101OSM   C18F10184   2.296   1.475   4.517  0.4922  0.0589 -0.6808
  101OSM   H18F10185   2.214   1.551   4.516  0.4536  0.0182 -0.5577
  101OSM   H18G10186   2.339   1.463   4.415  3.4529 -0.7618  0.5782
  101OSM   H18H10187   2.376   1.499   4.590 -1.5983  0.6228  1.5473
  102OSM      N10188   2.872   2.745   6.690 -0.4281 -0.2836  0.0334
  102OSM    C1510189   2.780   2.803   6.582  0.4406  0.6325  0.0032
  102OSM   H15A10190   2.801   2.755   6.488  1.9058  1.0934  0.0744
  102OSM   H15B10191   2.786   2.911   6.573 -0.5230  0.7324  0.4118
  102OSM   H15C10192   2.680   2.778   6.614  0.5375 -0.2847 -0.3799
  102OSM    C1410193   3.008   2.777   6.658 -0.2356  0.4136 -0.3016
  102OSM   H14A10194   3.029   2.755   6.554  2.7432  0.9180  0.0925
  102OSM   H14B10195   3.080   2.737   6.728 -0.0396  1.3494  0.0490
  102OSM   H14C10196   3.026   2.883   6.668  2.1739 -0.0146  0.6522
  102OSM    C1310197   2.831   2.816   6.814 -0.2215 -0.5818  0.2910
  102OSM   H13A10198   2.808   2.919   6.792 -1.5500 -1.0514 -0.6431
  102OSM   H13B10199   2.898   2.810   6.899  1.1018  2.2784 -0.4329
  102OSM   H13C10200   2.733   2.785   6.847 -1.3550  0.5278 -1.8236
  102OSM    C1210201   2.855   2.591   6.695 -0.6559  0.2681 -0.1159
  102OSM   H12A10202   2.755   2.573   6.733 -1.1118 -1.3774 -1.9715
  102OSM   H12B10203   2.930   2.555   6.764  1.0403  1.2418 -1.3928
  102OSM    C1110204   2.869   2.511   6.561  0.0350 -0.1022 -0.2599
  102OSM   H11A10205   2.893   2.406   6.590 -0.4300 -0.1066  0.1193
  102OSM   H11B10206   2.957   2.554   6.508  1.3009  0.7544  2.3651
  102OSM      P10207   2.626   2.431   6.510  0.6440 -0.6550  0.4734
  102OSM    O1310208   2.593   2.416   6.653 -0.1098 -0.3758  0.3919
  102OSM    O1410209   2.518   2.481   6.425  0.5719 -0.2716 -0.2757
  102OSM    O1110210   2.665   2.288   6.455 -0.3162  0.2007 -0.2170
  102OSM    O1210211   2.747   2.523   6.485 -0.3702 -0.1246  0.0854
  102OSM    C1S10212   2.723   2.260   6.330  0.1572  0.3810 -0.8102
  102OSM    H1S10213   2.719   2.353   6.269  0.8484 -0.3954 -2.0898
  102OSM    H1T10214   2.682   2.182   6.264  0.6473  1.0848 -1.9855
  102OSM     NF10215   2.914   2.209   6.188 -0.3572 -0.2029  0.0557
  102OSM    HNF10216   2.945   2.115   6.176 -0.3789 -0.1153 -0.6877
  102OSM    C2S10217   2.879   2.239   6.326 -0.3010  0.6764 -0.2986
  102OSM    H2S10218   2.921   2.335   6.361  1.3600 -1.0486  2.8730
  102OSM    C3S10219   2.921   2.136   6.436  0.8775 -0.0111  0.8804
  102OSM    H3S10220   2.865   2.047   6.400 -0.6893  1.3887 -0.3186
  102OSM     O310221   2.868   2.160   6.563 -0.0814  0.3775  0.5477
  102OSM    HO310222   2.799   2.225   6.549  0.2880  0.6533 -0.0726
  102OSM    C4S10223   3.062   2.112   6.437 -0.4422 -1.0643  0.6372
  102OSM    H4S10224   3.084   2.028   6.370  1.6977  0.2763 -0.4411
  102OSM    C5S10225   3.157   2.192   6.489  0.0402 -0.0774 -0.4385
  102OSM    H5S10226   3.120   2.273   6.553 -0.1314 -0.5039  0.0076
  102OSM    C6S10227   3.301   2.175   6.464 -0.2969  0.2290  0.2109
  102OSM    H6S10228   3.342   2.144   6.562 -1.1818 -0.4745  0.3754
  102OSM    H6T10229   3.351   2.269   6.433 -1.3104  0.0913 -2.0899
  102OSM    C7S10230   3.346   2.063   6.366  0.0208  0.3001 -0.3287
  102OSM    H7S10231   3.298   1.965   6.386  0.0301  0.2450 -0.5813
  102OSM    H7T10232   3.455   2.040   6.373 -0.0304 -0.0084 -0.5577
  102OSM    C8S10233   3.334   2.109   6.224  0.2341 -0.1197 -0.2616
  102OSM    H8S10234   3.383   2.209   6.224 -3.2420  1.7281 -0.4471
  102OSM    H8T10235   3.230   2.131   6.191  0.4759  2.3401  0.4189
  102OSM    C9S10236   3.398   2.023   6.121  0.3972 -0.1506 -0.0694
  102OSM    H9S10237   3.339   1.929   6.111 -0.2585  0.3135 -0.6328
  102OSM    H9T10238   3.503   2.005   6.151  1.0778  0.6351 -1.8491
  102OSM   C10S10239   3.402   2.098   5.986 -0.5630 -0.1538  0.3090
  102OSM   H10S10240   3.479   2.175   6.007 -1.0785  0.0847  1.3838
  102OSM   H10T10241   3.307   2.151   5.964 -0.1304  0.7538  0.5856
  102OSM   C11S10242   3.461   2.008   5.878  0.9048 -1.4134  0.2516
  102OSM   H11S10243   3.384   1.937   5.841 -0.2292  0.2723 -0.7299
  102OSM   H11T10244   3.541   1.941   5.918  1.9014 -2.1828 -2.7593
  102OSM   C12S10245   3.498   2.081   5.743 -1.0554  0.1254 -0.5166
  102OSM   H12S10246   3.600   2.121   5.759 -0.8296 -0.2555 -0.9779
  102OSM   H12T10247   3.436   2.167   5.711 -1.0302 -0.2150 -1.5317
  102OSM   C13S10248   3.509   1.990   5.620  0.6577 -0.2651  0.4584
  102OSM   H13S10249   3.403   1.982   5.590  0.4396 -0.8103  1.3405
  102OSM   H13T10250   3.552   1.892   5.649  0.9838 -0.3911 -0.4301
  102OSM   C14S10251   3.586   2.040   5.502 -0.3077 -0.3807  0.6364
  102OSM   H14S10252   3.692   2.071   5.514  0.8899 -2.6651 -2.4835
  102OSM   H14T10253   3.532   2.129   5.463  0.6196  0.0911  0.3993
  102OSM   C15S10254   3.603   1.942   5.379 -0.7239  0.2115 -0.3725
  102OSM   H15S10255   3.502   1.902   5.356 -0.6709  0.5749 -1.3052
  102OSM   H15T10256   3.668   1.861   5.417 -0.1876  1.3767  1.3000
  102OSM   C16S10257   3.669   1.998   5.253  0.0974 -0.3067 -0.1651
  102OSM   H16S10258   3.770   2.041   5.271  0.0055 -0.1520 -0.0192
  102OSM   H16T10259   3.605   2.069   5.197  0.3160  0.2277  0.2456
  102OSM   C17S10260   3.710   1.875   5.167 -0.2924 -0.2434 -0.1214
  102OSM   H17S10261   3.630   1.803   5.143 -0.2574 -0.1404 -0.5746
  102OSM   H17T10262   3.779   1.815   5.230  0.4642  0.5681 -0.1392
  102OSM   C18S10263   3.782   1.904   5.035  0.4296 -0.4180  0.6807
  102OSM   H18S10264   3.838   1.817   4.994 -1.0911 -0.7097 -0.8992
  102OSM   H18T10265   3.840   1.999   5.037  2.0887 -1.3676 -0.2542
  102OSM   H18U10266   3.705   1.923   4.957  0.7960 -3.0695 -0.4313
  102OSM    C1F10267   2.914   2.291   6.080 -0.6183 -0.5867 -0.5712
  102OSM     OF10268   2.908   2.410   6.096  0.0068  0.5085 -0.0219
  102OSM    C2F10269   2.931   2.222   5.944 -0.2147  0.3061 -0.0192
  102OSM    H2F10270   2.852   2.144   5.948  0.7965 -0.7025  0.7237
  102OSM    H2G10271   3.033   2.181   5.928  0.5458  3.0545 -3.3545
  102OSM    C3F10272   2.910   2.326   5.829 -0.0400 -0.8034 -0.5479
  102OSM    H3F10273   2.976   2.415   5.842  0.2236 -0.8784 -1.3004
  102OSM    H3G10274   2.806   2.363   5.843 -0.2374 -0.4434 -2.6122
  102OSM    C4F10275   2.917   2.275   5.685  0.3302  0.2441 -0.1809
  102OSM    H4F10276   2.825   2.219   5.658  0.7679  0.3380 -2.0045
  102OSM    H4G10277   3.005   2.207   5.672  1.8881  2.1766 -0.2318
  102OSM    C5F10278   2.930   2.401   5.593 -0.0129  0.4124 -0.5383
  102OSM    H5F10279   3.014   2.462   5.631  0.0681  0.8427 -1.3792
  102OSM    H5G10280   2.839   2.465   5.599 -0.0309  0.5302 -1.7327
  102OSM    C6F10281   2.945   2.350   5.447  1.0530 -0.2751  0.1630
  102OSM    H6F10282   2.860   2.279   5.436  1.6181 -0.9848  0.3149
  102OSM    H6G10283   3.041   2.295   5.439  0.8386 -0.9890  1.9703
  102OSM    C7F10284   2.933   2.451   5.338  0.6614  0.3340  0.6966
  102OSM    H7F10285   2.996   2.541   5.352 -0.4897  1.6265 -1.7637
  102OSM    H7G10286   2.831   2.495   5.340 -0.7993 -2.8074  1.9420
  102OSM    C8F10287   2.974   2.396   5.202  0.0420 -0.1417  0.4836
  102OSM    H8F10288   2.937   2.291   5.194  0.7973 -0.2894 -2.7795
  102OSM    H8G10289   3.084   2.390   5.187  0.0260  0.7438 -0.0507
  102OSM    C9F10290   2.918   2.473   5.082 -0.1162  0.2370 -0.3849
  102OSM    H9F10291   2.812   2.500   5.097  0.2074  0.9762  0.6928
  102OSM   C10F10292   2.985   2.531   4.979  0.7562 -0.1313 -0.0565
  102OSM   H10F10293   2.929   2.594   4.908  1.0057  0.1937  0.0311
  102OSM   C11F10294   3.127   2.521   4.943 -0.2751  0.1650 -0.1148
  102OSM   H11F10295   3.173   2.440   5.004  0.3576  0.5705 -0.0397
  102OSM   H11G10296   3.177   2.619   4.956 -0.1419  0.2781 -1.3555
  102OSM   C12F10297   3.162   2.490   4.791  0.4827 -0.2454  0.2584
  102OSM   H12F10298   3.271   2.512   4.779  0.2504 -0.4227 -3.3119
  102OSM   H12G10299   3.105   2.557   4.724 -0.2126  1.1255  2.1212
  102OSM   C13F10300   3.147   2.344   4.759  0.3784  0.2416  0.9759
  102OSM   H13F10301   3.046   2.304   4.785 -0.2171 -0.4799 -1.9723
  102OSM   H13G10302   3.227   2.288   4.810  0.2633  0.2221  1.1346
  102OSM   C14F10303   3.140   2.320   4.604  0.1844 -0.1003  0.3071
  102OSM   H14F10304   3.235   2.369   4.574  0.5706 -0.5696  0.7594
  102OSM   H14G10305   3.055   2.381   4.565  1.3676  1.7001  0.3981
  102OSM   C15F10306   3.142   2.174   4.559 -0.2070  0.3912 -0.1978
  102OSM   H15F10307   3.046   2.122   4.578  1.0916 -1.7338  0.8756
  102OSM   H15G10308   3.221   2.129   4.622 -0.8207 -1.2800 -0.5665
  102OSM   C16F10309   3.182   2.149   4.410  0.5192  0.7446  0.4204
  102OSM   H16F10310   3.183   2.040   4.392 -1.9017  0.3749  2.1246
  102OSM   H16G10311   3.281   2.197   4.396  1.3852 -1.0703  0.1144
  102OSM   C17F10312   3.093   2.215   4.311  0.1799  0.2857  0.1735
  102OSM   H17F10313   3.113   2.324   4.317  0.7665  0.1119  1.8334
  102OSM   H17G10314   2.992   2.194   4.351  1.1441 -0.1465  2.5608
  102OSM   C18F10315   3.114   2.160   4.171 -0.4238 -0.6821  0.4412
  102OSM   H18F10316   3.080   2.055   4.182 -1.7516 -0.4926 -1.4058
  102OSM   H18G10317   3.218   2.173   4.136 -1.1449  0.9234 -1.2759
  102OSM   H18H10318   3.037   2.203   4.103  0.5922 -0.9060 -0.8817
  103OSM      N10319   1.998   2.863   6.998  0.3869 -0.2484 -0.1161
  103OSM    C1510320   1.882   2.949   7.028  0.0938 -0.4741 -0.6979
  103OSM   H15A10321   1.807   2.943   6.950 -0.6928 -3.0241  0.1535
  103OSM   H15B10322   1.925   3.043   7.059  1.9845 -2.0319  1.7323
  103OSM   H15C10323   1.828   2.907   7.112 -1.9647  2.2151 -0.5309
  103OSM    C1410324   1.949   2.721   6.984 -0.4689 -0.2307  0.6841
  103OSM   H14A10325   2.036   2.664   6.955  0.3801  2.0451 -1.6090
  103OSM   H14B10326   1.891   2.709   6.894  0.6560  2.9864 -0.6373
  103OSM   H14C10327   1.901   2.676   7.070 -1.2359 -2.0978 -0.6462
  103OSM    C1310328   2.059   2.930   6.880  0.7028  0.3840  0.3956
  103OSM   H13A10329   2.099   3.025   6.912 -2.2095  2.0121 -0.4328
  103OSM   H13B10330   1.990   2.958   6.802  1.0472  2.3659  0.7476
  103OSM   H13C10331   2.128   2.860   6.834 -0.3621 -0.6909  0.3936
  103OSM    C1210332   2.090   2.882   7.118 -0.0510  0.5443  1.3293
  103OSM   H12A10333   2.047   2.828   7.201  2.5366 -1.3163  1.5848
  103OSM   H12B10334   2.083   2.987   7.141 -0.5241  1.1487 -1.2502
  103OSM    C1110335   2.239   2.839   7.099  0.2201  0.5149 -0.0210
  103OSM   H11A10336   2.302   2.853   7.189 -1.3015 -1.1433  1.3594
  103OSM   H11B10337   2.287   2.905   7.023 -0.1007 -0.7523 -1.3666
  103OSM      P10338   2.307   2.648   6.936 -0.2229  0.1027  0.1988
  103OSM    O1310339   2.451   2.614   6.967 -0.2206  0.2605 -0.2931
  103OSM    O1410340   2.220   2.545   6.883 -0.0995 -0.1382 -0.0592
  103OSM    O1110341   2.302   2.770   6.842  0.7658  0.2132  0.1248
  103OSM    O1210342   2.250   2.698   7.063 -0.0667 -0.6716 -0.8428
  103OSM    C1S10343   2.262   2.738   6.708  0.0442 -0.0536  0.7490
  103OSM    H1S10344   2.154   2.715   6.696  0.1921  0.7051 -3.9674
  103OSM    H1T10345   2.325   2.661   6.660 -0.2970  0.1382 -0.0191
  103OSM     NF10346   2.252   2.826   6.472 -0.4905  0.2736  0.2051
  103OSM    HNF10347   2.329   2.796   6.416 -0.2416  0.3839  0.4814
  103OSM    C2S10348   2.291   2.865   6.611 -0.0424 -0.0802 -0.0355
  103OSM    H2S10349   2.234   2.952   6.648  1.6575  1.4269 -0.8081
  103OSM    C3S10350   2.438   2.907   6.629  0.0424  0.1472  0.0147
  103OSM    H3S10351   2.500   2.821   6.597  1.5191  1.0778  0.2742
  103OSM     O310352   2.490   2.944   6.759 -0.0476 -0.2658 -0.0349
  103OSM    HO310353   2.424   2.907   6.817 -0.6407 -1.3137 -1.3231
  103OSM    C4S10354   2.482   3.016   6.528 -0.0665 -0.9054 -0.4623
  103OSM    H4S10355   2.514   2.970   6.434  3.8177 -1.9516  1.1977
  103OSM    C5S10356   2.478   3.152   6.555  0.5620  0.1749  0.1586
  103OSM    H5S10357   2.441   3.198   6.647  2.4956  2.4036 -0.0967
  103OSM    C6S10358   2.517   3.266   6.461 -0.7747  0.0839  0.0448
  103OSM    H6S10359   2.583   3.338   6.515 -0.1028  0.0015 -0.6410
  103OSM    H6T10360   2.422   3.317   6.433  0.2632  1.7560 -0.6227
  103OSM    C7S10361   2.575   3.227   6.330 -0.3289 -0.4563 -0.2593
  103OSM    H7S10362   2.497   3.172   6.273  0.1873 -1.9373  0.4142
  103OSM    H7T10363   2.661   3.158   6.339  0.5165  0.2714 -2.1871
  103OSM    C8S10364   2.601   3.352   6.247 -0.3255 -0.2216  0.7862
  103OSM    H8S10365   2.700   3.392   6.281 -0.0504 -0.5942  0.4283
  103OSM    H8T10366   2.520   3.428   6.248  0.0854  0.2290  0.5798
  103OSM    C9S10367   2.615   3.315   6.093 -0.4060 -0.5700  1.0922
  103OSM    H9S10368   2.515   3.274   6.064 -0.9085 -1.4599  3.8047
  103OSM    H9T10369   2.684   3.228   6.090  0.6282  0.1189  2.9812
  103OSM   C10S10370   2.653   3.437   6.012 -0.3588 -0.3519  0.0415
  103OSM   H10S10371   2.753   3.477   6.040 -1.3590  1.7183  0.8978
  103OSM   H10T10372   2.580   3.520   6.019  1.7860  1.5470  1.5483
  103OSM   C11S10373   2.651   3.404   5.858  0.0365  0.8416 -1.4833
  103OSM   H11S10374   2.555   3.353   5.834 -0.2891  1.0016 -0.5625
  103OSM   H11T10375   2.737   3.336   5.838  0.3838  1.2442 -1.3857
  103OSM   C12S10376   2.662   3.528   5.771  0.1320 -0.0918  0.0814
  103OSM   H12S10377   2.753   3.589   5.787  1.2387 -1.2116 -1.6736
  103OSM   H12T10378   2.568   3.585   5.792  1.1690  1.4180  0.7669
  103OSM   C13S10379   2.661   3.481   5.631 -0.6293 -0.3045  0.0819
  103OSM   H13S10380   2.572   3.416   5.614 -0.4065 -0.6011  0.0608
  103OSM   H13T10381   2.754   3.424   5.610 -0.1690  1.1320 -2.1192
  103OSM   C14S10382   2.659   3.599   5.529  0.2275  0.6701 -0.0427
  103OSM   H14S10383   2.749   3.664   5.535  0.7059  0.1600 -1.1958
  103OSM   H14T10384   2.570   3.659   5.555  0.7642  0.8103  1.5696
  103OSM   C15S10385   2.664   3.547   5.384 -1.1275  0.8493  0.5393
  103OSM   H15S10386   2.574   3.486   5.361  1.3671 -2.6408 -0.7746
  103OSM   H15T10387   2.739   3.465   5.378 -0.5705  1.3519  0.5205
  103OSM   C16S10388   2.693   3.642   5.267  0.4273 -0.2003 -0.2345
  103OSM   H16S10389   2.751   3.727   5.310 -1.4898  1.0250  0.0677
  103OSM   H16T10390   2.603   3.695   5.228  0.2641 -0.8167 -0.7040
  103OSM   C17S10391   2.767   3.572   5.154 -0.2704 -0.0359 -0.3671
  103OSM   H17S10392   2.858   3.520   5.191 -0.9054 -0.7360  0.2461
  103OSM   H17T10393   2.792   3.638   5.068  1.5715 -0.4244 -0.1720
  103OSM   C18S10394   2.689   3.460   5.091  0.5636 -0.1327  0.3876
  103OSM   H18S10395   2.734   3.419   4.998  2.4063  0.9839  0.7395
  103OSM   H18T10396   2.584   3.492   5.074  0.4995 -0.4400  0.1971
  103OSM   H18U10397   2.672   3.376   5.162  0.3551 -1.1545 -0.8325
  103OSM    C1F10398   2.133   2.805   6.435  0.4531 -0.2522 -0.2696
  103OSM     OF10399   2.043   2.845   6.509  0.5722  0.9203 -0.0662
  103OSM    C2F10400   2.105   2.733   6.305 -0.0701  0.2353  0.0243
  103OSM    H2F10401   2.167   2.642   6.318  0.7451  0.7564 -0.1446
  103OSM    H2G10402   2.145   2.780   6.212 -0.8468  0.1272 -0.3763
  103OSM    C3F10403   1.954   2.712   6.301  0.6304  0.0707  0.5726
  103OSM    H3F10404   1.906   2.812   6.301 -0.6880 -0.5398  0.7835
  103OSM    H3G10405   1.902   2.671   6.391 -1.5943 -0.6544 -0.9454
  103OSM    C4F10406   1.908   2.624   6.180  0.7535  0.0938 -0.4394
  103OSM    H4F10407   1.926   2.516   6.198  2.3403  0.2434 -0.9333
  103OSM    H4G10408   1.965   2.663   6.092 -1.6314  1.7638 -1.3570
  103OSM    C5F10409   1.763   2.628   6.156 -0.5122  0.1475  0.0817
  103OSM    H5F10410   1.735   2.736   6.154 -0.0802  0.2504 -0.9022
  103OSM    H5G10411   1.709   2.564   6.229  0.2016 -1.7624 -0.9870
  103OSM    C6F10412   1.730   2.562   6.019  0.6071  0.1898 -0.1770
  103OSM    H6F10413   1.782   2.465   6.030  2.3953  1.0836 -0.3663
  103OSM    H6G10414   1.778   2.615   5.934 -1.5056 -1.1809 -2.3586
  103OSM    C7F10415   1.580   2.534   5.996  0.8785 -0.5751  0.1964
  103OSM    H7F10416   1.536   2.466   6.072  0.9519 -0.0476  0.7206
  103OSM    H7G10417   1.575   2.478   5.900 -2.2826 -0.8383  0.4163
  103OSM    C8F10418   1.494   2.660   5.984 -0.9205  0.8140  0.4559
  103OSM    H8F10419   1.518   2.718   6.076  1.1352  0.9722 -0.1266
  103OSM    H8G10420   1.384   2.648   5.992 -0.9787  1.1185  0.1771
  103OSM    C9F10421   1.533   2.730   5.859 -0.0863  0.0480 -0.3377
  103OSM    H9F10422   1.607   2.807   5.883 -0.4977  0.6206 -0.8958
  103OSM   C10F10423   1.493   2.711   5.733  0.2343  1.0464  0.2893
  103OSM   H10F10424   1.551   2.762   5.654 -0.0453  1.5052  0.3737
  103OSM   C11F10425   1.381   2.618   5.683 -0.5793  0.0119 -0.1459
  103OSM   H11F10426   1.320   2.675   5.609  0.0952 -0.2692 -0.9262
  103OSM   H11G10427   1.316   2.593   5.770 -0.0514 -0.0599  0.2305
  103OSM   C12F10428   1.432   2.487   5.610 -0.8823  0.0316  0.2189
  103OSM   H12F10429   1.346   2.418   5.594 -1.0142  0.0335  0.8707
  103OSM   H12G10430   1.491   2.426   5.682 -1.4824 -1.0114 -0.1507
  103OSM   C13F10431   1.532   2.507   5.486 -0.0430  0.3936  0.2514
  103OSM   H13F10432   1.552   2.404   5.451  0.0442 -0.2998  2.2224
  103OSM   H13G10433   1.633   2.548   5.509 -0.2657  0.1747  1.7388
  103OSM   C14F10434   1.468   2.592   5.374 -0.0014  0.1705 -0.5251
  103OSM   H14F10435   1.461   2.699   5.403  1.9812 -0.0535  0.9273
  103OSM   H14G10436   1.360   2.566   5.367  0.2327 -1.1651  0.5128
  103OSM   C15F10437   1.556   2.586   5.248  0.3768 -0.2454  0.4800
  103OSM   H15F10438   1.570   2.483   5.209  0.9120  0.1890 -0.5114
  103OSM   H15G10439   1.661   2.610   5.278  0.3787 -1.5433  1.6151
  103OSM   C16F10440   1.512   2.695   5.143  0.2860  0.8926 -0.7339
  103OSM   H16F10441   1.493   2.795   5.188  0.3902  1.7844 -2.5691
  103OSM   H16G10442   1.412   2.658   5.111  0.3147  0.8593 -0.7838
  103OSM   C17F10443   1.617   2.701   5.042  0.3743  0.2424  0.1343
  103OSM   H17F10444   1.625   2.602   4.992 -0.9646  0.7305 -1.1316
  103OSM   H17G10445   1.709   2.733   5.095  0.0657  0.4983  0.5176
  103OSM   C18F10446   1.591   2.811   4.935  0.4225 -0.6359  0.3946
  103OSM   H18F10447   1.525   2.783   4.850 -0.3128 -1.8425  1.3265
  103OSM   H18G10448   1.689   2.850   4.901  1.0428 -2.8817 -0.5108
  103OSM   H18H10449   1.527   2.891   4.979  1.0667  0.1659 -0.0860
  104OSM      N10450   3.045   4.959   6.909  0.8002 -0.0960  0.1505
  104OSM    C1510451   2.941   5.022   6.989  0.4363  0.8603 -0.4161
  104OSM   H15A10452   2.969   5.063   7.085 -0.7953  2.4300 -0.6829
  104OSM   H15B10453   2.855   4.956   6.998  0.5096  0.8633  0.3974
  104OSM   H15C10454   2.907   5.110   6.935 -1.4538  0.8776  0.6998
  104OSM    C1410455   2.989   4.881   6.788  0.9898  0.0260 -0.2641
  104OSM   H14A10456   3.076   4.831   6.749  0.6595  0.5373 -1.7593
  104OSM   H14B10457   2.962   4.953   6.711  2.4016  2.5775  1.4864
  104OSM   H14C10458   2.911   4.810   6.809 -0.0745  0.4902 -2.3030
  104OSM    C1310459   3.133   5.073   6.858  0.2560  0.2232  0.2630
  104OSM   H13A10460   3.194   5.110   6.940  0.5926  1.7475 -0.6476
  104OSM   H13B10461   3.070   5.154   6.822 -0.9494 -0.5381  0.5856
  104OSM   H13C10462   3.201   5.047   6.779 -2.4996  0.6818 -2.4544
  104OSM    C1210463   3.119   4.869   7.005 -0.4760  0.0812  0.3913
  104OSM   H12A10464   3.063   4.793   7.057  0.5285 -2.2631 -1.7787
  104OSM   H12B10465   3.161   4.931   7.083 -1.6054  0.7073  0.5233
  104OSM    C1110466   3.244   4.792   6.948 -0.1587 -0.4144  0.2223
  104OSM   H11A10467   3.293   4.730   7.026  2.3222  2.1126  0.8401
  104OSM   H11B10468   3.322   4.863   6.914 -2.0794  1.8405  0.3002
  104OSM      P10469   3.206   4.554   6.838  0.1290  0.3403 -0.1611
  104OSM    O1310470   3.325   4.497   6.907 -0.1477 -0.3052  0.4650
  104OSM    O1410471   3.073   4.503   6.888 -0.1602 -0.3738  0.4190
  104OSM    O1110472   3.220   4.528   6.688  0.2860  0.0680 -0.0147
  104OSM    O1210473   3.211   4.710   6.836  0.8136  0.4196  0.0113
  104OSM    C1S10474   3.132   4.573   6.582  0.4843  0.1351  0.0569
  104OSM    H1S10475   3.104   4.677   6.608  0.3165 -0.2145  1.3447
  104OSM    H1T10476   3.038   4.514   6.587  0.4943 -0.0294 -1.2466
  104OSM     NF10477   3.105   4.621   6.335  0.2585  0.2677  0.2059
  104OSM    HNF10478   3.072   4.564   6.260 -1.6345  0.7646  0.6144
  104OSM    C2S10479   3.194   4.564   6.440  0.6292  0.4965  0.6337
  104OSM    H2S10480   3.287   4.620   6.419  0.1525  0.4126 -2.1128
  104OSM    C3S10481   3.224   4.411   6.413 -0.0322  0.6220  0.5091
  104OSM    H3S10482   3.130   4.356   6.434 -1.1442  1.7158 -1.3313
  104OSM     O310483   3.317   4.346   6.505  0.2707 -0.5268  0.4384
  104OSM    HO310484   3.316   4.403   6.582 -2.3520 -0.6159  0.5759
  104OSM    C4S10485   3.265   4.387   6.272 -0.2316 -0.4441 -0.3935
  104OSM    H4S10486   3.188   4.348   6.204  0.6173 -2.5432 -0.2188
  104OSM    C5S10487   3.389   4.414   6.223 -0.3538 -0.9638  0.1337
  104OSM    H5S10488   3.477   4.447   6.280 -0.7044  0.7926 -0.3028
  104OSM    C6S10489   3.429   4.385   6.076 -0.1857  0.5472  0.3758
  104OSM    H6S10490   3.537   4.360   6.067 -0.1942  0.7021 -0.2134
  104OSM    H6T10491   3.418   4.480   6.018  1.0472 -0.1891 -1.1589
  104OSM    C7S10492   3.357   4.257   6.019  0.2401  0.3751 -0.0567
  104OSM    H7S10493   3.252   4.292   6.010  0.6508  1.0763 -3.0140
  104OSM    H7T10494   3.369   4.171   6.088  0.0153 -0.3217 -0.8839
  104OSM    C8S10495   3.405   4.207   5.879  0.1411  0.1870 -0.0464
  104OSM    H8S10496   3.325   4.158   5.818  1.1715 -1.1004 -0.4238
  104OSM    H8T10497   3.495   4.142   5.879 -0.1960 -0.2947  0.6397
  104OSM    C9S10498   3.439   4.334   5.795  0.3718  0.0848  0.6858
  104OSM    H9S10499   3.505   4.411   5.842 -0.1612 -0.5765  2.5978
  104OSM    H9T10500   3.345   4.387   5.771  0.9895  1.2648  0.7984
  104OSM   C10S10501   3.490   4.284   5.653 -0.1122 -0.1616 -0.0003
  104OSM   H10S10502   3.413   4.219   5.606 -0.7187 -0.2745  1.1277
  104OSM   H10T10503   3.587   4.230   5.650 -0.9692 -1.7258 -0.6426
  104OSM   C11S10504   3.506   4.388   5.557  0.1326 -0.2402  1.0117
  104OSM   H11S10505   3.590   4.454   5.588 -0.1939  0.2587  0.8530
  104OSM   H11T10506   3.414   4.447   5.539 -0.6418 -1.9154 -0.8702
  104OSM   C12S10507   3.538   4.337   5.406  0.6091 -1.0686  0.3309
  104OSM   H12S10508   3.455   4.276   5.365  0.6713 -0.6521 -0.4186
  104OSM   H12T10509   3.629   4.276   5.427  0.6257 -0.4654  2.2065
  104OSM   C13S10510   3.571   4.452   5.314 -0.2675 -0.7452 -0.0231
  104OSM   H13S10511   3.623   4.529   5.375 -0.3417  0.9840 -2.0339
  104OSM   H13T10512   3.480   4.497   5.267  0.6308  1.3619  0.1212
  104OSM   C14S10513   3.680   4.426   5.209 -0.1659 -0.0572 -0.1150
  104OSM   H14S10514   3.773   4.413   5.267 -0.6819  2.0083  1.3076
  104OSM   H14T10515   3.701   4.514   5.145 -0.1622 -0.5246 -0.7657
  104OSM   C15S10516   3.655   4.304   5.126 -0.3359  0.1903 -0.0691
  104OSM   H15S10517   3.646   4.206   5.179 -0.7185  0.0823 -0.3306
  104OSM   H15T10518   3.746   4.287   5.065  0.1802  1.2755  0.3854
  104OSM   C16S10519   3.526   4.316   5.039 -0.1218 -0.3034  0.6378
  104OSM   H16S10520   3.530   4.422   5.007  0.4617 -0.3837  0.4305
  104OSM   H16T10521   3.430   4.307   5.095 -2.0459 -0.5009 -2.4682
  104OSM   C17S10522   3.520   4.231   4.915 -0.3192 -0.1276  0.1360
  104OSM   H17S10523   3.478   4.131   4.934 -1.6996  0.6833  1.5680
  104OSM   H17T10524   3.628   4.222   4.890  0.3290  1.3145  2.0936
  104OSM   C18S10525   3.435   4.297   4.802  0.1463 -0.3635  0.2761
  104OSM   H18S10526   3.331   4.315   4.835  0.2136 -1.0800  0.8986
  104OSM   H18T10527   3.440   4.239   4.707  3.3821  1.9636 -1.1814
  104OSM   H18U10528   3.474   4.400   4.786 -1.9074  0.5794  1.0078
  104OSM    C1F10529   3.087   4.748   6.327 -0.0485  0.0693 -0.3328
  104OSM     OF10530   3.145   4.827   6.407  0.2515 -0.2045  0.0889
  104OSM    C2F10531   3.015   4.796   6.208  0.0380 -0.0202 -0.0366
  104OSM    H2F10532   2.911   4.759   6.200 -0.3461  0.6406  1.4601
  104OSM    H2G10533   3.065   4.757   6.117 -0.7748  3.2918 -2.0923
  104OSM    C3F10534   3.007   4.948   6.213  0.6401 -0.1499  0.5977
  104OSM    H3F10535   3.103   5.001   6.193 -0.2288  0.8604 -1.0757
  104OSM    H3G10536   2.962   4.980   6.309 -1.5828  3.3193 -1.3783
  104OSM    C4F10537   2.905   5.004   6.105 -0.2711  0.1404 -0.4827
  104OSM    H4F10538   2.898   5.113   6.127 -0.0021 -0.1676  1.3152
  104OSM    H4G10539   2.803   4.963   6.122  0.2410 -0.6974  0.7202
  104OSM    C5F10540   2.960   4.969   5.969 -0.3966  0.7595 -0.1455
  104OSM    H5F10541   2.941   4.861   5.948  2.9947  0.2262 -1.1412
  104OSM    H5G10542   3.070   4.981   5.958 -0.4840  1.0782 -0.7372
  104OSM    C6F10543   2.905   5.057   5.860 -0.9014 -0.5017  0.4647
  104OSM    H6F10544   2.931   5.164   5.877 -2.3130 -0.4146  2.3576
  104OSM    H6G10545   2.795   5.061   5.877 -0.9193  3.2825  0.2242
  104OSM    C7F10546   2.942   5.002   5.726  0.0400 -0.8020 -0.2473
  104OSM    H7F10547   2.897   4.901   5.713  2.0173 -1.7256 -0.2116
  104OSM    H7G10548   3.052   4.984   5.726 -0.2186 -2.5891 -0.9101
  104OSM    C8F10549   2.911   5.090   5.611  0.5707 -0.2624  0.6580
  104OSM    H8F10550   2.964   5.187   5.615  0.3104 -0.0820 -0.1869
  104OSM    H8G10551   2.806   5.121   5.630  0.6320 -0.8284  2.0295
  104OSM    C9F10552   2.939   5.011   5.488  0.3313 -0.5745 -0.4062
  104OSM    H9F10553   3.042   4.972   5.484  0.6118  0.1320 -0.1716
  104OSM   C10F10554   2.856   4.987   5.382 -0.8174 -0.0986 -0.3209
  104OSM   H10F10555   2.889   4.919   5.302 -0.2991 -1.2737  0.8532
  104OSM   C11F10556   2.714   5.037   5.375  0.2800 -0.4471  0.1525
  104OSM   H11F10557   2.676   5.089   5.465 -0.3632 -2.8847  1.3681
  104OSM   H11G10558   2.642   4.953   5.364  0.6663 -0.7881  0.2223
  104OSM   C12F10559   2.695   5.128   5.251 -0.4551  0.2143  0.9009
  104OSM   H12F10560   2.588   5.156   5.248  0.0770  2.3242  0.0971
  104OSM   H12G10561   2.719   5.077   5.155  1.1459 -0.6059  1.6957
  104OSM   C13F10562   2.792   5.251   5.256  0.0972 -0.1933  0.1842
  104OSM   H13F10563   2.887   5.202   5.224 -0.4446 -0.6193 -0.8098
  104OSM   H13G10564   2.798   5.291   5.360  0.4129 -0.0850  0.1239
  104OSM   C14F10565   2.767   5.362   5.153  0.8084  0.1204 -0.7821
  104OSM   H14F10566   2.851   5.434   5.142 -0.0043  1.9139  3.0605
  104OSM   H14G10567   2.678   5.415   5.192 -0.2151 -1.4626 -0.8777
  104OSM   C15F10568   2.732   5.305   5.017 -0.3614  0.3029  0.5843
  104OSM   H15F10569   2.634   5.256   5.007  0.4243 -1.0694 -0.7687
  104OSM   H15G10570   2.804   5.224   4.995 -1.4739 -1.2345  2.3120
  104OSM   C16F10571   2.722   5.402   4.894 -0.2490  0.1793 -0.3720
  104OSM   H16F10572   2.801   5.478   4.907 -0.0287 -0.1614  0.3812
  104OSM   H16G10573   2.618   5.442   4.894 -0.8848 -1.1681 -3.7110
  104OSM   C17F10574   2.729   5.330   4.760 -0.4531  0.2830  0.2852
  104OSM   H17F10575   2.640   5.264   4.759  1.7973 -3.1116  2.4026
  104OSM   H17G10576   2.816   5.261   4.763 -1.3265 -0.8506  0.0690
  104OSM   C18F10577   2.745   5.415   4.636 -0.1250  0.5741  0.0051
  104OSM   H18F10578   2.848   5.455   4.640  1.4896 -3.2600  1.7673
  104OSM   H18G10579   2.669   5.497   4.640 -0.4459  0.2534  2.9694
  104OSM   H18H10580   2.732   5.347   4.550  0.6730 -2.9896  2.4942
  105OSM      N10581   3.422   3.142   6.896 -0.1948 -0.1076  0.2853
  105OSM    C1510582   3.487   3.073   7.018  0.4300 -0.6372 -0.0322
  105OSM   H15A10583   3.527   2.978   6.986 -2.4702 -1.5396 -1.3475
  105OSM   H15B10584   3.411   3.054   7.093  1.7963 -1.1350  1.2729
  105OSM   H15C10585   3.560   3.131   7.072 -0.9671 -0.5059  1.7970
  105OSM    C1410586   3.293   3.066   6.880  0.3851  0.2556  0.9629
  105OSM   H14A10587   3.243   3.051   6.974  1.2498 -3.2062  1.0126
  105OSM   H14B10588   3.310   2.970   6.834 -2.4573  0.3881 -0.5941
  105OSM   H14C10589   3.228   3.114   6.809  2.2380  2.3961  0.5872
  105OSM    C1310590   3.383   3.282   6.932  0.2228 -0.4242 -0.0419
  105OSM   H13A10591   3.471   3.332   6.971 -0.9449  1.5661  0.2113
  105OSM   H13B10592   3.305   3.289   7.006 -0.0699 -0.1757 -0.3681
  105OSM   H13C10593   3.350   3.345   6.850  1.9164 -0.6418 -0.9303
  105OSM    C1210594   3.498   3.129   6.768  0.0727 -0.5481  0.4149
  105OSM   H12A10595   3.547   3.224   6.755  0.3754 -0.7444  0.1029
  105OSM   H12B10596   3.421   3.124   6.693 -1.3580  1.7415  1.6094
  105OSM    C1110597   3.593   3.008   6.761  0.2857 -0.5331  0.7383
  105OSM   H11A10598   3.625   2.997   6.655  0.5323  1.3986  0.5744
  105OSM   H11B10599   3.537   2.914   6.776 -0.4645 -0.2415 -0.1439
  105OSM      P10600   3.803   3.138   6.837 -0.1941 -0.4144 -0.5316
  105OSM    O1310601   3.731   3.252   6.899 -0.0279 -0.1382  0.4472
  105OSM    O1410602   3.922   3.100   6.915 -0.1732  0.0598  0.6394
  105OSM    O1110603   3.816   3.163   6.679  0.3535 -0.0727 -0.5963
  105OSM    O1210604   3.704   3.019   6.847 -0.1574 -0.1335 -0.1824
  105OSM    C1S10605   3.942   3.218   6.630  0.4328 -0.3805  0.0518
  105OSM    H1S10606   4.021   3.140   6.636  1.1075  0.2353 -0.6194
  105OSM    H1T10607   3.976   3.298   6.699 -0.5912  1.2202 -1.2383
  105OSM     NF10608   4.048   3.329   6.437  0.1182  0.3587  1.0822
  105OSM    HNF10609   4.067   3.426   6.447  0.7771  0.6685 -2.0542
  105OSM    C2S10610   3.920   3.284   6.493  0.4016  0.0646 -0.1685
  105OSM    H2S10611   3.878   3.207   6.424 -1.5849  0.9536 -0.0176
  105OSM    C3S10612   3.808   3.391   6.490  0.4197 -0.1570  0.8142
  105OSM    H3S10613   3.845   3.482   6.542  1.6771  0.5842 -1.2394
  105OSM     O310614   3.681   3.355   6.552 -0.5228 -0.4005  0.1031
  105OSM    HO310615   3.698   3.267   6.585 -4.5558 -1.8556 -1.1115
  105OSM    C4S10616   3.780   3.437   6.351 -0.3084  0.2207 -0.0364
  105OSM    H4S10617   3.861   3.496   6.306 -0.4876 -0.2725 -1.0323
  105OSM    C5S10618   3.673   3.414   6.264 -0.2888  0.0344 -0.1846
  105OSM    H5S10619   3.590   3.346   6.290 -0.8264  0.7634  0.0155
  105OSM    C6S10620   3.664   3.467   6.125 -0.2974 -0.3814  0.5553
  105OSM    H6S10621   3.762   3.467   6.073  1.1653  0.5785  3.1182
  105OSM    H6T10622   3.635   3.574   6.114  2.2441  0.3488  0.2450
  105OSM    C7S10623   3.567   3.389   6.048  0.4601  0.7279 -0.1949
  105OSM    H7S10624   3.468   3.404   6.096  1.2323  0.8642  1.4207
  105OSM    H7T10625   3.593   3.282   6.058  2.1614  1.2582  1.8016
  105OSM    C8S10626   3.567   3.430   5.901  0.3389 -0.6047  0.4545
  105OSM    H8S10627   3.592   3.538   5.899  1.5415 -0.8641 -1.1740
  105OSM    H8T10628   3.466   3.421   5.857 -0.0074 -2.4666  1.5398
  105OSM    C9S10629   3.667   3.361   5.814  0.1745  0.3851  0.0698
  105OSM    H9S10630   3.633   3.255   5.811 -0.8656  0.6574  1.2910
  105OSM    H9T10631   3.766   3.364   5.866 -0.7324  1.2952  1.8676
  105OSM   C10S10632   3.663   3.411   5.670  0.3975 -0.4865 -0.6896
  105OSM   H10S10633   3.704   3.513   5.654  2.7602 -1.2357  0.0554
  105OSM   H10T10634   3.557   3.404   5.639  0.7421 -2.7559 -1.5408
  105OSM   C11S10635   3.743   3.327   5.576  0.1323 -0.1806  0.3904
  105OSM   H11S10636   3.725   3.220   5.600  2.3308  0.0366  3.6985
  105OSM   H11T10637   3.851   3.342   5.597  0.1926  0.2456 -0.1931
  105OSM   C12S10638   3.713   3.350   5.428 -0.0662  0.5722 -0.8020
  105OSM   H12S10639   3.602   3.359   5.422 -0.3231  0.0149  1.8105
  105OSM   H12T10640   3.738   3.259   5.371 -0.4729 -0.8550  1.1877
  105OSM   C13S10641   3.777   3.465   5.355  0.1051  0.4453 -0.2534
  105OSM   H13S10642   3.883   3.433   5.361  0.3385  1.3380  0.6737
  105OSM   H13T10643   3.770   3.558   5.415  2.7122  0.1804  0.5722
  105OSM   C14S10644   3.744   3.464   5.207 -0.3147 -0.3208  0.1747
  105OSM   H14S10645   3.711   3.362   5.178 -2.0779  0.3594 -0.3342
  105OSM   H14T10646   3.830   3.490   5.143 -1.3294  2.7070 -0.1089
  105OSM   C15S10647   3.627   3.553   5.177  0.2951 -0.1174  0.5648
  105OSM   H15S10648   3.608   3.627   5.258 -1.7407  0.9408 -0.7947
  105OSM   H15T10649   3.531   3.498   5.164  0.7020 -0.8779  0.7205
  105OSM   C16S10650   3.653   3.629   5.045 -0.8231 -1.0106 -0.5159
  105OSM   H16S10651   3.750   3.682   5.035 -0.7762 -1.1424 -0.7727
  105OSM   H16T10652   3.576   3.708   5.035 -1.9699 -2.1942 -1.3570
  105OSM   C17S10653   3.633   3.542   4.919 -0.4486  0.2362  0.3414
  105OSM   H17S10654   3.532   3.499   4.930  1.4105 -4.1958  2.4893
  105OSM   H17T10655   3.707   3.460   4.918 -0.3014  0.3618  0.6654
  105OSM   C18S10656   3.645   3.625   4.794  0.3222 -0.6557 -0.3189
  105OSM   H18S10657   3.597   3.565   4.714  2.3101 -1.0620 -1.2737
  105OSM   H18T10658   3.753   3.633   4.770  0.5742  2.1362  1.2729
  105OSM   H18U10659   3.595   3.724   4.803  0.9561 -0.3357 -0.2984
  105OSM    C1F10660   4.145   3.248   6.400 -0.3479 -0.5166  0.9906
  105OSM     OF10661   4.131   3.126   6.393 -0.3471  0.4038  0.0405
  105OSM    C2F10662   4.276   3.303   6.364  0.6902 -0.0255 -0.3357
  105OSM    H2F10663   4.325   3.354   6.450 -0.2342  1.3725 -0.6077
  105OSM    H2G10664   4.274   3.375   6.280  0.3096  1.4862  0.9262
  105OSM    C3F10665   4.364   3.193   6.297  0.3860 -0.2379 -0.5282
  105OSM    H3F10666   4.308   3.125   6.230 -1.2154  0.3244  0.1928
  105OSM    H3G10667   4.413   3.120   6.366 -0.0618  0.8752  1.0307
  105OSM    C4F10668   4.480   3.252   6.224 -0.8013  0.0550 -0.1717
  105OSM    H4F10669   4.534   3.167   6.176 -1.4457 -0.0786 -0.6738
  105OSM    H4G10670   4.551   3.300   6.295 -0.0795 -1.1265 -0.0746
  105OSM    C5F10671   4.448   3.352   6.105 -0.4097 -0.7929 -0.1550
  105OSM    H5F10672   4.415   3.448   6.150  3.0492  0.4490  0.0427
  105OSM    H5G10673   4.370   3.296   6.050 -1.2089 -2.1497  2.1930
  105OSM    C6F10674   4.568   3.379   6.012 -0.5966  0.3705 -0.3149
  105OSM    H6F10675   4.576   3.304   5.930  0.4879  1.5949 -1.3721
  105OSM    H6G10676   4.666   3.361   6.062  2.0039  2.1400 -4.2834
  105OSM    C7F10677   4.581   3.519   5.944  0.2800  0.1078 -0.0005
  105OSM    H7F10678   4.620   3.596   6.014 -3.3911  2.3463 -0.1226
  105OSM    H7G10679   4.481   3.559   5.915  0.7858  0.7690 -0.8544
  105OSM    C8F10680   4.659   3.518   5.812 -0.3062 -0.6165 -0.5607
  105OSM    H8F10681   4.754   3.461   5.822 -0.7788 -1.3945 -0.4171
  105OSM    H8G10682   4.685   3.620   5.776 -1.1908  0.3152  1.3161
  105OSM    C9F10683   4.571   3.453   5.706 -0.5274  0.2323  0.3081
  105OSM    H9F10684   4.486   3.393   5.741  1.6668 -1.4033  3.3710
  105OSM   C10F10685   4.602   3.440   5.573  1.1495 -0.6578 -0.1732
  105OSM   H10F10686   4.535   3.376   5.514  0.1339 -1.4260  1.7101
  105OSM   C11F10687   4.703   3.514   5.497  0.1803  0.0604 -0.1571
  105OSM   H11F10688   4.782   3.444   5.462 -0.2914  0.6433 -2.5777
  105OSM   H11G10689   4.751   3.595   5.556 -2.1761  1.9652 -0.6603
  105OSM   C12F10690   4.664   3.590   5.374  0.3600 -0.5468  0.2736
  105OSM   H12F10691   4.745   3.640   5.317 -0.6525 -0.2640 -0.9557
  105OSM   H12G10692   4.592   3.671   5.400  1.6445  0.5269  0.5765
  105OSM   C13F10693   4.585   3.503   5.267 -0.3793 -0.1031  0.6497
  105OSM   H13F10694   4.495   3.460   5.316  0.6931 -0.3658  2.5027
  105OSM   H13G10695   4.643   3.414   5.233 -0.0746  0.5535 -0.5955
  105OSM   C14F10696   4.535   3.595   5.146  0.6609 -0.0859 -0.1351
  105OSM   H14F10697   4.510   3.696   5.184  1.0214 -0.1455  0.2768
  105OSM   H14G10698   4.443   3.547   5.106 -1.5258  1.4051  2.7588
  105OSM   C15F10699   4.625   3.601   5.028 -0.8831 -0.2157 -0.2141
  105OSM   H15F10700   4.728   3.636   5.046 -0.6185  0.0558 -2.0972
  105OSM   H15G10701   4.581   3.687   4.973  0.0815 -0.4331 -1.3515
  105OSM   C16F10702   4.624   3.478   4.940 -0.3083  0.1727  1.1161
  105OSM   H16F10703   4.522   3.469   4.897  0.4949 -1.4603 -0.5568
  105OSM   H16G10704   4.647   3.393   5.008  1.0914 -1.8542 -1.6969
  105OSM   C17F10705   4.722   3.473   4.821  0.0219  0.1382 -0.4160
  105OSM   H17F10706   4.692   3.379   4.769  0.2219  0.0496 -0.3702
  105OSM   H17G10707   4.820   3.472   4.872 -0.5573 -0.2808  0.7411
  105OSM   C18F10708   4.702   3.589   4.725 -0.4844 -0.4959  0.8295
  105OSM   H18F10709   4.593   3.589   4.701 -0.9006 -0.8034  2.5634
  105OSM   H18G10710   4.766   3.567   4.637  0.3804 -1.8904  1.7660
  105OSM   H18H10711   4.738   3.684   4.768  0.4812 -0.7103  0.5202
  106OSM      N10712   2.651   0.885   6.726 -0.1106 -0.2009 -0.6868
  106OSM    C1510713   2.512   0.944   6.735  0.2130  0.1186  0.4573
  106OSM   H15A10714   2.477   0.993   6.645 -2.7013  4.1509  3.4057
  106OSM   H15B10715   2.500   1.028   6.803 -1.9464  0.7852 -0.6542
  106OSM   H15C10716   2.431   0.875   6.752  0.5226 -0.3421  0.0532
  106OSM    C1410717   2.647   0.798   6.607  0.3080 -0.0027 -0.0293
  106OSM   H14A10718   2.626   0.846   6.512 -1.4722 -1.4266 -0.4266
  106OSM   H14B10719   2.569   0.726   6.628 -0.4528  0.3628 -1.4350
  106OSM   H14C10720   2.738   0.741   6.608  0.8553  0.7687 -1.8603
  106OSM    C1310721   2.751   0.993   6.710 -0.5854 -0.0411 -0.1666
  106OSM   H13A10722   2.720   1.063   6.634 -1.0166 -0.2520 -0.1870
  106OSM   H13B10723   2.842   0.945   6.678  1.1723  2.9101  0.0999
  106OSM   H13C10724   2.768   1.049   6.800 -1.8317  1.1775 -0.6495
  106OSM    C1210725   2.679   0.798   6.850 -0.1888 -0.0908 -0.6284
  106OSM   H12A10726   2.607   0.721   6.873  1.4424 -1.1784  1.2233
  106OSM   H12B10727   2.678   0.862   6.937 -4.1583  0.8688 -1.2042
  106OSM    C1110728   2.816   0.722   6.842  0.3014  0.6647  1.1631
  106OSM   H11A10729   2.841   0.684   6.943 -1.5909 -2.6504  0.5339
  106OSM   H11B10730   2.897   0.792   6.812  0.7082 -0.0857  0.4500
  106OSM      P10731   2.954   0.516   6.758 -0.0385  0.1132  0.1862
  106OSM    O1310732   3.062   0.616   6.757 -0.4949 -0.4611 -0.2532
  106OSM    O1410733   2.958   0.402   6.850 -0.1764 -1.0320 -0.4624
  106OSM    O1110734   2.945   0.459   6.608  0.5019  0.4202  0.1067
  106OSM    O1210735   2.819   0.597   6.768  0.1856  0.1460 -0.1703
  106OSM    C1S10736   2.872   0.550   6.515  0.4444 -0.1315  0.2804
  106OSM    H1S10737   2.879   0.655   6.552 -3.1544  0.0253  0.9090
  106OSM    H1T10738   2.765   0.521   6.509  0.6542 -0.8396 -0.1398
  106OSM     NF10739   2.864   0.640   6.293 -0.4685  0.5760  0.2375
  106OSM    HNF10740   2.778   0.611   6.252 -0.2030 -2.6295  1.6326
  106OSM    C2S10741   2.932   0.544   6.375  0.7096 -1.1866  0.2135
  106OSM    H2S10742   3.039   0.574   6.365  1.1103 -2.4694  0.4606
  106OSM    C3S10743   2.933   0.401   6.314  0.9164  0.8908  0.7872
  106OSM    H3S10744   2.835   0.351   6.330  1.2517 -0.2135 -0.4451
  106OSM     O310745   3.015   0.312   6.379 -0.5632 -0.4322  0.0816
  106OSM    HO310746   3.009   0.344   6.469 -0.1690  0.2918 -0.1397
  106OSM    C4S10747   2.973   0.390   6.168  0.4247  0.2743  0.5197
  106OSM    H4S10748   3.074   0.425   6.143 -0.0672  1.6014  0.2717
  106OSM    C5S10749   2.889   0.355   6.068  0.0337  0.1362 -0.2235
  106OSM    H5S10750   2.782   0.346   6.091  0.1907 -2.0849 -0.0931
  106OSM    C6S10751   2.920   0.354   5.924  0.0094  0.0382  0.2766
  106OSM    H6S10752   2.925   0.252   5.882  0.6052 -0.2498  1.0293
  106OSM    H6T10753   3.016   0.404   5.898  0.6452 -0.7770  1.0135
  106OSM    C7S10754   2.806   0.418   5.842 -0.1312  0.7478  0.0406
  106OSM    H7S10755   2.781   0.525   5.862 -0.0296  0.7657  0.0696
  106OSM    H7T10756   2.706   0.372   5.858 -2.1428  4.4160 -0.6594
  106OSM    C8S10757   2.830   0.423   5.688  0.9845  0.3357 -0.3571
  106OSM    H8S10758   2.747   0.463   5.626  0.8425 -0.7616 -0.8988
  106OSM    H8T10759   2.846   0.317   5.660 -1.1777 -0.2407  0.3751
  106OSM    C9S10760   2.950   0.514   5.652  0.2425  0.4466 -0.3956
  106OSM    H9S10761   3.044   0.471   5.691  0.0089 -0.6070 -0.9795
  106OSM    H9T10762   2.953   0.611   5.706 -0.3387  0.7941 -0.9643
  106OSM   C10S10763   2.956   0.544   5.501  0.0148  0.2274 -0.2601
  106OSM   H10S10764   3.039   0.618   5.487 -0.3588  0.6631 -0.1921
  106OSM   H10T10765   2.861   0.590   5.466 -0.7187 -0.0295  1.3151
  106OSM   C11S10766   2.981   0.422   5.418  0.4389 -0.0421  0.0380
  106OSM   H11S10767   2.887   0.373   5.385  1.2809 -1.4363 -0.3598
  106OSM   H11T10768   3.013   0.343   5.488 -0.4262  0.9143  1.5672
  106OSM   C12S10769   3.067   0.443   5.292  0.6870  0.6826 -0.6161
  106OSM   H12S10770   3.088   0.343   5.247 -1.5545 -0.0078 -0.2192
  106OSM   H12T10771   3.166   0.482   5.324  0.0834  1.6625  0.1103
  106OSM   C13S10772   3.018   0.534   5.182 -0.1918 -0.2767 -0.1145
  106OSM   H13S10773   2.951   0.610   5.227 -1.7099 -0.5905 -1.7155
  106OSM   H13T10774   2.949   0.470   5.123  1.3821 -2.1760  0.0017
  106OSM   C14S10775   3.117   0.576   5.068  0.5794 -0.6209 -0.4189
  106OSM   H14S10776   3.195   0.650   5.096 -0.8019  0.9810 -0.6424
  106OSM   H14T10777   3.053   0.623   4.990  1.4126 -1.3025 -1.5396
  106OSM   C15S10778   3.195   0.469   4.996  0.2771 -0.0328 -0.1345
  106OSM   H15S10779   3.113   0.395   4.984  0.6608 -1.1720  3.1492
  106OSM   H15T10780   3.258   0.428   5.078  0.0902  0.3775  0.2234
  106OSM   C16S10781   3.279   0.521   4.880  0.2858  0.1313  0.2370
  106OSM   H16S10782   3.357   0.590   4.918 -0.0679  0.4893  0.3221
  106OSM   H16T10783   3.200   0.576   4.824  1.4977  2.4748  0.7002
  106OSM   C17S10784   3.346   0.408   4.795  1.3296  0.3463 -0.4606
  106OSM   H17S10785   3.280   0.320   4.778 -0.7461  1.1914  2.4762
  106OSM   H17T10786   3.428   0.372   4.860  0.4035  0.1623  0.6425
  106OSM   C18S10787   3.406   0.443   4.657  0.6546  0.3665  0.1148
  106OSM   H18S10788   3.463   0.353   4.627  0.1021  0.5219 -1.4979
  106OSM   H18T10789   3.477   0.526   4.679  1.6786 -0.3701 -0.3043
  106OSM   H18U10790   3.335   0.464   4.574  0.9580 -0.1840 -0.2918
  106OSM    C1F10791   2.881   0.767   6.310  0.7081 -0.9316  0.1150
  106OSM     OF10792   2.959   0.813   6.387  0.0794 -0.0858  0.3189
  106OSM    C2F10793   2.794   0.856   6.226  1.0164  0.1384 -0.3982
  106OSM    H2F10794   2.739   0.925   6.295  0.3754  2.1746 -2.8085
  106OSM    H2G10795   2.725   0.805   6.156 -0.4816  2.3043 -0.6039
  106OSM    C3F10796   2.884   0.942   6.127 -0.0407  0.0498  0.0376
  106OSM    H3F10797   2.952   1.014   6.177 -1.2949  1.3108 -0.0368
  106OSM    H3G10798   2.830   1.007   6.055 -0.1973  0.0559  0.1617
  106OSM    C4F10799   2.976   0.845   6.034 -0.3037 -0.6020  0.1400
  106OSM    H4F10800   2.900   0.786   5.979  1.4679  0.0882 -3.3590
  106OSM    H4G10801   3.040   0.771   6.087 -0.1928 -0.0401  0.8030
  106OSM    C5F10802   3.063   0.924   5.936 -0.2707 -0.3233  0.1569
  106OSM    H5F10803   3.125   0.990   6.000 -1.0479  2.3669 -1.7029
  106OSM    H5G10804   3.003   0.994   5.874  1.0994  0.7122 -0.0406
  106OSM    C6F10805   3.135   0.835   5.836 -0.0721  0.2564 -0.3209
  106OSM    H6F10806   3.054   0.803   5.766  0.8019  2.0867 -2.2702
  106OSM    H6G10807   3.172   0.744   5.889 -1.9312  0.0628  0.7745
  106OSM    C7F10808   3.236   0.917   5.761  0.5549 -0.5387  0.7790
  106OSM    H7F10809   3.324   0.942   5.824  0.0203 -0.3785  1.4917
  106OSM    H7G10810   3.186   1.015   5.742 -0.7641 -1.5698 -1.4880
  106OSM    C8F10811   3.279   0.853   5.630  0.4283  0.4074  0.0659
  106OSM    H8F10812   3.315   0.749   5.650 -1.6941 -1.0987 -2.9936
  106OSM    H8G10813   3.361   0.916   5.589  1.4614 -1.3941 -0.7888
  106OSM    C9F10814   3.182   0.837   5.516  0.3190  0.1464 -1.0422
  106OSM    H9F10815   3.078   0.820   5.549  0.3529 -0.1501 -1.0834
  106OSM   C10F10816   3.205   0.840   5.386  0.0514  0.1223 -0.1733
  106OSM   H10F10817   3.122   0.812   5.319  0.2804 -0.8041 -0.0779
  106OSM   C11F10818   3.335   0.849   5.302 -0.1293 -0.0907  0.6644
  106OSM   H11F10819   3.357   0.762   5.237 -2.3215 -0.0266 -0.2741
  106OSM   H11G10820   3.424   0.872   5.364  0.7865  0.2109 -0.7223
  106OSM   C12F10821   3.337   0.976   5.207  0.0090  0.3479 -0.5653
  106OSM   H12F10822   3.252   0.967   5.137  0.0071  1.3744 -0.6993
  106OSM   H12G10823   3.428   0.974   5.145 -0.4710 -2.0480 -1.3007
  106OSM   C13F10824   3.326   1.104   5.282  0.0495 -0.4682 -0.2615
  106OSM   H13F10825   3.343   1.088   5.390 -0.2857  0.6198 -0.0304
  106OSM   H13G10826   3.222   1.140   5.266  0.1591  0.2685  0.6161
  106OSM   C14F10827   3.429   1.206   5.235 -0.0154  0.1197  0.0391
  106OSM   H14F10828   3.431   1.222   5.125  1.0031 -1.7512 -0.2574
  106OSM   H14G10829   3.526   1.159   5.263 -0.2316 -1.7904 -2.0915
  106OSM   C15F10830   3.428   1.332   5.323 -0.4980 -0.6092 -0.1796
  106OSM   H15F10831   3.455   1.312   5.429  0.2761  1.7026  0.1287
  106OSM   H15G10832   3.321   1.362   5.335 -0.2790  0.0074  0.3191
  106OSM   C16F10833   3.517   1.446   5.276 -0.2902  0.0264 -0.0957
  106OSM   H16F10834   3.521   1.441   5.165 -0.0729 -1.3422 -0.0532
  106OSM   H16G10835   3.616   1.426   5.324 -0.6592 -1.0988  0.2252
  106OSM   C17F10836   3.467   1.582   5.332 -0.2083 -0.2503  0.4112
  106OSM   H17F10837   3.377   1.595   5.268  0.4139  1.4039 -0.1876
  106OSM   H17G10838   3.544   1.658   5.306 -0.6079 -0.6835 -2.3125
  106OSM   C18F10839   3.448   1.610   5.479 -0.2006  0.0543  0.2978
  106OSM   H18F10840   3.376   1.539   5.526 -0.5607  0.3768  0.2431
  106OSM   H18G10841   3.407   1.712   5.492 -1.1198 -0.1841 -0.6212
  106OSM   H18H10842   3.547   1.596   5.528  0.0917  1.5093  0.1612
  107OSM      N10843   1.500   6.346   7.447  0.0495 -0.2825  0.5819
  107OSM    C1510844   1.395   6.238   7.423 -0.1309  0.7812 -0.2496
  107OSM   H15A10845   1.389   6.157   7.494  0.8351 -1.1727 -2.2534
  107OSM   H15B10846   1.418   6.193   7.327 -0.5098 -3.6503  1.5039
  107OSM   H15C10847   1.291   6.269   7.420 -0.0926  1.4027  2.3413
  107OSM    C1410848   1.468   6.439   7.559 -0.1946 -0.1288 -0.0025
  107OSM   H14A10849   1.501   6.397   7.653  3.2649 -1.9135 -1.8272
  107OSM   H14B10850   1.365   6.469   7.555  0.0717  0.6593 -1.3700
  107OSM   H14C10851   1.525   6.530   7.551  0.6290 -0.6506 -0.1872
  107OSM    C1310852   1.635   6.282   7.461  0.4028  0.2028  0.3413
  107OSM   H13A10853   1.644   6.215   7.545  2.4437  1.4029  1.1654
  107OSM   H13B10854   1.721   6.346   7.475  1.8221 -1.8559  1.6941
  107OSM   H13C10855   1.663   6.226   7.373  0.0454  0.4560  0.0634
  107OSM    C1210856   1.493   6.422   7.311  0.2523 -0.3961 -0.0661
  107OSM   H12A10857   1.553   6.511   7.315  0.0931 -0.2794  3.8712
  107OSM   H12B10858   1.390   6.445   7.289  0.8952  2.8448 -0.1925
  107OSM    C1110859   1.541   6.351   7.187 -0.1595 -0.5211  0.2845
  107OSM   H11A10860   1.650   6.334   7.186 -0.0362  0.2321 -0.5366
  107OSM   H11B10861   1.534   6.430   7.109 -0.1809  0.5716  1.3526
  107OSM      P10862   1.354   6.267   7.037 -0.2944  0.2032 -0.2929
  107OSM    O1310863   1.263   6.159   7.010 -0.1715 -0.0446 -0.0301
  107OSM    O1410864   1.289   6.398   7.074  0.2107  0.3812 -0.4348
  107OSM    O1110865   1.447   6.292   6.913 -0.0741 -0.3651  0.2653
  107OSM    O1210866   1.467   6.236   7.153  0.0045  0.1815  0.0933
  107OSM    C1S10867   1.543   6.191   6.865  0.4684 -0.3948  0.5319
  107OSM    H1S10868   1.541   6.091   6.914  0.9584  0.9224  3.4788
  107OSM    H1T10869   1.643   6.219   6.905 -0.1315 -0.3243  2.0534
  107OSM     NF10870   1.642   6.077   6.663 -0.1501 -0.4127  0.3139
  107OSM    HNF10871   1.724   6.112   6.618 -0.5951  0.0210 -0.1786
  107OSM    C2S10872   1.544   6.180   6.706  0.9308 -0.5425 -0.0703
  107OSM    H2S10873   1.444   6.139   6.678  0.0098  1.9376 -0.6685
  107OSM    C3S10874   1.562   6.326   6.641  0.5829 -0.3330 -0.2821
  107OSM    H3S10875   1.666   6.344   6.674  0.4983 -0.0469 -0.1705
  107OSM     O310876   1.483   6.434   6.687  0.0882 -0.1587 -0.6691
  107OSM    HO310877   1.453   6.402   6.772 -2.4933 -0.1976 -1.4860
  107OSM    C4S10878   1.554   6.323   6.492  0.2129  0.4678 -0.1627
  107OSM    H4S10879   1.651   6.302   6.445  0.3860 -0.9428  0.7451
  107OSM    C5S10880   1.453   6.325   6.397 -0.8321  0.0963 -0.8395
  107OSM    H5S10881   1.350   6.326   6.435 -0.6131 -0.7598 -0.2079
  107OSM    C6S10882   1.462   6.330   6.245  0.3602 -0.0831 -0.2249
  107OSM    H6S10883   1.563   6.356   6.206 -0.1148 -0.1901 -1.5849
  107OSM    H6T10884   1.396   6.396   6.185 -1.1498 -2.7589 -1.6908
  107OSM    C7S10885   1.438   6.184   6.185 -0.2823 -0.1213  0.6095
  107OSM    H7S10886   1.334   6.150   6.205 -0.3224 -0.4420 -0.1167
  107OSM    H7T10887   1.507   6.118   6.242 -1.6358  0.9414  3.6963
  107OSM    C8S10888   1.460   6.170   6.032 -0.3172  0.3746  0.9606
  107OSM    H8S10889   1.555   6.221   6.008 -0.1778 -0.2030  0.2680
  107OSM    H8T10890   1.382   6.210   5.965  0.6440  1.3226  0.3823
  107OSM    C9S10891   1.485   6.023   5.994  0.0346 -0.2832 -0.3254
  107OSM    H9S10892   1.411   5.955   6.042 -0.6778  0.5192 -0.2696
  107OSM    H9T10893   1.589   5.986   6.009  0.2191  0.2729 -0.2115
  107OSM   C10S10894   1.467   6.003   5.847 -0.2520 -0.1068 -0.5712
  107OSM   H10S10895   1.359   6.013   5.821 -0.7417  2.9111  1.9910
  107OSM   H10T10896   1.478   5.900   5.807  1.3580  0.3675 -1.4434
  107OSM   C11S10897   1.550   6.091   5.757 -0.6229  0.3207 -0.9175
  107OSM   H11S10898   1.651   6.086   5.803 -0.2730 -2.1379 -1.8400
  107OSM   H11T10899   1.526   6.199   5.764  0.3580  0.5351 -0.6217
  107OSM   C12S10900   1.545   6.060   5.611  0.1125  0.0287  0.2226
  107OSM   H12S10901   1.449   6.110   5.583  0.3320  0.2119 -0.2042
  107OSM   H12T10902   1.540   5.957   5.570  0.3922  0.4779 -1.0028
  107OSM   C13S10903   1.658   6.125   5.532 -0.3597 -0.1263  0.1707
  107OSM   H13S10904   1.748   6.082   5.581 -1.6943 -2.7850  0.4223
  107OSM   H13T10905   1.648   6.235   5.545 -1.6059  0.0619 -1.9620
  107OSM   C14S10906   1.643   6.086   5.380  0.0456 -0.2380 -0.2266
  107OSM   H14S10907   1.533   6.092   5.370  0.0840  1.8218  0.2113
  107OSM   H14T10908   1.680   5.981   5.385  1.6338  0.3437  1.7253
  107OSM   C15S10909   1.715   6.166   5.276  0.1651 -0.2596 -0.4983
  107OSM   H15S10910   1.823   6.166   5.301 -0.0614  0.1668  0.5443
  107OSM   H15T10911   1.695   6.274   5.291  1.6084  0.2497 -1.9726
  107OSM   C16S10912   1.699   6.117   5.135  0.1982 -0.0326  0.2356
  107OSM   H16S10913   1.744   6.016   5.134 -1.3709 -0.7451 -0.2736
  107OSM   H16T10914   1.764   6.192   5.084  2.1859 -0.9019  1.3340
  107OSM   C17S10915   1.557   6.109   5.080 -0.4474 -0.0121 -0.3130
  107OSM   H17S10916   1.508   6.209   5.087 -3.9847 -1.6833  0.6951
  107OSM   H17T10917   1.498   6.045   5.148  0.2340 -2.1775 -1.6670
  107OSM   C18S10918   1.555   6.040   4.942  0.2874  0.2636 -0.5730
  107OSM   H18S10919   1.449   6.033   4.911  0.6560  1.5010 -2.3349
  107OSM   H18T10920   1.605   5.941   4.944 -0.6403 -0.2012  0.1757
  107OSM   H18U10921   1.600   6.106   4.864 -2.0852 -0.5423 -2.7567
  107OSM    C1F10922   1.628   5.947   6.689 -0.2262  0.4701 -0.3434
  107OSM     OF10923   1.524   5.899   6.746  0.6480 -0.9238  0.0817
  107OSM    C2F10924   1.742   5.862   6.660  0.2303 -0.2690  0.0560
  107OSM    H2F10925   1.788   5.821   6.753  1.4642 -2.5592 -1.4871
  107OSM    H2G10926   1.829   5.914   6.615  2.8739 -3.2967  1.3032
  107OSM    C3F10927   1.704   5.734   6.580 -0.0920  0.8590  0.0572
  107OSM    H3F10928   1.634   5.660   6.624 -1.0865  0.9650 -1.2723
  107OSM    H3G10929   1.800   5.678   6.573  0.4190  1.8409 -1.2785
  107OSM    C4F10930   1.655   5.765   6.438  0.3752 -0.1773  0.9289
  107OSM    H4F10931   1.722   5.844   6.395  1.7719 -1.2349  1.0820
  107OSM    H4G10932   1.561   5.824   6.439  0.7447  0.6998 -2.6117
  107OSM    C5F10933   1.648   5.640   6.349 -0.2661  0.4432 -0.3799
  107OSM    H5F10934   1.632   5.553   6.416  0.2918  1.4329  1.0818
  107OSM    H5G10935   1.746   5.625   6.298 -0.1499 -1.9824  0.4138
  107OSM    C6F10936   1.536   5.642   6.250 -0.7476  0.0005  0.2025
  107OSM    H6F10937   1.447   5.685   6.301 -0.4786  0.1025  0.5949
  107OSM    H6G10938   1.500   5.540   6.226 -0.2834 -0.3480  0.9477
  107OSM    C7F10939   1.555   5.728   6.119  0.0041  0.4182 -0.3950
  107OSM    H7F10940   1.562   5.835   6.149  2.6398  0.1896  0.0113
  107OSM    H7G10941   1.455   5.721   6.070 -0.1738 -4.2355  0.1631
  107OSM    C8F10942   1.662   5.682   6.025  0.1138  0.2394 -0.4683
  107OSM    H8F10943   1.765   5.709   6.058 -0.2314  0.2287  0.6638
  107OSM    H8G10944   1.666   5.736   5.928  1.1042  1.2224  0.0902
  107OSM    C9F10945   1.652   5.531   6.004 -0.3581 -0.3463 -0.0046
  107OSM    H9F10946   1.704   5.462   6.073  1.1134 -0.6847 -1.3975
  107OSM   C10F10947   1.573   5.472   5.919  0.2248 -0.5659  0.7297
  107OSM   H10F10948   1.556   5.364   5.933 -3.5869  0.0147  1.7183
  107OSM   C11F10949   1.493   5.540   5.808  0.5471  0.4113 -0.7369
  107OSM   H11F10950   1.468   5.641   5.847 -1.0556 -0.2080 -0.1026
  107OSM   H11G10951   1.404   5.475   5.797 -0.1078  0.9475  0.9678
  107OSM   C12F10952   1.555   5.549   5.668  0.3899  0.3401  0.0131
  107OSM   H12F10953   1.479   5.574   5.592  0.5905  2.3454  0.4145
  107OSM   H12G10954   1.588   5.447   5.638  0.4401  1.1931 -3.1870
  107OSM   C13F10955   1.661   5.655   5.656 -0.2258  0.4228 -0.0691
  107OSM   H13F10956   1.746   5.630   5.723 -0.0540 -0.1739 -0.5067
  107OSM   H13G10957   1.622   5.749   5.702 -0.3504 -0.2909  1.3334
  107OSM   C14F10958   1.700   5.699   5.511 -0.1168  0.7924 -0.2521
  107OSM   H14F10959   1.770   5.785   5.511  0.8406  0.0626  1.6901
  107OSM   H14G10960   1.611   5.734   5.454  0.7374 -0.0133 -2.1282
  107OSM   C15F10961   1.773   5.589   5.439 -0.3521 -0.0339  0.3722
  107OSM   H15F10962   1.729   5.489   5.460  1.2805 -1.1164 -1.0642
  107OSM   H15G10963   1.881   5.572   5.460  0.1772  1.9118 -0.5625
  107OSM   C16F10964   1.766   5.604   5.283 -0.2418 -0.5906 -0.5467
  107OSM   H16F10965   1.661   5.632   5.260 -0.3364 -0.6685 -0.2128
  107OSM   H16G10966   1.789   5.507   5.233 -0.4285 -0.5694 -0.6736
  107OSM   C17F10967   1.867   5.709   5.226 -0.8262  0.1330 -0.8230
  107OSM   H17F10968   1.960   5.709   5.286  0.6064 -1.5086 -2.8651
  107OSM   H17G10969   1.836   5.813   5.245 -1.2608  0.1477 -1.5679
  107OSM   C18F10970   1.901   5.708   5.080  0.5079 -0.5255 -0.0211
  107OSM   H18F10971   1.822   5.740   5.010 -1.1008 -2.2083  0.9376
  107OSM   H18G10972   1.943   5.611   5.047  0.3579 -0.3652 -0.6949
  107OSM   H18H10973   1.979   5.787   5.069 -0.0802 -0.0643 -1.0558
  108OSM      N10974   6.218   6.353   6.960 -0.7180 -0.3038 -0.0809
  108OSM    C1510975   6.177   6.326   6.823  0.5403 -0.3378  0.0892
  108OSM   H15A10976   6.143   6.410   6.764 -0.0781 -1.2124 -0.8344
  108OSM   H15B10977   6.086   6.268   6.826 -0.1565  0.6049 -1.4677
  108OSM   H15C10978   6.251   6.258   6.783 -0.0121 -0.5481 -0.6082
  108OSM    C1410979   6.133   6.448   7.017 -0.8607  0.0501 -0.1420
  108OSM   H14A10980   6.132   6.536   6.954  0.5468  0.3677  0.2463
  108OSM   H14B10981   6.167   6.472   7.116 -2.4770 -0.5864  0.6085
  108OSM   H14C10982   6.034   6.411   7.040  0.2820 -2.7639  0.7715
  108OSM    C1310983   6.203   6.225   7.035  0.3717 -0.3124  0.3895
  108OSM   H13A10984   6.266   6.148   6.992  0.9286  1.1198 -1.5090
  108OSM   H13B10985   6.101   6.192   7.022  0.7696 -1.2168 -0.5722
  108OSM   H13C10986   6.224   6.240   7.140 -2.1185  1.4333  0.7487
  108OSM    C1210987   6.373   6.383   6.955  0.8281  0.2139  0.7258
  108OSM   H12A10988   6.407   6.309   6.885 -0.9613 -0.6343  0.6977
  108OSM   H12B10989   6.416   6.370   7.054 -0.5792  3.0155  1.8351
  108OSM    C1110990   6.403   6.530   6.911  0.5341  0.1435 -0.2254
  108OSM   H11A10991   6.345   6.563   6.823 -2.7827 -1.6659  1.0677
  108OSM   H11B10992   6.508   6.536   6.875  0.6788  2.4576  0.4227
  108OSM      P10993   6.336   6.760   7.026  0.4259  0.4727 -0.1136
  108OSM    O1310994   6.199   6.741   6.979  0.3293  0.4236 -0.1222
  108OSM    O1410995   6.349   6.813   7.162 -0.7229 -0.4434  0.1300
  108OSM    O1110996   6.417   6.853   6.923 -0.2318 -0.1790  0.1232
  108OSM    O1210997   6.404   6.620   7.025  0.4864  0.6483  0.2713
  108OSM    C1S10998   6.409   6.852   6.785  0.9207 -0.0332  0.1504
  108OSM    H1S10999   6.338   6.779   6.740 -0.8824  1.3593  0.5936
  108OSM    H1T11000   6.503   6.822   6.733  0.7320 -0.6897  0.1725
  108OSM     NF11001   6.384   6.961   6.568  0.2446 -0.0546 -0.8371
  108OSM    HNF11002   6.468   6.999   6.529 -0.1932 -0.7354 -2.5645
  108OSM    C2S11003   6.371   6.989   6.708 -0.0871  0.0408 -0.2621
  108OSM    H2S11004   6.269   7.022   6.739 -0.0832 -0.8808  0.7811
  108OSM    C3S11005   6.464   7.099   6.757  0.6104 -0.5040 -0.2665
  108OSM    H3S11006   6.563   7.055   6.732  0.1369 -2.1506  0.5823
  108OSM     O311007   6.494   7.119   6.895  0.3713  1.0485  0.3074
  108OSM    HO311008   6.470   7.033   6.930 -3.6496  1.3716 -1.1382
  108OSM    C4S11009   6.443   7.225   6.694 -0.3090  0.7052 -0.8319
  108OSM    H4S11010   6.336   7.244   6.682 -1.3807 -3.4206  0.3854
  108OSM    C5S11011   6.535   7.305   6.644  0.3417 -0.1256 -0.6867
  108OSM    H5S11012   6.642   7.280   6.651  0.3237  0.0697  0.3886
  108OSM    C6S11013   6.515   7.443   6.576  0.3442  0.0803  0.1748
  108OSM    H6S11014   6.612   7.481   6.538 -0.2946  0.2381 -1.3797
  108OSM    H6T11015   6.483   7.519   6.650 -1.6365 -0.1821 -0.3436
  108OSM    C7S11016   6.425   7.439   6.452  0.2100  0.2256 -0.9860
  108OSM    H7S11017   6.422   7.536   6.398  0.3485  0.2441 -0.9616
  108OSM    H7T11018   6.323   7.415   6.489 -0.6195  2.7154 -1.5253
  108OSM    C8S11019   6.482   7.343   6.347 -0.8344 -0.5542 -0.2588
  108OSM    H8S11020   6.483   7.236   6.375  4.1066 -1.2162 -2.1336
  108OSM    H8T11021   6.586   7.375   6.325 -0.9456 -0.9068 -1.3201
  108OSM    C9S11022   6.394   7.347   6.209 -1.1153  0.0238 -0.8398
  108OSM    H9S11023   6.285   7.361   6.227 -1.2553 -0.1472 -1.5030
  108OSM    H9T11024   6.392   7.241   6.177 -0.8704 -0.0583 -0.5855
  108OSM   C10S11025   6.445   7.447   6.102  0.0327  0.2596  0.1406
  108OSM   H10S11026   6.541   7.414   6.056  1.4788  2.4814  1.3704
  108OSM   H10T11027   6.444   7.550   6.144 -0.2181  0.2388  0.1850
  108OSM   C11S11028   6.347   7.439   5.988 -0.5776  0.0052 -0.2626
  108OSM   H11S11029   6.252   7.477   6.030  0.3071  1.9428  0.0907
  108OSM   H11T11030   6.337   7.337   5.945 -0.5614 -0.8018  1.5485
  108OSM   C12S11031   6.390   7.539   5.880 -0.4092 -0.1822  0.0754
  108OSM   H12S11032   6.488   7.515   5.834  0.3273 -0.4329  1.7182
  108OSM   H12T11033   6.405   7.636   5.932 -0.9720  0.8207 -1.5427
  108OSM   C13S11034   6.289   7.572   5.769  1.0002  0.2423  0.6478
  108OSM   H13S11035   6.284   7.680   5.746 -0.4643  0.1956  0.6176
  108OSM   H13T11036   6.187   7.554   5.810  1.0311  0.9758  1.0613
  108OSM   C14S11037   6.309   7.494   5.639 -0.1672  0.1448  0.3343
  108OSM   H14S11038   6.282   7.387   5.656  0.7666 -0.1080  0.2994
  108OSM   H14T11039   6.416   7.499   5.609 -0.3382  2.6917 -0.0244
  108OSM   C15S11040   6.244   7.549   5.503  0.2609 -0.2608  0.0911
  108OSM   H15S11041   6.134   7.562   5.516 -0.0443  0.3372 -2.5091
  108OSM   H15T11042   6.242   7.474   5.421 -0.0269  0.0106 -0.1524
  108OSM   C16S11043   6.303   7.676   5.439 -0.5100  0.4175  0.3213
  108OSM   H16S11044   6.414   7.675   5.447 -0.6180  0.4912  2.4009
  108OSM   H16T11045   6.272   7.752   5.513  0.4945  2.3691 -1.1837
  108OSM   C17S11046   6.233   7.717   5.309  0.2614 -0.5895 -0.1672
  108OSM   H17S11047   6.247   7.658   5.216  0.5011 -0.9004  0.0700
  108OSM   H17T11048   6.287   7.811   5.283  2.0033 -0.9214  2.0104
  108OSM   C18S11049   6.082   7.743   5.335  0.2457  0.0103 -0.1006
  108OSM   H18S11050   6.047   7.790   5.240  0.7499  1.1134  0.2427
  108OSM   H18T11051   6.065   7.802   5.427  3.6593  0.5697  0.2985
  108OSM   H18U11052   6.039   7.641   5.344  0.8111 -0.2076  0.1385
  108OSM    C1F11053   6.299   6.881   6.503 -0.4328 -0.4831  0.2038
  108OSM     OF11054   6.194   6.840   6.550 -0.4901 -0.2622 -0.0970
  108OSM    C2F11055   6.338   6.854   6.364  0.5525 -0.6472 -0.0655
  108OSM    H2F11056   6.433   6.797   6.375 -0.1961 -2.0511 -0.6168
  108OSM    H2G11057   6.361   6.952   6.316 -1.3332  0.5000  1.2433
  108OSM    C3F11058   6.239   6.764   6.284 -0.1774  0.6219 -0.8747
  108OSM    H3F11059   6.192   6.679   6.339  1.4135  0.5125  0.3999
  108OSM    H3G11060   6.294   6.720   6.198 -0.1966  0.2168 -0.6848
  108OSM    C4F11061   6.123   6.844   6.225 -0.2223 -0.0108  0.1314
  108OSM    H4F11062   6.045   6.885   6.293 -2.6318 -0.9561 -1.8930
  108OSM    H4G11063   6.070   6.759   6.177 -0.7969 -0.2793  1.2202
  108OSM    C5F11064   6.169   6.931   6.108  0.7969  0.3881 -0.1421
  108OSM    H5F11065   6.266   6.899   6.065  1.1625 -0.1772  1.0714
  108OSM    H5G11066   6.189   7.029   6.156 -0.9795  0.9387 -0.4145
  108OSM    C6F11067   6.053   6.954   6.003 -0.3038 -0.7158 -0.3351
  108OSM    H6F11068   5.955   6.956   6.055 -0.5366 -0.0675 -0.7855
  108OSM    H6G11069   6.042   6.873   5.928 -2.9892 -1.6639  0.9584
  108OSM    C7F11070   6.060   7.089   5.929  0.4745 -0.7291  0.1771
  108OSM    H7F11071   6.159   7.088   5.879  1.2322 -1.9334  1.6480
  108OSM    H7G11072   6.068   7.173   6.001  0.0232 -0.8721  0.3963
  108OSM    C8F11073   5.949   7.098   5.831  0.0660 -0.2290  0.5532
  108OSM    H8F11074   5.846   7.075   5.865 -0.8382 -1.2526 -2.5432
  108OSM    H8G11075   5.976   7.026   5.750 -0.6837 -1.1109  1.0682
  108OSM    C9F11076   5.944   7.238   5.760  0.2234  0.3454  0.2128
  108OSM    H9F11077   5.914   7.321   5.825 -0.9037 -1.6350  2.3935
  108OSM   C10F11078   6.000   7.271   5.638 -0.3125  0.3235 -0.2150
  108OSM   H10F11079   5.970   7.370   5.601 -2.3376 -0.3994 -0.6703
  108OSM   C11F11080   6.072   7.188   5.535  0.4157 -0.0592 -0.4468
  108OSM   H11F11081   6.090   7.084   5.568 -0.1477 -1.0292 -2.9628
  108OSM   H11G11082   6.171   7.230   5.509 -0.8072  0.8969 -4.2321
  108OSM   C12F11083   5.996   7.200   5.405 -0.2900 -0.1808  0.9557
  108OSM   H12F11084   5.887   7.181   5.414 -0.7954  0.7761 -1.9031
  108OSM   H12G11085   6.021   7.116   5.337 -1.1977 -0.8860  1.4646
  108OSM   C13F11086   6.012   7.326   5.320 -0.1062  0.2672  0.0056
  108OSM   H13F11087   6.116   7.346   5.285 -1.2941  4.5076 -1.7720
  108OSM   H13G11088   5.976   7.418   5.373 -0.5375 -0.1645  0.4722
  108OSM   C14F11089   5.936   7.320   5.187 -0.4775  0.4650  0.1523
  108OSM   H14F11090   5.829   7.334   5.212 -0.4534  1.0298 -0.0293
  108OSM   H14G11091   5.947   7.216   5.149  0.6745  0.3702  0.7162
  108OSM   C15F11092   5.981   7.415   5.072  0.3564  0.0580 -0.2153
  108OSM   H15F11093   6.091   7.421   5.086  0.3030 -0.1989  0.3732
  108OSM   H15G11094   5.925   7.507   5.101 -0.7135 -0.7310  0.3087
  108OSM   C16F11095   5.942   7.368   4.933 -0.0714 -0.3122 -0.1130
  108OSM   H16F11096   5.832   7.351   4.922 -0.1395 -0.2482  0.4596
  108OSM   H16G11097   5.992   7.272   4.910 -0.2248 -0.6546  0.9295
  108OSM   C17F11098   5.976   7.465   4.821 -0.1111 -0.5045  0.4593
  108OSM   H17F11099   6.080   7.503   4.832 -1.2113  2.4017  1.7882
  108OSM   H17G11100   5.912   7.555   4.831  0.4817  0.1070 -0.9541
  108OSM   C18F11101   5.964   7.411   4.681  0.5894  0.0418  0.6382
  108OSM   H18F11102   5.867   7.362   4.656  1.6372 -1.4304 -0.7573
  108OSM   H18G11103   6.037   7.329   4.664 -0.3081 -0.4787 -0.9191
  108OSM   H18H11104   5.984   7.495   4.612  2.5949 -0.7023  0.2493
  109OSM      N11105   1.603   0.851   7.114  0.0589 -0.1633  0.0829
  109OSM    C1511106   1.524   0.813   7.243 -0.5241  0.0657 -0.0510
  109OSM   H15A11107   1.450   0.741   7.214  0.3512 -0.5055 -0.9717
  109OSM   H15B11108   1.489   0.901   7.295  0.9806 -0.5884  2.2140
  109OSM   H15C11109   1.580   0.769   7.324 -0.6151 -0.5636 -0.3243
  109OSM    C1411110   1.721   0.927   7.161  0.0940 -0.0510 -0.8924
  109OSM   H14A11111   1.793   0.872   7.220 -1.9463 -1.8771  0.0160
  109OSM   H14B11112   1.692   1.012   7.221  0.1618 -1.7108  1.6227
  109OSM   H14C11113   1.769   0.973   7.076  1.0936  0.3121 -0.1527
  109OSM    C1311114   1.652   0.725   7.051 -0.1444  0.6420  0.1941
  109OSM   H13A11115   1.570   0.660   7.027 -0.2219  0.7371  0.2019
  109OSM   H13B11116   1.728   0.675   7.109  1.1961  1.7290 -0.5393
  109OSM   H13C11117   1.696   0.751   6.956 -0.9631 -1.1077 -0.7042
  109OSM    C1211118   1.521   0.944   7.022  0.4724  0.3612  0.0432
  109OSM   H12A11119   1.484   1.037   7.063 -1.3686  0.9546 -2.7014
  109OSM   H12B11120   1.432   0.890   6.993  0.8398  0.7554 -1.9586
  109OSM    C1111121   1.594   0.968   6.884  0.3254 -0.6006 -0.0093
  109OSM   H11A11122   1.525   1.030   6.822 -1.4621 -2.3287  0.1510
  109OSM   H11B11123   1.594   0.866   6.841  0.4059  0.2597 -2.1820
  109OSM      P11124   1.827   0.997   6.778 -0.2332 -0.1274  0.0134
  109OSM    O1311125   1.898   1.122   6.740 -0.2171 -0.0899 -0.2168
  109OSM    O1411126   1.916   0.889   6.809 -0.6323  0.0034  0.9548
  109OSM    O1111127   1.725   0.958   6.655  0.1928 -0.0766 -0.3937
  109OSM    O1211128   1.727   1.027   6.894  0.6571 -0.6697  0.1140
  109OSM    C1S11129   1.797   0.917   6.536  1.0892 -0.2044 -0.4577
  109OSM    H1S11130   1.834   0.814   6.556 -2.0157 -1.3326  0.0223
  109OSM    H1T11131   1.894   0.970   6.521  2.2848 -0.6263  4.3397
  109OSM     NF11132   1.741   0.838   6.306 -0.2504  0.5624 -0.2876
  109OSM    HNF11133   1.754   0.893   6.224 -2.5624 -0.3264 -1.3342
  109OSM    C2S11134   1.692   0.920   6.419  0.9198  0.4574  0.2927
  109OSM    H2S11135   1.604   0.867   6.463  0.2017  2.3748  1.3032
  109OSM    C3S11136   1.640   1.067   6.383 -0.3116  0.3086 -0.6054
  109OSM    H3S11137   1.717   1.114   6.317 -1.2562  0.8037 -1.3850
  109OSM     O311138   1.615   1.143   6.498 -0.5931  0.0137  0.2951
  109OSM    HO311139   1.643   1.087   6.571 -1.9371  1.1534  1.7561
  109OSM    C4S11140   1.533   1.048   6.285 -0.7079  0.3061 -0.2647
  109OSM    H4S11141   1.558   1.066   6.180  1.3525  0.3595  0.1729
  109OSM    C5S11142   1.401   1.022   6.305 -0.5269  0.3807  0.5751
  109OSM    H5S11143   1.368   1.021   6.410 -3.2949 -1.8008 -0.1743
  109OSM    C6S11144   1.296   0.979   6.205 -0.2060  0.2680  0.2869
  109OSM    H6S11145   1.217   1.057   6.195 -0.3922  0.0703  0.2112
  109OSM    H6T11146   1.250   0.896   6.263 -1.2029  1.4199  1.2072
  109OSM    C7S11147   1.344   0.909   6.066  0.0045  0.5729 -0.1896
  109OSM    H7S11148   1.408   0.822   6.093 -0.0232 -0.1679 -2.3812
  109OSM    H7T11149   1.409   0.973   6.003 -0.0373 -1.2684 -2.1917
  109OSM    C8S11150   1.225   0.858   5.985 -0.1256  0.4499  0.9804
  109OSM    H8S11151   1.140   0.851   6.056 -0.6863 -1.0932  0.1868
  109OSM    H8T11152   1.260   0.767   5.932  1.1080  0.5963  1.5043
  109OSM    C9S11153   1.186   0.947   5.865 -0.0979  0.6391 -0.3961
  109OSM    H9S11154   1.161   1.050   5.899 -3.0362 -1.0292  3.1991
  109OSM    H9T11155   1.092   0.905   5.823 -1.1781  1.0278  1.5261
  109OSM   C10S11156   1.296   0.936   5.755 -0.3386 -0.2621 -0.3798
  109OSM   H10S11157   1.327   0.831   5.736  1.0586  0.1352 -0.4051
  109OSM   H10T11158   1.372   1.007   5.793  1.3110 -1.1583 -1.8887
  109OSM   C11S11159   1.254   0.984   5.611  0.5898 -1.1601 -0.7972
  109OSM   H11S11160   1.342   1.023   5.556  1.0991 -1.3915 -0.1615
  109OSM   H11T11161   1.189   1.071   5.636  4.0469  1.4427 -0.0710
  109OSM   C12S11162   1.169   0.879   5.529 -0.1292  0.3129  0.0801
  109OSM   H12S11163   1.096   0.847   5.606  0.2567  0.2310  0.4185
  109OSM   H12T11164   1.228   0.786   5.513  1.6324  1.3106  0.4351
  109OSM   C13S11165   1.127   0.936   5.395 -0.0959  0.6425 -0.5596
  109OSM   H13S11166   1.208   0.950   5.320  0.4033  0.0083 -0.1499
  109OSM   H13T11167   1.081   1.036   5.406 -0.3286  0.4933 -0.1629
  109OSM   C14S11168   1.018   0.835   5.341 -0.4389  0.0459  0.6061
  109OSM   H14S11169   0.933   0.832   5.413 -1.3981  1.1693 -0.4273
  109OSM   H14T11170   1.062   0.733   5.341 -0.4073  0.0429 -0.5740
  109OSM   C15S11171   0.960   0.868   5.194 -0.1391  0.1834 -0.0891
  109OSM   H15S11172   0.928   0.974   5.183  1.4041  0.5895 -0.9290
  109OSM   H15T11173   0.872   0.801   5.187 -0.2371  0.1371  1.3286
  109OSM   C16S11174   1.059   0.825   5.089  0.1951 -0.0532  0.4959
  109OSM   H16S11175   1.121   0.739   5.119  0.4247 -0.6872 -1.6505
  109OSM   H16T11176   1.121   0.908   5.049 -0.4258  1.4855  2.5191
  109OSM   C17S11177   0.972   0.775   4.967 -0.5225  0.4573  0.0444
  109OSM   H17S11178   0.896   0.852   4.947 -0.7819  0.1908 -0.0067
  109OSM   H17T11179   0.915   0.687   5.004 -0.9334  0.7467  0.0993
  109OSM   C18S11180   1.060   0.738   4.848  0.0463 -0.1180  0.1201
  109OSM   H18S11181   1.158   0.695   4.880  0.5662  1.4152  0.6843
  109OSM   H18T11182   1.091   0.831   4.795  1.5360 -1.1566 -0.9476
  109OSM   H18U11183   1.010   0.683   4.765 -0.3460  0.3546  0.0425
  109OSM    C1F11184   1.763   0.704   6.305  0.0078 -0.2010 -0.6978
  109OSM     OF11185   1.747   0.642   6.413  0.5280  0.4329  0.8898
  109OSM    C2F11186   1.817   0.646   6.175 -1.2827 -0.1219 -0.8925
  109OSM    H2F11187   1.856   0.543   6.189 -0.2776  0.3534 -0.0676
  109OSM    H2G11188   1.910   0.698   6.141 -0.5015 -0.4485  0.6735
  109OSM    C3F11189   1.712   0.647   6.062  0.4184  0.5031 -0.0507
  109OSM    H3F11190   1.648   0.737   6.065 -1.2465 -0.6300 -0.0842
  109OSM    H3G11191   1.645   0.565   6.095 -0.1820  0.9667 -0.1124
  109OSM    C4F11192   1.771   0.622   5.919 -0.4036  0.3206 -0.2294
  109OSM    H4F11193   1.833   0.530   5.921  1.1904  1.2440  3.7130
  109OSM    H4G11194   1.841   0.704   5.895 -2.2049  1.7456 -0.8047
  109OSM    C5F11195   1.671   0.623   5.803 -0.0510 -0.0376 -0.1927
  109OSM    H5F11196   1.609   0.714   5.815 -0.6635 -0.3710 -0.7366
  109OSM    H5G11197   1.599   0.543   5.834 -1.3718  0.7479 -1.1269
  109OSM    C6F11198   1.727   0.592   5.658  0.1532 -0.4173 -0.6505
  109OSM    H6F11199   1.794   0.505   5.677 -1.0028 -1.1607  0.1073
  109OSM    H6G11200   1.795   0.670   5.616  1.1972 -0.7950  0.2898
  109OSM    C7F11201   1.612   0.552   5.563 -0.3968  0.0405  0.1264
  109OSM    H7F11202   1.544   0.489   5.624 -1.1246  1.1406  0.4798
  109OSM    H7G11203   1.659   0.492   5.483  0.7530  2.0415 -0.7665
  109OSM    C8F11204   1.522   0.664   5.514  1.2299 -0.2036  0.4235
  109OSM    H8F11205   1.495   0.713   5.611  1.2196 -0.7828  0.7155
  109OSM    H8G11206   1.431   0.617   5.472  1.2707  0.3713 -0.3270
  109OSM    C9F11207   1.591   0.757   5.413  0.3574 -0.6036  0.0056
  109OSM    H9F11208   1.667   0.815   5.466 -0.2293  1.4202 -1.2471
  109OSM   C10F11209   1.560   0.770   5.280 -0.4983  0.6889 -0.2377
  109OSM   H10F11210   1.631   0.827   5.218 -1.2337  0.6355 -1.1373
  109OSM   C11F11211   1.454   0.685   5.222  0.0519 -0.1415  0.3242
  109OSM   H11F11212   1.365   0.714   5.283  0.9730  2.6381  0.4696
  109OSM   H11G11213   1.472   0.577   5.243  1.8041  0.6660  3.5483
  109OSM   C12F11214   1.428   0.692   5.068  0.0974  0.3390 -0.6920
  109OSM   H12F11215   1.393   0.794   5.043 -0.3597  0.6564  1.0640
  109OSM   H12G11216   1.341   0.623   5.060 -1.5101  1.6721  2.9339
  109OSM   C13F11217   1.555   0.666   4.994  0.8051  0.5904  0.0142
  109OSM   H13F11218   1.618   0.588   5.040 -1.6084 -1.9070 -0.6652
  109OSM   H13G11219   1.616   0.759   4.993 -0.5630  1.6086  2.3105
  109OSM   C14F11220   1.535   0.632   4.844 -0.4812  0.1941 -0.2044
  109OSM   H14F11221   1.491   0.724   4.801 -0.1911  0.7163  0.5891
  109OSM   H14G11222   1.465   0.545   4.840  2.2577 -2.1719  0.4884
  109OSM   C15F11223   1.670   0.611   4.776 -0.0103 -0.5136 -0.2185
  109OSM   H15F11224   1.724   0.520   4.812  1.3233 -1.3181 -3.7927
  109OSM   H15G11225   1.732   0.698   4.808  0.0035 -0.2258 -1.0142
  109OSM   C16F11226   1.662   0.601   4.623 -0.9182 -0.2044  0.2317
  109OSM   H16F11227   1.589   0.681   4.601 -1.1201 -0.1888  0.9299
  109OSM   H16G11228   1.608   0.507   4.598  1.1064 -1.2424 -0.4474
  109OSM   C17F11229   1.793   0.597   4.543 -0.6554  0.1033  0.2291
  109OSM   H17F11230   1.843   0.697   4.549 -0.5275  0.0172  0.6956
  109OSM   H17G11231   1.777   0.575   4.436 -0.6528 -2.9491  0.7826
  109OSM   C18F11232   1.895   0.491   4.591  0.5019 -0.7999 -0.2637
  109OSM   H18F11233   1.859   0.387   4.574 -0.0154 -0.6901  0.1103
  109OSM   H18G11234   1.913   0.500   4.700  1.9213 -2.0950 -0.3526
  109OSM   H18H11235   1.993   0.511   4.544  0.8037 -0.6422  0.4293
  110OSM      N11236   3.157   6.156   7.056 -0.4888  0.8148  0.4581
  110OSM    C1511237   3.029   6.204   6.980  0.0547  0.2133 -0.4605
  110OSM   H15A11238   3.046   6.168   6.879  0.8791 -1.5752  0.2920
  110OSM   H15B11239   3.032   6.312   6.966  1.3468  0.3392  0.6393
  110OSM   H15C11240   2.933   6.177   7.020 -0.2030  0.9705 -0.5377
  110OSM    C1411241   3.281   6.199   6.980 -0.2284 -0.1720 -0.3677
  110OSM   H14A11242   3.287   6.160   6.879  1.2248 -1.4520  0.1904
  110OSM   H14B11243   3.365   6.159   7.034 -1.8535 -2.3210  0.7548
  110OSM   H14C11244   3.276   6.307   6.977  0.5483 -0.1455 -1.1860
  110OSM    C1311245   3.151   6.228   7.189 -0.0284  0.2962  0.4456
  110OSM   H13A11246   3.253   6.241   7.223  0.7399  1.5145 -2.0614
  110OSM   H13B11247   3.095   6.181   7.268  0.9408  2.9340  2.8639
  110OSM   H13C11248   3.110   6.326   7.171  1.4364  0.8488 -0.0486
  110OSM    C1211249   3.151   6.009   7.074  0.5720 -0.0401 -0.1135
  110OSM   H12A11250   3.056   5.986   7.121  1.4986 -1.4395  1.2206
  110OSM   H12B11251   3.226   5.975   7.144  0.9083  3.2618  1.2702
  110OSM    C1111252   3.153   5.917   6.946 -0.5845  0.6830  0.1808
  110OSM   H11A11253   3.149   5.811   6.978  0.7682  0.3225 -0.7218
  110OSM   H11B11254   3.252   5.924   6.896 -0.1668 -1.4933  0.5912
  110OSM      P11255   2.910   5.884   6.856 -0.1397 -0.2698  0.2298
  110OSM    O1311256   2.908   5.760   6.937  0.3236 -0.5674  0.1183
  110OSM    O1411257   2.819   5.992   6.897 -0.2499 -0.8919  0.5850
  110OSM    O1111258   2.880   5.842   6.708 -0.0027 -0.1235 -0.2068
  110OSM    O1211259   3.055   5.944   6.842  0.3820  0.1027  0.0446
  110OSM    C1S11260   2.926   5.927   6.601 -0.3122  0.5636  0.1803
  110OSM    H1S11261   3.032   5.903   6.577 -0.1461  1.3425  0.0940
  110OSM    H1T11262   2.918   6.038   6.610  0.7123  0.5138  2.1501
  110OSM     NF11263   2.922   5.951   6.357 -0.0085 -0.1527  0.2662
  110OSM    HNF11264   2.889   6.030   6.307 -2.6332 -2.0811 -1.2797
  110OSM    C2S11265   2.846   5.891   6.469 -0.2289 -0.1008  0.5337
  110OSM    H2S11266   2.854   5.781   6.468  0.2835 -0.0659  0.5185
  110OSM    C3S11267   2.701   5.934   6.483  1.1362  0.1235 -0.6438
  110OSM    H3S11268   2.705   6.045   6.481 -2.0524  0.3505 -0.8640
  110OSM     O311269   2.634   5.895   6.608 -0.1453  0.1568  0.0519
  110OSM    HO311270   2.716   5.895   6.658 -0.3831 -2.8379  0.6339
  110OSM    C4S11271   2.620   5.900   6.359  0.6005  0.3733 -0.1799
  110OSM    H4S11272   2.633   5.978   6.283  2.4425 -1.2607 -1.6713
  110OSM    C5S11273   2.526   5.802   6.341 -0.0668 -0.0809  0.6816
  110OSM    H5S11274   2.498   5.728   6.417 -2.4628  0.8114  0.7403
  110OSM    C6S11275   2.451   5.799   6.210  0.4905  0.0703 -1.1570
  110OSM    H6S11276   2.348   5.838   6.230  0.9347  0.9357 -0.4952
  110OSM    H6T11277   2.432   5.692   6.188  1.4408 -0.0439 -1.4449
  110OSM    C7S11278   2.499   5.866   6.084 -0.6607  0.4747 -0.5866
  110OSM    H7S11279   2.500   5.976   6.101 -2.8109  0.1232  2.7787
  110OSM    H7T11280   2.420   5.841   6.010  1.2122 -3.4981 -1.5224
  110OSM    C8S11281   2.633   5.816   6.034  0.0756 -0.2152  0.3162
  110OSM    H8S11282   2.627   5.706   6.023 -0.6871  0.0453 -2.6980
  110OSM    H8T11283   2.711   5.837   6.110  1.4305 -3.6007  0.0182
  110OSM    C9S11284   2.669   5.884   5.900 -0.3786 -0.0785 -0.3595
  110OSM    H9S11285   2.771   5.856   5.866  1.4716  3.8188  1.4265
  110OSM    H9T11286   2.681   5.994   5.911 -1.6809 -0.0483  1.1391
  110OSM   C10S11287   2.579   5.837   5.786  0.0097  0.5674 -0.4311
  110OSM   H10S11288   2.476   5.880   5.791  0.4555  1.5094  1.5337
  110OSM   H10T11289   2.573   5.726   5.781  4.0060  0.2088 -0.4689
  110OSM   C11S11290   2.613   5.898   5.650 -0.1832  0.1198  0.2875
  110OSM   H11S11291   2.716   5.871   5.619 -0.2031 -0.8746  1.0476
  110OSM   H11T11292   2.614   6.008   5.665 -1.7729  0.3595 -1.0537
  110OSM   C12S11293   2.522   5.860   5.538  0.7177 -0.0248  0.0350
  110OSM   H12S11294   2.437   5.931   5.540  0.8408  0.1914  3.4780
  110OSM   H12T11295   2.474   5.762   5.558 -0.9662  0.0649 -2.9587
  110OSM   C13S11296   2.594   5.853   5.404 -0.6943 -0.0409 -0.0970
  110OSM   H13S11297   2.679   5.782   5.416  1.0456  1.1768 -3.7947
  110OSM   H13T11298   2.640   5.953   5.390 -2.1266  0.7828  0.8347
  110OSM   C14S11299   2.513   5.813   5.286 -0.3628  0.5942 -0.3483
  110OSM   H14S11300   2.431   5.887   5.277 -0.5922  0.7356  2.1790
  110OSM   H14T11301   2.483   5.706   5.294 -0.2593  0.6064  0.2332
  110OSM   C15S11302   2.594   5.811   5.151 -0.5791 -0.8447  0.1271
  110OSM   H15S11303   2.662   5.724   5.148 -0.3238 -0.7005  1.3482
  110OSM   H15T11304   2.659   5.901   5.159  0.6973 -1.6624 -0.6270
  110OSM   C16S11305   2.510   5.813   5.025  0.1354  0.4843 -0.7491
  110OSM   H16S11306   2.454   5.909   5.026 -0.1070  0.3412 -0.1330
  110OSM   H16T11307   2.436   5.730   5.040 -0.2113  1.1896  2.1046
  110OSM   C17S11308   2.583   5.793   4.893  0.0017  0.5191 -0.0029
  110OSM   H17S11309   2.505   5.772   4.817 -1.0999  2.0699  0.6445
  110OSM   H17T11310   2.637   5.696   4.898 -1.6569 -0.4686 -0.2720
  110OSM   C18S11311   2.674   5.908   4.857  0.2733  0.4073  0.6799
  110OSM   H18S11312   2.765   5.908   4.920  1.2222 -0.1119 -0.6244
  110OSM   H18T11313   2.626   6.007   4.845 -2.1746 -0.7984 -0.0845
  110OSM   H18U11314   2.722   5.894   4.757 -0.0662 -0.4092  0.6276
  110OSM    C1F11315   3.035   5.892   6.316 -0.3655 -0.0091  0.1371
  110OSM     OF11316   3.078   5.795   6.374  0.1570  0.2182  0.0255
  110OSM    C2F11317   3.110   5.959   6.203  0.5096 -0.2349  0.0447
  110OSM    H2F11318   3.185   6.026   6.251 -1.8101  1.7019  1.2226
  110OSM    H2G11319   3.041   6.032   6.155 -0.6632 -1.5121 -0.2520
  110OSM    C3F11320   3.180   5.854   6.111  0.5617 -0.3989  0.6360
  110OSM    H3F11321   3.102   5.785   6.074  0.1088 -0.5460  1.8078
  110OSM    H3G11322   3.252   5.797   6.172  1.4334  1.4583  1.4445
  110OSM    C4F11323   3.241   5.921   5.993 -0.6048 -0.1027 -0.4725
  110OSM    H4F11324   3.312   6.001   6.023 -0.5708 -0.9918  2.1057
  110OSM    H4G11325   3.168   5.960   5.919 -1.9935 -1.2896  0.2169
  110OSM    C5F11326   3.332   5.823   5.912  0.4656  1.2930 -0.0265
  110OSM    H5F11327   3.274   5.730   5.899  0.2633  1.5636 -1.2256
  110OSM    H5G11328   3.423   5.796   5.969  1.3525 -0.7784 -2.2546
  110OSM    C6F11329   3.378   5.878   5.778 -0.4671 -0.0731  0.0650
  110OSM    H6F11330   3.420   5.980   5.788 -0.5995  0.2276 -1.9854
  110OSM    H6G11331   3.285   5.890   5.719 -1.1156 -0.2834  1.0138
  110OSM    C7F11332   3.485   5.800   5.700 -0.7440  0.0062  0.4390
  110OSM    H7F11333   3.436   5.703   5.677 -1.4520  0.3476  0.5102
  110OSM    H7G11334   3.565   5.781   5.776 -0.1859  0.5413  0.0025
  110OSM    C8F11335   3.547   5.860   5.572 -0.6910 -0.7193  0.0631
  110OSM    H8F11336   3.618   5.774   5.567  0.7695  0.4927 -1.4054
  110OSM    H8G11337   3.612   5.949   5.584  1.3000 -1.9794 -0.8609
  110OSM    C9F11338   3.453   5.866   5.459  0.1725 -0.6059 -0.1530
  110OSM    H9F11339   3.371   5.939   5.469  0.0503 -0.0342 -3.9910
  110OSM   C10F11340   3.451   5.784   5.352 -0.1042  0.1295  0.1635
  110OSM   H10F11341   3.376   5.796   5.272 -1.8046  2.6033  1.9682
  110OSM   C11F11342   3.550   5.675   5.321  0.5169  0.8270  0.5048
  110OSM   H11F11343   3.507   5.574   5.303  0.7118  1.1428 -2.1661
  110OSM   H11G11344   3.631   5.678   5.397  0.8915 -1.9765  0.3103
  110OSM   C12F11345   3.619   5.694   5.182 -0.1188  0.3227 -0.2825
  110OSM   H12F11346   3.550   5.652   5.105 -1.1738 -0.3014  0.9542
  110OSM   H12G11347   3.704   5.623   5.186  0.1252  0.6640  0.9483
  110OSM   C13F11348   3.682   5.823   5.153  0.2782  0.5754  0.5381
  110OSM   H13F11349   3.742   5.861   5.238 -0.4148  2.1171  0.3741
  110OSM   H13G11350   3.603   5.900   5.143 -0.3569  0.1407  1.9373
  110OSM   C14F11351   3.758   5.827   5.021 -0.0513 -0.1043 -0.3492
  110OSM   H14F11352   3.841   5.753   5.026  2.3694  2.3309 -1.3140
  110OSM   H14G11353   3.804   5.928   5.010 -1.7012  0.7847  0.5602
  110OSM   C15F11354   3.677   5.797   4.898  0.2888 -0.5789 -0.1802
  110OSM   H15F11355   3.616   5.888   4.878  3.6413  1.9885  0.2666
  110OSM   H15G11356   3.620   5.703   4.914  3.4159 -2.8076 -1.0779
  110OSM   C16F11357   3.767   5.784   4.773 -0.4435  0.3999 -0.2005
  110OSM   H16F11358   3.857   5.725   4.800 -0.3203  0.3024 -0.8089
  110OSM   H16G11359   3.810   5.881   4.740 -0.2910  1.1734  2.0680
  110OSM   C17F11360   3.693   5.712   4.657  0.4781  0.0593  0.1211
  110OSM   H17F11361   3.653   5.613   4.687  0.3836 -0.7704 -2.4667
  110OSM   H17G11362   3.774   5.690   4.584  1.7098  3.7057  0.1775
  110OSM   C18F11363   3.585   5.800   4.606  0.8004 -0.7055  0.2094
  110OSM   H18F11364   3.627   5.901   4.582 -1.3076  0.5415  1.4651
  110OSM   H18G11365   3.509   5.820   4.684  0.5038  2.2932 -0.6950
  110OSM   H18H11366   3.531   5.758   4.518 -2.6796 -2.0434  2.7666
  111OSM      N11367   6.020   3.729   6.910  0.4079 -0.1277  0.6983
  111OSM    C1511368   5.931   3.806   7.007  0.1744  0.1343  0.3817
  111OSM   H15A11369   5.855   3.860   6.953 -0.8871 -1.4363  0.2685
  111OSM   H15B11370   5.985   3.876   7.070 -1.2699  0.3113  1.4843
  111OSM   H15C11371   5.871   3.747   7.074  1.0273 -0.6182  0.5129
  111OSM    C1411372   5.929   3.684   6.797 -0.0878  0.1418 -0.9339
  111OSM   H14A11373   5.976   3.658   6.704  1.4846 -0.8975  0.1093
  111OSM   H14B11374   5.863   3.768   6.779 -1.6757 -0.8312  0.0824
  111OSM   H14C11375   5.875   3.596   6.831  2.2762 -0.5831  1.2974
  111OSM    C1311376   6.111   3.838   6.846  0.1748 -0.1064 -0.5424
  111OSM   H13A11377   6.140   3.896   6.933 -1.3803 -0.0262 -0.0491
  111OSM   H13B11378   6.057   3.908   6.785 -0.2052  0.6046  0.5742
  111OSM   H13C11379   6.195   3.789   6.798  0.9114 -0.0966  0.6882
  111OSM    C1211380   6.104   3.622   6.977 -0.5504 -0.1646 -0.3728
  111OSM   H12A11381   6.040   3.559   7.036 -0.9339 -1.3575 -2.0030
  111OSM   H12B11382   6.183   3.673   7.031 -2.2196  4.0325 -1.4553
  111OSM    C1111383   6.186   3.534   6.875 -0.1043 -0.4521 -0.6099
  111OSM   H11A11384   6.111   3.490   6.805 -1.2007  2.5492 -1.4736
  111OSM   H11B11385   6.219   3.450   6.940 -2.3713 -2.0823 -1.4097
  111OSM      P11386   6.423   3.647   6.883 -0.1924 -0.4085 -0.4203
  111OSM    O1311387   6.409   3.624   7.028  0.0203  0.5640  0.4319
  111OSM    O1411388   6.548   3.590   6.825 -0.4565 -0.6272  0.0442
  111OSM    O1111389   6.436   3.808   6.861 -0.3381 -0.0456 -0.6992
  111OSM    O1211390   6.295   3.605   6.808 -0.0234  0.5190 -0.3662
  111OSM    C1S11391   6.444   3.854   6.724 -0.8093 -0.3883  0.1947
  111OSM    H1S11392   6.352   3.837   6.664 -2.0942 -0.1994  2.0345
  111OSM    H1T11393   6.531   3.811   6.670 -0.4029  0.3084  0.2833
  111OSM     NF11394   6.456   4.075   6.603 -0.6360 -0.1045  0.5669
  111OSM    HNF11395   6.545   4.091   6.561 -0.6726 -1.7912 -0.2329
  111OSM    C2S11396   6.464   4.012   6.733 -0.4879 -0.2301 -0.7387
  111OSM    H2S11397   6.377   4.047   6.792  0.0277  1.2887 -0.8260
  111OSM    C3S11398   6.591   4.049   6.829  0.2836  1.1290  0.4251
  111OSM    H3S11399   6.683   3.999   6.792 -0.1589  0.8103 -0.2593
  111OSM     O311400   6.571   3.997   6.964 -0.7500  0.1817  0.1218
  111OSM    HO311401   6.506   3.928   6.948  1.0581 -1.0996 -2.6153
  111OSM    C4S11402   6.593   4.197   6.830  0.2228  0.0858 -0.0739
  111OSM    H4S11403   6.503   4.239   6.879 -0.1464  0.5486 -1.1314
  111OSM    C5S11404   6.683   4.281   6.777 -0.0442  0.5949 -0.1025
  111OSM    H5S11405   6.760   4.245   6.707 -1.1631  1.9537 -2.1494
  111OSM    C6S11406   6.678   4.431   6.778 -0.4493 -0.1933  0.7645
  111OSM    H6S11407   6.766   4.478   6.827  0.0588 -1.2420  0.8761
  111OSM    H6T11408   6.584   4.459   6.832 -0.7115  0.5519 -0.0514
  111OSM    C7S11409   6.646   4.487   6.630  0.4879  0.7967 -0.3955
  111OSM    H7S11410   6.644   4.598   6.639  0.5973  0.7313  0.5268
  111OSM    H7T11411   6.541   4.458   6.607  0.7598  0.1313 -0.8176
  111OSM    C8S11412   6.756   4.447   6.523 -0.2118 -0.3038 -0.1028
  111OSM    H8S11413   6.716   4.381   6.443 -1.3631 -1.1331  1.1108
  111OSM    H8T11414   6.846   4.404   6.570  0.0525  0.0866 -0.2426
  111OSM    C9S11415   6.811   4.575   6.454 -0.5352 -0.7846 -1.3279
  111OSM    H9S11416   6.912   4.552   6.412 -0.2454 -1.1579 -0.4477
  111OSM    H9T11417   6.833   4.651   6.532 -0.5881 -1.2676 -0.8325
  111OSM   C10S11418   6.710   4.625   6.356  0.5323  0.4176  0.0243
  111OSM   H10S11419   6.624   4.667   6.413  1.0017 -0.5101  1.4509
  111OSM   H10T11420   6.677   4.545   6.286  0.3400  2.1092 -1.9280
  111OSM   C11S11421   6.766   4.728   6.258  0.3908 -0.0688  0.2793
  111OSM   H11S11422   6.853   4.689   6.200  0.0017 -0.9787  0.2911
  111OSM   H11T11423   6.804   4.811   6.321  2.5356 -1.2837  0.7012
  111OSM   C12S11424   6.653   4.787   6.171 -0.0566  0.9700  0.0208
  111OSM   H12S11425   6.579   4.840   6.235 -1.1074 -0.8319  0.3498
  111OSM   H12T11426   6.608   4.700   6.119  2.0095 -1.1596  1.5558
  111OSM   C13S11427   6.702   4.886   6.065 -0.2863  0.4722  0.3405
  111OSM   H13S11428   6.791   4.841   6.014  0.3109 -0.2553  1.9445
  111OSM   H13T11429   6.744   4.969   6.126  0.1772 -0.9690  2.0765
  111OSM   C14S11430   6.601   4.918   5.959  0.7031  0.2351 -0.3305
  111OSM   H14S11431   6.588   4.828   5.895 -0.6826 -0.0374  0.2996
  111OSM   H14T11432   6.639   5.000   5.894 -1.4506  2.8404  1.5222
  111OSM   C15S11433   6.466   4.956   6.022  0.8208  0.3187 -0.3437
  111OSM   H15S11434   6.483   5.022   6.110  2.3460  1.3520 -1.3532
  111OSM   H15T11435   6.414   4.867   6.062  2.0790 -0.9571 -1.4789
  111OSM   C16S11436   6.365   5.035   5.931  0.4203 -0.6047 -0.1419
  111OSM   H16S11437   6.391   5.041   5.823  0.3757  0.4964 -0.1027
  111OSM   H16T11438   6.365   5.138   5.974 -1.4310 -0.9828  0.8921
  111OSM   C17S11439   6.228   4.966   5.926  0.2905  0.7621  0.2722
  111OSM   H17S11440   6.193   4.954   6.031  1.7608 -2.1679  0.5397
  111OSM   H17T11441   6.239   4.867   5.876  0.4848  0.9399 -0.0400
  111OSM   C18S11442   6.128   5.050   5.842  0.8334 -0.0338 -0.1329
  111OSM   H18S11443   6.155   5.045   5.734  0.3418  2.9580 -0.4994
  111OSM   H18T11444   6.120   5.153   5.884 -0.7840  0.2315 -1.0158
  111OSM   H18U11445   6.024   5.012   5.845  1.2163 -1.3376 -1.9345
  111OSM    C1F11446   6.346   4.071   6.528  0.3609 -0.0918  0.2148
  111OSM     OF11447   6.238   4.054   6.581  0.2351 -0.6460 -1.2016
  111OSM    C2F11448   6.371   4.110   6.390 -0.2600  0.0124 -0.6753
  111OSM    H2F11449   6.460   4.176   6.385 -0.1754 -0.1513 -1.5093
  111OSM    H2G11450   6.281   4.169   6.362 -1.1480  0.1637  2.1946
  111OSM    C3F11451   6.383   3.995   6.287 -0.5096  0.1309 -0.4137
  111OSM    H3F11452   6.289   3.935   6.287 -0.4608  0.0406 -1.0865
  111OSM    H3G11453   6.465   3.927   6.318 -0.8189  0.1507  0.4583
  111OSM    C4F11454   6.402   4.055   6.150 -1.0957  0.2915 -0.0057
  111OSM    H4F11455   6.488   4.124   6.160 -1.2087  0.4801 -0.3370
  111OSM    H4G11456   6.320   4.122   6.116  0.0585  1.2543 -0.9761
  111OSM    C5F11457   6.430   3.944   6.042  0.1843 -0.1008 -0.4047
  111OSM    H5F11458   6.352   3.869   6.016  0.1781  0.7635 -3.1995
  111OSM    H5G11459   6.523   3.897   6.083  0.6423  0.3406 -0.9169
  111OSM    C6F11460   6.472   3.999   5.906  0.3730 -0.4059  0.3011
  111OSM    H6F11461   6.468   4.110   5.901 -0.8313 -0.3870  1.3071
  111OSM    H6G11462   6.400   3.953   5.835  1.0704 -0.8448 -0.1385
  111OSM    C7F11463   6.602   3.938   5.851  0.0307 -0.0380  0.4445
  111OSM    H7F11464   6.585   3.829   5.847 -2.6944  0.2619  1.9701
  111OSM    H7G11465   6.692   3.970   5.909  0.4950 -2.4349  1.1475
  111OSM    C8F11466   6.639   3.970   5.703  0.3691  0.3131  0.4349
  111OSM    H8F11467   6.550   3.936   5.646  0.8879 -1.2100  0.4949
  111OSM    H8G11468   6.718   3.901   5.667 -0.2222  0.6422 -1.6113
  111OSM    C9F11469   6.675   4.116   5.662 -0.1430  1.0275 -0.5749
  111OSM    H9F11470   6.780   4.145   5.676 -0.5325  2.4352 -0.4441
  111OSM   C10F11471   6.587   4.205   5.606  0.2959  0.6349 -0.0125
  111OSM   H10F11472   6.624   4.298   5.562 -2.4058  0.6735 -2.4652
  111OSM   C11F11473   6.436   4.177   5.591 -0.7376 -0.3642  0.6819
  111OSM   H11F11474   6.376   4.246   5.654  0.0096  1.0806 -0.1355
  111OSM   H11G11475   6.397   4.083   5.635 -4.6038  0.0591 -1.3511
  111OSM   C12F11476   6.384   4.216   5.447 -0.6337  0.0390  0.4300
  111OSM   H12F11477   6.396   4.326   5.445 -0.9276  0.0764  0.7484
  111OSM   H12G11478   6.275   4.197   5.448 -0.4647 -1.0169  2.0665
  111OSM   C13F11479   6.453   4.141   5.329  0.2146 -0.5065 -0.2193
  111OSM   H13F11480   6.448   4.034   5.360  1.1442 -0.0841  1.5378
  111OSM   H13G11481   6.560   4.171   5.325  0.0422 -0.0049 -1.2394
  111OSM   C14F11482   6.388   4.141   5.192  0.5034 -0.3006  0.1456
  111OSM   H14F11483   6.288   4.094   5.189 -0.5721  1.8995 -0.0007
  111OSM   H14G11484   6.447   4.087   5.115 -1.8294  0.6178 -2.4273
  111OSM   C15F11485   6.363   4.283   5.137  0.9981  0.7211  0.0702
  111OSM   H15F11486   6.459   4.339   5.138  1.8107 -0.6290  1.6305
  111OSM   H15G11487   6.299   4.336   5.210 -0.4155 -0.3368 -0.3493
  111OSM   C16F11488   6.288   4.291   4.995 -0.5307 -0.4869  0.5390
  111OSM   H16F11489   6.276   4.400   4.975 -1.0571 -0.8867 -1.4776
  111OSM   H16G11490   6.186   4.253   5.017 -0.9884  0.1170 -0.4679
  111OSM   C17F11491   6.354   4.227   4.875  0.0791  0.2617  0.0541
  111OSM   H17F11492   6.340   4.118   4.886 -0.0704  0.3827  1.1272
  111OSM   H17G11493   6.462   4.252   4.885 -0.1122  0.2909  2.7301
  111OSM   C18F11494   6.300   4.276   4.742 -0.3961 -0.0244  0.2716
  111OSM   H18F11495   6.346   4.226   4.653  2.0902  2.8543 -0.2425
  111OSM   H18G11496   6.309   4.386   4.727  0.8234 -0.4865 -3.5003
  111OSM   H18H11497   6.191   4.260   4.730 -0.2438  0.1027 -1.6961
  112OSM      N11498   3.361   1.532   7.351 -0.1468  0.3767 -0.5245
  112OSM    C1511499   3.220   1.558   7.310 -0.6289  0.4243 -0.2100
  112OSM   H15A11500   3.207   1.652   7.258 -1.3257  1.4179  1.6513
  112OSM   H15B11501   3.154   1.561   7.395 -0.0824  0.4392  0.2235
  112OSM   H15C11502   3.176   1.484   7.246 -1.0129 -1.5039  2.1297
  112OSM    C1411503   3.395   1.598   7.482 -0.0348  1.0410  0.3867
  112OSM   H14A11504   3.345   1.557   7.568 -1.7293 -0.0208 -1.0381
  112OSM   H14B11505   3.390   1.705   7.469 -0.9728  1.1015  1.1762
  112OSM   H14C11506   3.499   1.575   7.500 -0.2890 -0.7278 -0.2417
  112OSM    C1311507   3.382   1.381   7.364 -0.0750  0.0865  0.1923
  112OSM   H13A11508   3.489   1.365   7.364  0.4235  2.6287 -2.1483
  112OSM   H13B11509   3.349   1.324   7.278  0.8068  2.6995 -2.0316
  112OSM   H13C11510   3.336   1.360   7.459  1.2899 -1.1624  0.6249
  112OSM    C1211511   3.466   1.585   7.252 -0.7494 -0.2841 -0.7000
  112OSM   H12A11512   3.565   1.561   7.288 -0.2053  2.2637 -0.3320
  112OSM   H12B11513   3.464   1.692   7.269 -2.0924 -0.5991  1.5530
  112OSM    C1111514   3.455   1.551   7.097 -0.1735 -0.9760 -0.1269
  112OSM   H11A11515   3.555   1.568   7.053 -0.4314 -1.6595 -1.0026
  112OSM   H11B11516   3.381   1.623   7.055 -1.7696 -2.9043 -0.7808
  112OSM      P11517   3.287   1.391   6.986 -0.3301 -0.1559  0.5196
  112OSM    O1311518   3.214   1.269   7.021 -0.2194  0.1844  0.2221
  112OSM    O1411519   3.202   1.510   6.994  0.1359  0.1245  0.1822
  112OSM    O1111520   3.339   1.378   6.839 -0.4562 -0.0507 -0.6419
  112OSM    O1211521   3.412   1.416   7.080 -0.6432 -0.0055  0.3428
  112OSM    C1S11522   3.447   1.296   6.795 -0.1717 -0.0998 -0.0365
  112OSM    H1S11523   3.418   1.189   6.794 -1.5598  0.2412  0.8386
  112OSM    H1T11524   3.536   1.291   6.862 -1.8965 -2.5064  2.3033
  112OSM     NF11525   3.561   1.231   6.591  0.8377 -0.9797  0.6269
  112OSM    HNF11526   3.658   1.249   6.578  0.7127  1.6264  2.4656
  112OSM    C2S11527   3.488   1.342   6.655 -0.2468 -0.6372 -0.0378
  112OSM    H2S11528   3.393   1.360   6.600 -0.6025  0.8678  1.0298
  112OSM    C3S11529   3.564   1.480   6.671 -0.3113  0.5297  0.0500
  112OSM    H3S11530   3.666   1.469   6.713 -0.4287  0.5161  0.3320
  112OSM     O311531   3.516   1.556   6.782 -0.2880  0.0548  1.0391
  112OSM    HO311532   3.455   1.491   6.819 -0.0957  0.3221  1.8410
  112OSM    C4S11533   3.572   1.558   6.544 -0.0217  0.3751  0.1122
  112OSM    H4S11534   3.649   1.520   6.475 -0.4709  0.2543 -0.3304
  112OSM    C5S11535   3.510   1.666   6.506  0.3637 -0.4820 -0.3870
  112OSM    H5S11536   3.437   1.708   6.577  1.1104 -1.4958  1.0207
  112OSM    C6S11537   3.524   1.720   6.364 -0.8038  0.6384 -0.0443
  112OSM    H6S11538   3.574   1.819   6.366 -0.8018  0.6805 -1.3353
  112OSM    H6T11539   3.428   1.748   6.317  0.4054  2.6103 -1.4933
  112OSM    C7S11540   3.593   1.640   6.242  0.2829  0.2322 -0.2201
  112OSM    H7S11541   3.549   1.539   6.225 -0.0856  0.3421  0.0565
  112OSM    H7T11542   3.700   1.624   6.266 -0.1402 -1.4190  0.7388
  112OSM    C8S11543   3.590   1.719   6.109 -0.3777 -0.0991  1.0567
  112OSM    H8S11544   3.648   1.812   6.124  0.5634 -0.6007  0.6394
  112OSM    H8T11545   3.488   1.758   6.089  1.3772  4.0083 -1.1743
  112OSM    C9S11546   3.638   1.657   5.978  0.5577 -0.1226  0.5569
  112OSM    H9S11547   3.635   1.736   5.900  1.2799 -1.7824 -1.2280
  112OSM    H9T11548   3.572   1.582   5.931 -0.1072  2.1995 -2.5286
  112OSM   C10S11549   3.787   1.608   5.969  0.5049 -0.0064 -0.3473
  112OSM   H10S11550   3.790   1.538   6.055 -2.5230 -1.9505 -1.6609
  112OSM   H10T11551   3.860   1.689   5.992 -0.8966  1.2674 -0.2046
  112OSM   C11S11552   3.823   1.537   5.828  0.3650 -0.2641 -0.0693
  112OSM   H11S11553   3.753   1.451   5.821  1.7550 -1.3074 -2.0369
  112OSM   H11T11554   3.923   1.491   5.834 -0.4379 -1.9738  1.2520
  112OSM   C12S11555   3.802   1.621   5.703 -0.1569  0.0381  0.9232
  112OSM   H12S11556   3.709   1.681   5.696  0.7810  1.4550 -0.1464
  112OSM   H12T11557   3.808   1.552   5.617  2.4188 -1.5884  2.2676
  112OSM   C13S11558   3.915   1.719   5.662  0.0193 -0.7293 -0.1737
  112OSM   H13S11559   4.008   1.676   5.705  1.8476  1.4639 -1.7026
  112OSM   H13T11560   3.897   1.810   5.723 -2.0810 -0.5254 -0.9953
  112OSM   C14S11561   3.943   1.731   5.512 -0.2292 -0.0739  0.4819
  112OSM   H14S11562   3.853   1.784   5.476  1.5976  1.4750 -2.1669
  112OSM   H14T11563   3.947   1.630   5.465 -0.4367  0.7447 -1.3783
  112OSM   C15S11564   4.067   1.818   5.484 -0.3172 -0.0950  0.4756
  112OSM   H15S11565   4.156   1.776   5.537  0.2419 -0.0725 -0.4215
  112OSM   H15T11566   4.056   1.925   5.512  0.7761 -0.1552  1.2357
  112OSM   C16S11567   4.107   1.818   5.329  0.2251  0.3328 -0.5367
  112OSM   H16S11568   4.186   1.896   5.328 -1.4195  2.0884 -0.2271
  112OSM   H16T11569   4.021   1.856   5.269 -1.5566 -3.5428 -0.7256
  112OSM   C17S11570   4.157   1.678   5.268 -0.1360 -0.0507 -0.1867
  112OSM   H17S11571   4.076   1.607   5.240 -0.5232 -0.9152  2.7711
  112OSM   H17T11572   4.201   1.617   5.350  0.0515  1.0246  0.5271
  112OSM   C18S11573   4.259   1.683   5.155 -0.4701 -0.9290  0.6187
  112OSM   H18S11574   4.353   1.723   5.199 -0.2655 -0.9215  0.1717
  112OSM   H18T11575   4.223   1.754   5.078  1.1932 -0.5667  0.1470
  112OSM   H18U11576   4.290   1.588   5.107  0.9169  0.0509 -0.4796
  112OSM    C1F11577   3.495   1.137   6.531 -0.5295  0.1700  0.0596
  112OSM     OF11578   3.378   1.117   6.567  0.2242  0.8333  0.1313
  112OSM    C2F11579   3.576   1.051   6.441 -0.0027  0.5560  0.2363
  112OSM    H2F11580   3.647   0.993   6.503  2.1067  1.4006 -1.2685
  112OSM    H2G11581   3.635   1.115   6.372  0.6216  0.3873  0.6083
  112OSM    C3F11582   3.481   0.966   6.353  0.7025 -0.3037 -0.2974
  112OSM    H3F11583   3.429   0.893   6.418  1.6835 -0.1305  0.7166
  112OSM    H3G11584   3.539   0.922   6.269  1.6226  1.1279 -0.4548
  112OSM    C4F11585   3.383   1.055   6.268  0.2204  0.0806 -0.3617
  112OSM    H4F11586   3.301   1.093   6.332 -0.6763 -0.9867 -0.8460
  112OSM    H4G11587   3.332   0.984   6.200 -0.7842  0.5789 -0.1513
  112OSM    C5F11588   3.456   1.163   6.185 -0.2310  0.4225 -0.8933
  112OSM    H5F11589   3.549   1.110   6.153  0.0504 -0.1105  0.7462
  112OSM    H5G11590   3.487   1.248   6.249 -0.9787 -0.1857  0.3112
  112OSM    C6F11591   3.369   1.205   6.069  0.8631 -0.2941 -1.0034
  112OSM    H6F11592   3.261   1.205   6.095  1.2221 -0.4442  0.5728
  112OSM    H6G11593   3.402   1.133   5.991  0.3744 -1.4676 -0.1611
  112OSM    C7F11594   3.400   1.339   6.004 -0.3294 -0.1067  1.1676
  112OSM    H7F11595   3.505   1.338   5.967 -0.9941 -0.7202 -0.8496
  112OSM    H7G11596   3.403   1.415   6.085 -1.0222  0.6595  0.4984
  112OSM    C8F11597   3.302   1.385   5.888  0.0760 -0.0467  0.2492
  112OSM    H8F11598   3.337   1.487   5.864  0.6880 -0.3209 -0.0709
  112OSM    H8G11599   3.205   1.393   5.941  1.5827  0.5175  3.1555
  112OSM    C9F11600   3.301   1.297   5.765 -0.3693 -0.6255 -0.3054
  112OSM    H9F11601   3.384   1.225   5.757 -0.1765 -0.3184 -1.1878
  112OSM   C10F11602   3.196   1.293   5.676  0.6026 -0.4849  0.3554
  112OSM   H10F11603   3.197   1.214   5.599 -1.1257 -0.5460  0.3575
  112OSM   C11F11604   3.070   1.377   5.677 -1.0115 -1.0362  0.1502
  112OSM   H11F11605   3.087   1.457   5.753  0.1266 -0.1881 -0.9559
  112OSM   H11G11606   2.978   1.328   5.716 -1.3294  0.7687  1.8294
  112OSM   C12F11607   3.047   1.453   5.543  0.2763 -0.0227  1.1766
  112OSM   H12F11608   3.139   1.506   5.510 -1.4416  2.2389 -0.2672
  112OSM   H12G11609   2.979   1.540   5.551 -0.7678 -0.3089 -2.5518
  112OSM   C13F11610   2.979   1.361   5.436 -0.0320 -0.4684 -0.4736
  112OSM   H13F11611   2.886   1.333   5.490 -0.2879  1.9272  0.4041
  112OSM   H13G11612   3.047   1.275   5.416  0.4267 -0.3958  0.6711
  112OSM   C14F11613   2.951   1.445   5.307 -0.9187 -0.5111  0.7674
  112OSM   H14F11614   2.892   1.537   5.326 -1.0064 -0.5483  0.6761
  112OSM   H14G11615   2.891   1.385   5.235 -0.9213 -1.0188  1.1897
  112OSM   C15F11616   3.079   1.484   5.235 -0.5683 -0.0899  0.1458
  112OSM   H15F11617   3.134   1.390   5.217 -0.2141  0.2046 -0.3396
  112OSM   H15G11618   3.139   1.547   5.304  2.4721 -2.9011  0.3151
  112OSM   C16F11619   3.034   1.556   5.102  0.2988  0.5338 -0.0153
  112OSM   H16F11620   2.995   1.656   5.133  0.3170  0.0821  1.5530
  112OSM   H16G11621   2.947   1.510   5.050 -0.1760 -0.0360  1.2438
  112OSM   C17F11622   3.151   1.562   5.000  0.4410 -0.0183 -0.2091
  112OSM   H17F11623   3.228   1.627   5.045 -2.4714  3.8606 -0.3811
  112OSM   H17G11624   3.107   1.609   4.909 -1.6936 -0.9974  0.2602
  112OSM   C18F11625   3.210   1.431   4.958  0.4025  0.9740 -0.3030
  112OSM   H18F11626   3.268   1.389   5.043  0.2739  1.4902  0.0439
  112OSM   H18G11627   3.279   1.432   4.871  1.2367 -1.7210  0.2232
  112OSM   H18H11628   3.134   1.352   4.944  2.5221 -1.1472 -0.4782
  113OSM      N11629   0.055   2.734   7.439 -0.0536 -0.6456  0.5200
  113OSM    C1511630   0.056   2.843   7.335 -0.2386  0.8648 -1.1626
  113OSM   H15A11631   0.139   2.826   7.268  0.2896  0.0262 -0.3254
  113OSM   H15B11632   0.081   2.933   7.389  2.8564 -0.3532 -0.3167
  113OSM   H15C11633  -0.040   2.846   7.285 -1.1902  0.6458  0.5568
  113OSM    C1411634   0.182   2.752   7.516  0.9163  0.3360  0.2269
  113OSM   H14A11635   0.188   2.844   7.572  0.3467  0.8392 -0.5127
  113OSM   H14B11636   0.270   2.738   7.456  1.4647 -1.6413  1.4165
  113OSM   H14C11637   0.182   2.673   7.589 -0.6402  0.5398  0.4873
  113OSM    C1311638  -0.068   2.763   7.527 -0.1797  0.1312  0.9307
  113OSM   H13A11639  -0.070   2.700   7.614 -2.4401 -0.2878  0.6270
  113OSM   H13B11640  -0.160   2.737   7.478  0.3416 -1.7344  0.8509
  113OSM   H13C11641  -0.077   2.868   7.548 -0.9930  0.2974 -0.1637
  113OSM    C1211642   0.042   2.596   7.370 -0.9351 -0.2568 -0.4542
  113OSM   H12A11643  -0.038   2.607   7.298 -0.5373  2.6168 -0.5872
  113OSM   H12B11644   0.017   2.522   7.445  1.4200 -2.3188 -1.5855
  113OSM    C1111645   0.165   2.544   7.284  0.4603 -0.0218 -0.4315
  113OSM   H11A11646   0.136   2.454   7.226 -0.0737 -1.3960  1.8221
  113OSM   H11B11647   0.249   2.512   7.349  2.1168 -1.4546 -3.0898
  113OSM      P11648   0.339   2.644   7.116 -0.3060  0.4451 -0.3730
  113OSM    O1311649   0.373   2.763   7.038  0.2506 -0.6958  0.5849
  113OSM    O1411650   0.451   2.589   7.203  0.0840 -0.0933  0.3074
  113OSM    O1111651   0.296   2.522   7.021  0.4731  0.3178  0.2256
  113OSM    O1211652   0.210   2.656   7.204 -0.1270  1.0759  0.2013
  113OSM    C1S11653   0.346   2.522   6.889  0.3163  0.5085  0.2166
  113OSM    H1S11654   0.456   2.541   6.888  0.4406 -0.1044  0.9139
  113OSM    H1T11655   0.299   2.601   6.827 -2.0449 -0.6971  0.3606
  113OSM     NF11656   0.357   2.395   6.680  0.4392 -0.0409  0.0336
  113OSM    HNF11657   0.291   2.422   6.610 -0.7107  0.2843  1.2002
  113OSM    C2S11658   0.302   2.392   6.816 -0.1005 -0.2800 -0.3988
  113OSM    H2S11659   0.348   2.310   6.875 -0.2141  0.0269  0.1155
  113OSM    C3S11660   0.146   2.385   6.815 -0.2059  0.0982  0.1734
  113OSM    H3S11661   0.114   2.477   6.762 -0.7163  0.1741  0.6125
  113OSM     O311662   0.080   2.396   6.939  0.3229  0.4663  0.8115
  113OSM    HO311663   0.147   2.440   6.992  0.7053  0.4147  0.3745
  113OSM    C4S11664   0.096   2.259   6.752  0.5381 -0.3855  0.5037
  113OSM    H4S11665   0.133   2.168   6.802  1.6671 -0.4902 -0.5020
  113OSM    C5S11666  -0.001   2.244   6.667 -0.3223  0.0091  0.2464
  113OSM    H5S11667  -0.061   2.334   6.649 -0.2876  0.7589  3.3181
  113OSM    C6S11668  -0.051   2.111   6.623 -0.1940 -0.1739 -0.0004
  113OSM    H6S11669  -0.139   2.115   6.554  0.4381 -0.3228 -0.8281
  113OSM    H6T11670  -0.078   2.055   6.715  0.3898  1.2197  1.0617
  113OSM    C7S11671   0.068   2.035   6.561  0.0008 -0.3019 -0.0285
  113OSM    H7S11672   0.045   1.927   6.551 -1.1767 -0.0292 -0.4696
  113OSM    H7T11673   0.152   2.049   6.633  0.9110  2.5109 -1.4889
  113OSM    C8S11674   0.111   2.095   6.425  0.0516 -0.3109  0.1195
  113OSM    H8S11675   0.140   2.202   6.437 -1.0279  0.1075 -0.8354
  113OSM    H8T11676   0.018   2.093   6.365 -0.2182  1.0503  0.4525
  113OSM    C9S11677   0.222   2.015   6.360  0.2569 -0.1441 -0.5089
  113OSM    H9S11678   0.189   1.909   6.355  1.3994 -0.7339  2.5245
  113OSM    H9T11679   0.303   2.005   6.436  0.0674  1.4528 -0.0380
  113OSM   C10S11680   0.273   2.072   6.226  0.6724  0.1028 -0.0313
  113OSM   H10S11681   0.349   2.153   6.238 -0.8697  1.6104 -0.1278
  113OSM   H10T11682   0.176   2.108   6.187  0.2435 -1.6548 -0.6835
  113OSM   C11S11683   0.326   1.961   6.132  0.2939 -0.4405  0.0192
  113OSM   H11S11684   0.264   1.869   6.136  0.3581 -0.5768 -1.5897
  113OSM   H11T11685   0.433   1.940   6.153  0.7687  2.6129  1.1267
  113OSM   C12S11686   0.320   2.019   5.985 -0.1475  0.4870 -0.0870
  113OSM   H12S11687   0.401   2.093   5.965 -0.4510  0.8981  0.1977
  113OSM   H12T11688   0.231   2.081   5.961  0.8435  2.3168  0.7970
  113OSM   C13S11689   0.330   1.897   5.890 -0.5293  0.1693  0.6041
  113OSM   H13S11690   0.257   1.816   5.913  1.0864 -1.3179  0.7378
  113OSM   H13T11691   0.431   1.854   5.903 -0.5986  0.0545  0.7718
  113OSM   C14S11692   0.323   1.940   5.740 -0.3110 -0.7492 -0.3567
  113OSM   H14S11693   0.399   2.019   5.717 -2.8639  1.6340 -1.2205
  113OSM   H14T11694   0.217   1.972   5.729 -0.0423 -0.2419 -1.6008
  113OSM   C15S11695   0.345   1.827   5.639 -0.2399 -0.0395 -0.6736
  113OSM   H15S11696   0.275   1.748   5.673  0.1860  0.6972  2.1365
  113OSM   H15T11697   0.449   1.789   5.628 -0.6211 -1.4121  0.2284
  113OSM   C16S11698   0.297   1.873   5.496 -0.4420  0.0822  0.3269
  113OSM   H16S11699   0.188   1.891   5.494 -0.0809  2.5938 -2.0613
  113OSM   H16T11700   0.301   1.783   5.432  1.3864  0.9416 -0.8633
  113OSM   C17S11701   0.365   1.997   5.445 -0.2160  0.3696 -0.4141
  113OSM   H17S11702   0.474   1.980   5.447  0.3322  3.4085  1.1282
  113OSM   H17T11703   0.351   2.079   5.519 -1.2700 -2.1515  2.3819
  113OSM   C18S11704   0.318   2.034   5.308 -0.4955  0.3147  0.2740
  113OSM   H18S11705   0.215   2.076   5.311 -0.2079  1.0650 -0.0003
  113OSM   H18T11706   0.336   1.949   5.239  2.3656  0.6860  0.4478
  113OSM   H18U11707   0.388   2.115   5.276 -2.2474  2.4254  1.4714
  113OSM    C1F11708   0.483   2.369   6.657 -0.3217  0.4924 -0.3601
  113OSM     OF11709   0.563   2.376   6.746  0.5464 -0.2936  0.5675
  113OSM    C2F11710   0.525   2.325   6.515  0.7268  0.0767 -1.0164
  113OSM    H2F11711   0.512   2.411   6.447 -1.8924  0.2246 -0.4428
  113OSM    H2G11712   0.448   2.254   6.479  0.8259 -0.2587 -0.5855
  113OSM    C3F11713   0.660   2.248   6.516 -0.2868 -0.1576  0.3666
  113OSM    H3F11714   0.638   2.156   6.575 -0.9888 -0.6763 -0.6681
  113OSM    H3G11715   0.733   2.312   6.569  0.6865  1.1744 -2.3876
  113OSM    C4F11716   0.712   2.192   6.382  0.4076  0.1879 -0.4871
  113OSM    H4F11717   0.656   2.099   6.357  2.6288 -1.5653  0.6238
  113OSM    H4G11718   0.816   2.158   6.403  0.1419  0.1073  0.7679
  113OSM    C5F11719   0.704   2.300   6.273  0.9114 -0.2665  0.3419
  113OSM    H5F11720   0.756   2.389   6.315 -0.4500  0.7113  0.0064
  113OSM    H5G11721   0.602   2.336   6.249  1.2241 -0.8039 -2.1474
  113OSM    C6F11722   0.780   2.262   6.144 -0.6812 -0.6244 -0.5754
  113OSM    H6F11723   0.888   2.259   6.169 -0.5783 -0.3845 -0.9723
  113OSM    H6G11724   0.772   2.353   6.081 -0.5642 -0.6122 -0.5744
  113OSM    C7F11725   0.727   2.146   6.069 -0.1666  0.1917 -0.3091
  113OSM    H7F11726   0.616   2.142   6.075 -0.1324  0.0814  0.2886
  113OSM    H7G11727   0.758   2.056   6.126  0.8279 -1.2435 -2.9125
  113OSM    C8F11728   0.773   2.126   5.921 -0.5095 -0.1679  1.1317
  113OSM    H8F11729   0.715   2.038   5.887  1.1321 -1.6640  2.0548
  113OSM    H8G11730   0.882   2.112   5.906 -0.6572  1.2135 -2.0466
  113OSM    C9F11731   0.747   2.234   5.822  0.2216  0.2057  0.5939
  113OSM    H9F11732   0.766   2.334   5.863 -0.1629  1.0608 -1.1991
  113OSM   C10F11733   0.710   2.222   5.689  0.4103 -0.2157 -0.5621
  113OSM   H10F11734   0.685   2.312   5.630 -0.4036 -1.5882 -2.4293
  113OSM   C11F11735   0.693   2.092   5.616 -0.1013  0.3604 -0.2029
  113OSM   H11F11736   0.589   2.053   5.617  0.0278 -0.0778  2.1586
  113OSM   H11G11737   0.757   2.008   5.651 -2.3427 -1.6420 -0.6457
  113OSM   C12F11738   0.732   2.117   5.467  0.1354 -0.0358 -0.1894
  113OSM   H12F11739   0.716   2.017   5.421 -1.1208  0.6855 -1.4238
  113OSM   H12G11740   0.842   2.132   5.462  0.8889 -3.6112  2.2827
  113OSM   C13F11741   0.650   2.217   5.396  0.6540 -0.1795 -0.3334
  113OSM   H13F11742   0.643   2.320   5.437 -0.8691 -0.6064  0.5595
  113OSM   H13G11743   0.545   2.182   5.398  0.6562 -0.4459 -2.4165
  113OSM   C14F11744   0.697   2.237   5.250 -0.0102 -0.7525  0.8695
  113OSM   H14F11745   0.692   2.144   5.189 -5.3758 -0.3477  0.1809
  113OSM   H14G11746   0.804   2.267   5.254  0.0957 -1.2504  2.7016
  113OSM   C15F11747   0.620   2.354   5.194 -0.2076  0.5806  0.3971
  113OSM   H15F11748   0.655   2.445   5.247  1.4816  1.2990 -1.7817
  113OSM   H15G11749   0.512   2.347   5.220 -0.6187  1.8983 -0.7756
  113OSM   C16F11750   0.633   2.365   5.041  0.0368  0.0049 -0.8478
  113OSM   H16F11751   0.741   2.384   5.028  0.5930 -0.2868  2.3466
  113OSM   H16G11752   0.581   2.458   5.009  0.7119  1.0108  0.8111
  113OSM   C17F11753   0.579   2.251   4.949 -0.7603 -0.1032 -0.1285
  113OSM   H17F11754   0.479   2.221   4.987 -0.6860 -0.6401 -0.3432
  113OSM   H17G11755   0.666   2.183   4.966  2.0737  3.0929 -0.7152
  113OSM   C18F11756   0.578   2.280   4.797  0.5009  0.3558  0.0514
  113OSM   H18F11757   0.675   2.281   4.744  0.5124  0.4241  0.0734
  113OSM   H18G11758   0.537   2.383   4.784 -1.3683 -0.6188 -2.6341
  113OSM   H18H11759   0.513   2.202   4.752  0.3582  0.8460 -0.6112
  114OSM      N11760   4.139   1.030   7.124  0.0170 -0.2597  0.0352
  114OSM    C1511761   4.178   1.145   7.045 -0.7883 -0.4994  0.4380
  114OSM   H15A11762   4.089   1.202   7.020 -0.0335  0.4129 -0.2377
  114OSM   H15B11763   4.232   1.110   6.958 -0.4153 -0.2058  0.5490
  114OSM   H15C11764   4.234   1.217   7.102 -0.8014 -1.8623  2.2436
  114OSM    C1411765   4.266   0.962   7.164  0.1234 -0.4639  1.1253
  114OSM   H14A11766   4.248   0.911   7.257 -1.4064 -0.7108  0.7209
  114OSM   H14B11767   4.337   1.042   7.177  1.0991 -0.9749 -0.6762
  114OSM   H14C11768   4.294   0.896   7.082 -0.5004  1.9494 -1.1898
  114OSM    C1311769   4.071   1.080   7.247 -0.3236  0.3287  0.5372
  114OSM   H13A11770   4.045   0.996   7.310  0.9276 -0.6748 -0.2358
  114OSM   H13B11771   3.982   1.137   7.224 -1.6845 -0.8283  2.5979
  114OSM   H13C11772   4.142   1.135   7.307  0.9370 -0.7541  0.0907
  114OSM    C1211773   4.044   0.935   7.044 -0.3104 -0.6510 -0.5376
  114OSM   H12A11774   3.947   0.983   7.041 -0.0286  0.2579  2.0270
  114OSM   H12B11775   4.033   0.847   7.105 -1.0368  0.5743  1.1881
  114OSM    C1111776   4.081   0.887   6.904  0.6738  0.1301  0.2070
  114OSM   H11A11777   4.078   0.978   6.840  2.1807  0.0874  0.0425
  114OSM   H11B11778   3.998   0.819   6.873 -0.3519  0.9384  1.0908
  114OSM      P11779   4.241   0.690   6.939  0.5935 -0.1516  0.4519
  114OSM    O1311780   4.365   0.700   7.027  0.2485 -0.2832  0.0417
  114OSM    O1411781   4.118   0.633   6.997  0.7512 -0.5385  0.0600
  114OSM    O1111782   4.271   0.611   6.811 -0.4472  0.1284  0.0133
  114OSM    O1211783   4.206   0.827   6.882  0.6327 -0.2546  0.2993
  114OSM    C1S11784   4.178   0.617   6.702  0.0909 -0.3576  0.1477
  114OSM    H1S11785   4.102   0.697   6.711  1.3456  0.8417  0.4866
  114OSM    H1T11786   4.124   0.520   6.694 -0.1928 -0.1289 -0.9663
  114OSM     NF11787   4.165   0.683   6.462  0.1935  0.4121 -0.2022
  114OSM    HNF11788   4.121   0.613   6.406 -0.3017 -0.0999  0.8012
  114OSM    C2S11789   4.252   0.644   6.565  0.7089  0.3502  0.7061
  114OSM    H2S11790   4.330   0.720   6.588  1.1367  0.2905 -0.4718
  114OSM    C3S11791   4.337   0.516   6.517  0.1868 -0.4104 -0.0702
  114OSM    H3S11792   4.255   0.453   6.477 -1.0763  1.0060  0.2287
  114OSM     O311793   4.408   0.445   6.617  0.1732 -0.0152  0.3872
  114OSM    HO311794   4.374   0.482   6.699 -0.0948 -0.2128  0.3676
  114OSM    C4S11795   4.437   0.533   6.406  0.3466 -0.0310 -0.0637
  114OSM    H4S11796   4.525   0.594   6.431 -1.9860  2.7457  2.1059
  114OSM    C5S11797   4.437   0.465   6.289 -0.2599  0.3188  0.2809
  114OSM    H5S11798   4.356   0.393   6.272 -0.4644  0.4272  0.7954
  114OSM    C6S11799   4.545   0.462   6.182  0.1260  0.1564 -0.2752
  114OSM    H6S11800   4.627   0.396   6.217 -1.1150 -0.3950  1.7744
  114OSM    H6T11801   4.589   0.562   6.162  2.2328 -0.5381  0.6117
  114OSM    C7S11802   4.500   0.409   6.046  0.1087  0.5269 -0.9957
  114OSM    H7S11803   4.400   0.444   6.009  0.1063 -0.4036 -1.9445
  114OSM    H7T11804   4.489   0.298   6.045 -3.1957  0.7542 -1.2892
  114OSM    C8S11805   4.585   0.451   5.928  0.4418  0.6617  0.5178
  114OSM    H8S11806   4.693   0.442   5.951  0.3684 -1.0015  0.2662
  114OSM    H8T11807   4.556   0.558   5.914 -2.1040 -0.0260  0.0414
  114OSM    C9S11808   4.559   0.361   5.805 -0.6848  0.3741 -0.4291
  114OSM    H9S11809   4.450   0.341   5.806 -0.3152 -1.8594 -0.1596
  114OSM    H9T11810   4.600   0.261   5.830 -1.2419  0.2505  0.0220
  114OSM   C10S11811   4.611   0.419   5.669 -0.4167  0.0564  0.3476
  114OSM   H10S11812   4.636   0.339   5.596 -0.3015  1.1677 -0.8747
  114OSM   H10T11813   4.703   0.479   5.686 -1.1460  1.3226  0.0422
  114OSM   C11S11814   4.516   0.511   5.608  0.5210  0.5691  0.8024
  114OSM   H11S11815   4.495   0.596   5.676  0.3013  1.0260  0.1651
  114OSM   H11T11816   4.420   0.464   5.578  0.2037  2.7526 -1.9668
  114OSM   C12S11817   4.571   0.572   5.473  0.1986 -0.1639 -0.2614
  114OSM   H12S11818   4.588   0.497   5.393  1.3420  1.1510 -1.2980
  114OSM   H12T11819   4.665   0.623   5.504 -0.4398  2.3330 -2.1335
  114OSM   C13S11820   4.486   0.694   5.427 -0.5271  0.7182 -0.1792
  114OSM   H13S11821   4.531   0.794   5.443 -0.0582  0.6652 -1.1101
  114OSM   H13T11822   4.403   0.706   5.500  1.1385  0.9595  1.7473
  114OSM   C14S11823   4.429   0.666   5.286  0.8985  0.0592 -0.2005
  114OSM   H14S11824   4.352   0.586   5.291 -1.2722  2.0584  0.7047
  114OSM   H14T11825   4.511   0.634   5.219  0.8757  1.1112 -0.7551
  114OSM   C15S11826   4.363   0.789   5.230  0.2515 -0.7784 -0.5052
  114OSM   H15S11827   4.447   0.858   5.208  0.0858 -0.1272  0.7983
  114OSM   H15T11828   4.310   0.848   5.308  1.5529 -0.3900  0.0976
  114OSM   C16S11829   4.291   0.759   5.098  0.0610  0.3594 -0.2782
  114OSM   H16S11830   4.192   0.717   5.125  0.4441 -0.0263  0.5917
  114OSM   H16T11831   4.352   0.682   5.045  0.7548  0.9959 -0.4120
  114OSM   C17S11832   4.273   0.879   5.006  0.3628 -0.2995 -1.1144
  114OSM   H17S11833   4.371   0.926   4.983  0.7896 -0.1894  0.7841
  114OSM   H17T11834   4.201   0.949   5.052  0.3554 -0.6810 -0.5334
  114OSM   C18S11835   4.201   0.827   4.872 -0.0161  0.6383 -0.4070
  114OSM   H18S11836   4.258   0.738   4.837  1.2445  0.8628  0.9953
  114OSM   H18T11837   4.202   0.910   4.798  1.7212  0.7765 -0.2649
  114OSM   H18U11838   4.096   0.803   4.898 -0.3007  1.9095 -0.3366
  114OSM    C1F11839   4.099   0.803   6.472  0.2044  0.2846  0.5894
  114OSM     OF11840   4.134   0.896   6.539  0.1223 -0.5749  0.1860
  114OSM    C2F11841   3.964   0.814   6.408 -0.3307 -0.1647 -0.7232
  114OSM    H2F11842   3.880   0.825   6.481 -0.4624  0.0617 -0.9066
  114OSM    H2G11843   3.947   0.717   6.357 -0.1525 -0.7194  0.2466
  114OSM    C3F11844   3.957   0.917   6.301  0.4570  0.8071 -0.0689
  114OSM    H3F11845   4.052   0.914   6.244 -0.1306  0.1640 -1.0497
  114OSM    H3G11846   3.953   1.014   6.355 -2.0195 -1.2935  3.9642
  114OSM    C4F11847   3.843   0.900   6.204 -0.1797  0.0464  1.3234
  114OSM    H4F11848   3.740   0.903   6.247 -0.7374 -0.8367  0.1231
  114OSM    H4G11849   3.844   0.802   6.152  1.8499 -0.0659  1.5147
  114OSM    C5F11850   3.839   1.003   6.088  0.5099 -0.4625 -0.3784
  114OSM    H5F11851   3.940   1.002   6.042  0.4700 -0.6169 -0.4628
  114OSM    H5G11852   3.814   1.105   6.125 -0.9463 -0.5227 -1.1508
  114OSM    C6F11853   3.738   0.978   5.971 -0.5509 -0.7457 -0.1802
  114OSM    H6F11854   3.640   0.962   6.021 -0.0634  1.3329  1.5897
  114OSM    H6G11855   3.772   0.884   5.922  0.7179 -0.4792  0.1400
  114OSM    C7F11856   3.725   1.094   5.874  0.9515 -0.1036  0.4011
  114OSM    H7F11857   3.829   1.118   5.845  1.1750 -1.1101  0.3502
  114OSM    H7G11858   3.686   1.184   5.926  1.5460 -0.4275  1.4316
  114OSM    C8F11859   3.645   1.063   5.747  0.6367 -0.2102 -0.3727
  114OSM    H8F11860   3.543   1.038   5.784  0.3832  0.1062 -0.8584
  114OSM    H8G11861   3.684   0.969   5.703  4.4633  1.1705 -0.2777
  114OSM    C9F11862   3.650   1.177   5.654  0.2903  0.2853 -0.1458
  114OSM    H9F11863   3.639   1.278   5.699 -0.7859  0.8531 -1.6154
  114OSM   C10F11864   3.695   1.180   5.532 -0.2034  0.0233 -0.1949
  114OSM   H10F11865   3.703   1.271   5.471  1.1915 -0.7833 -1.2909
  114OSM   C11F11866   3.741   1.062   5.450 -0.2970 -0.5836 -0.3466
  114OSM   H11F11867   3.650   1.005   5.421  0.6259 -1.5454 -1.4392
  114OSM   H11G11868   3.802   0.989   5.508 -0.4720 -1.0711 -0.7690
  114OSM   C12F11869   3.821   1.088   5.319 -0.3101  0.2381  0.6525
  114OSM   H12F11870   3.917   1.143   5.326  0.3916 -0.4887 -1.9962
  114OSM   H12G11871   3.756   1.148   5.251 -2.0193  0.5273  2.4649
  114OSM   C13F11872   3.859   0.960   5.240  0.3728 -0.3894  0.1627
  114OSM   H13F11873   3.900   0.895   5.320 -2.3844 -0.1343  1.9048
  114OSM   H13G11874   3.935   0.987   5.163  2.4028 -1.4432  1.6845
  114OSM   C14F11875   3.739   0.890   5.169 -0.4095  0.3571  0.5577
  114OSM   H14F11876   3.649   0.888   5.234 -0.9328  3.2470  0.0776
  114OSM   H14G11877   3.774   0.788   5.143  1.1443  1.0395 -0.2037
  114OSM   C15F11878   3.684   0.949   5.037 -0.8741 -0.5663  0.0015
  114OSM   H15F11879   3.770   0.967   4.969 -0.6276 -0.0865  0.4329
  114OSM   H15G11880   3.629   1.042   5.061 -2.1714 -1.2052 -0.3923
  114OSM   C16F11881   3.589   0.861   4.953  0.1361  0.0709 -0.0724
  114OSM   H16F11882   3.516   0.823   5.029  1.8676 -2.0112  0.6525
  114OSM   H16G11883   3.639   0.776   4.904 -1.4924 -1.2721  0.4677
  114OSM   C17F11884   3.522   0.937   4.841  0.3004  0.0098  0.2342
  114OSM   H17F11885   3.591   1.007   4.789 -0.6278  0.4928 -0.3764
  114OSM   H17G11886   3.445   0.998   4.892  0.9893  2.4133 -1.4358
  114OSM   C18F11887   3.453   0.847   4.739 -0.0639 -0.3457 -0.8653
  114OSM   H18F11888   3.409   0.764   4.797 -0.2231 -0.4060 -1.0706
  114OSM   H18G11889   3.525   0.815   4.660 -0.8903 -0.9413 -1.3950
  114OSM   H18H11890   3.370   0.907   4.695 -0.7102  0.1376  0.9247
  115OSM      N11891   4.951   4.189   6.969  0.5151 -0.3329 -0.4391
  115OSM    C1511892   4.838   4.277   6.992  0.3532  0.3232 -0.7430
  115OSM   H15A11893   4.831   4.305   7.097  0.7703  0.4357 -0.7429
  115OSM   H15B11894   4.744   4.232   6.964  1.2932 -0.8243 -2.2218
  115OSM   H15C11895   4.846   4.371   6.940  2.2000  0.4133 -0.3707
  115OSM    C1411896   5.078   4.266   7.002  0.4616 -0.5560 -0.1437
  115OSM   H14A11897   5.091   4.362   6.954  1.3582 -0.2908  0.6162
  115OSM   H14B11898   5.165   4.206   6.977  0.9480  1.3234 -3.5196
  115OSM   H14C11899   5.072   4.276   7.109  1.8564  1.5121 -0.2163
  115OSM    C1311900   4.939   4.072   7.057  0.7940 -0.4194  0.1522
  115OSM   H13A11901   4.849   4.018   7.032 -1.0400  2.6060 -0.2566
  115OSM   H13B11902   4.927   4.096   7.162  0.8869  0.6139 -0.0653
  115OSM   H13C11903   5.016   3.998   7.040  0.4417 -0.9362  0.7528
  115OSM    C1211904   4.957   4.151   6.829 -0.1366  0.6627 -0.2192
  115OSM   H12A11905   4.968   4.241   6.769  2.2808  0.9161  0.5107
  115OSM   H12B11906   4.860   4.110   6.803 -1.1278  1.0454  2.5895
  115OSM    C1111907   5.067   4.047   6.777 -0.0528  0.7353 -0.0457
  115OSM   H11A11908   5.167   4.088   6.801 -0.4943  1.3721  0.7398
  115OSM   H11B11909   5.058   4.047   6.666  1.7682  0.5715 -0.2222
  115OSM      P11910   5.067   3.784   6.777  0.3948  0.1354 -0.2432
  115OSM    O1311911   5.139   3.698   6.869 -0.3765  0.1220 -0.0645
  115OSM    O1411912   4.939   3.734   6.730  0.0688  0.0632  0.0728
  115OSM    O1111913   5.155   3.824   6.645 -0.1282 -0.5367  0.6040
  115OSM    O1211914   5.045   3.922   6.842  0.0146 -0.8202 -0.1683
  115OSM    C1S11915   5.245   3.729   6.588  0.3888  0.5101 -0.2868
  115OSM    H1S11916   5.180   3.652   6.542 -1.1684  1.2299  0.6069
  115OSM    H1T11917   5.310   3.685   6.666  0.3573 -0.2560 -0.6780
  115OSM     NF11918   5.417   3.685   6.417  0.1331 -0.0785 -0.6878
  115OSM    HNF11919   5.513   3.691   6.441 -0.2682  1.0983  0.8214
  115OSM    C2S11920   5.327   3.783   6.473  0.2372 -0.3097 -0.6363
  115OSM    H2S11921   5.248   3.801   6.397 -0.4666 -3.6894 -0.8369
  115OSM    C3S11922   5.400   3.919   6.510  0.3983  0.4017 -0.2041
  115OSM    H3S11923   5.479   3.908   6.587  0.4255  0.9718 -0.1422
  115OSM     O311924   5.306   4.028   6.549 -0.4241  0.4177 -0.4387
  115OSM    HO311925   5.242   3.983   6.606  0.8619 -0.1593  0.6097
  115OSM    C4S11926   5.483   3.963   6.382 -0.1277  0.7194  0.8177
  115OSM    H4S11927   5.577   3.908   6.363 -1.8312 -2.0585 -0.1142
  115OSM    C5S11928   5.441   4.048   6.290  0.8329 -0.4103 -0.1619
  115OSM    H5S11929   5.359   4.117   6.311  2.3066  1.7079 -0.9627
  115OSM    C6S11930   5.513   4.072   6.155 -0.5989  0.3072 -0.8739
  115OSM    H6S11931   5.614   4.026   6.165  0.3095  2.6103  2.1727
  115OSM    H6T11932   5.521   4.178   6.123  1.7033  0.0295 -1.3836
  115OSM    C7S11933   5.435   3.987   6.051 -0.2253 -0.1713  0.1702
  115OSM    H7S11934   5.341   4.039   6.026  0.3404  0.5413 -0.5500
  115OSM    H7T11935   5.401   3.893   6.099  2.1721 -0.1730  2.0837
  115OSM    C8S11936   5.501   3.966   5.909  0.5569 -0.2971  0.4010
  115OSM    H8S11937   5.430   3.919   5.837 -0.4387  1.1618  0.3845
  115OSM    H8T11938   5.594   3.906   5.921 -1.0496 -2.8084  0.9076
  115OSM    C9S11939   5.546   4.104   5.853  0.7031  0.5231  0.3528
  115OSM    H9S11940   5.628   4.136   5.921 -0.5504  2.1582  1.1469
  115OSM    H9T11941   5.462   4.176   5.852  0.9519  0.8667  1.9506
  115OSM   C10S11942   5.606   4.084   5.709  0.2635  0.0602  0.0486
  115OSM   H10S11943   5.687   4.009   5.718 -0.2147 -0.3425  1.0857
  115OSM   H10T11944   5.645   4.187   5.699  0.0658  0.2082  0.7509
  115OSM   C11S11945   5.501   4.039   5.600  0.5961  0.0937  0.2513
  115OSM   H11S11946   5.406   4.094   5.619  0.2491  0.2267 -1.6472
  115OSM   H11T11947   5.470   3.933   5.603 -0.8100  0.4841  0.6357
  115OSM   C12S11948   5.560   4.063   5.458  0.6356 -0.0479 -0.2329
  115OSM   H12S11949   5.625   4.153   5.457  2.0790 -1.0534 -1.9830
  115OSM   H12T11950   5.471   4.074   5.393  0.0819  0.1552  0.5452
  115OSM   C13S11951   5.635   3.936   5.412 -0.4679  0.4290 -0.1532
  115OSM   H13S11952   5.686   3.895   5.502  1.8656  1.5437 -0.8927
  115OSM   H13T11953   5.712   3.960   5.336 -0.1522 -0.8774 -0.2695
  115OSM   C14S11954   5.555   3.822   5.358  0.8502  0.1533 -0.1190
  115OSM   H14S11955   5.488   3.782   5.438  0.6794 -3.1090 -1.7255
  115OSM   H14T11956   5.621   3.737   5.329  0.4454 -0.1532 -0.1523
  115OSM   C15S11957   5.463   3.852   5.235  0.5606  0.1770 -0.6884
  115OSM   H15S11958   5.381   3.922   5.262 -0.8712 -2.3908  2.2028
  115OSM   H15T11959   5.414   3.756   5.208 -0.3493  0.5049 -0.2509
  115OSM   C16S11960   5.538   3.913   5.113 -0.0740 -0.4887 -0.1722
  115OSM   H16S11961   5.623   3.847   5.086  0.9404  0.6194  0.2184
  115OSM   H16T11962   5.574   4.018   5.118 -1.1595 -0.0055 -1.7670
  115OSM   C17S11963   5.433   3.910   4.992 -0.4460  0.1745 -0.5776
  115OSM   H17S11964   5.347   3.973   5.023  1.0781  1.3192  1.5612
  115OSM   H17T11965   5.392   3.807   4.986 -1.1610  0.0395  3.5463
  115OSM   C18S11966   5.503   3.965   4.870  0.0241  0.0686  0.2962
  115OSM   H18S11967   5.600   3.918   4.843  0.5802  1.6015 -0.4511
  115OSM   H18T11968   5.516   4.075   4.876 -1.1463  0.3654 -1.7622
  115OSM   H18U11969   5.440   3.950   4.780  0.8363  3.3339 -0.9331
  115OSM    C1F11970   5.381   3.579   6.348 -0.2644  0.3452 -0.5373
  115OSM     OF11971   5.265   3.544   6.338 -0.2501  0.3143 -0.0713
  115OSM    C2F11972   5.499   3.503   6.299  0.2158 -0.0858 -0.2317
  115OSM    H2F11973   5.470   3.397   6.284 -0.5592 -0.0154  0.7015
  115OSM    H2G11974   5.582   3.498   6.374 -1.7987  0.1503  2.1232
  115OSM    C3F11975   5.569   3.559   6.171  0.3025 -0.2557  0.3629
  115OSM    H3F11976   5.664   3.503   6.160  0.1926 -0.7398  1.7379
  115OSM    H3G11977   5.593   3.667   6.182 -0.6729  0.2631 -2.0079
  115OSM    C4F11978   5.479   3.554   6.046 -0.1755  0.2444  0.4800
  115OSM    H4F11979   5.407   3.638   6.048 -0.5513 -0.0093 -1.1864
  115OSM    H4G11980   5.432   3.453   6.046 -0.7010  0.4729 -1.0961
  115OSM    C5F11981   5.552   3.565   5.908  0.7731 -0.2555 -0.1685
  115OSM    H5F11982   5.622   3.479   5.899  0.4250 -0.8539  2.1748
  115OSM    H5G11983   5.610   3.659   5.895  1.8714 -1.0832 -1.5350
  115OSM    C6F11984   5.445   3.556   5.802  1.0075  0.0164  0.0479
  115OSM    H6F11985   5.360   3.628   5.802  1.6332  0.7758  0.8288
  115OSM    H6G11986   5.400   3.455   5.807  2.2425 -0.4847  2.9456
  115OSM    C7F11987   5.509   3.574   5.660  0.5576 -0.1833 -0.3537
  115OSM    H7F11988   5.558   3.674   5.665  2.0491 -0.9364  1.9595
  115OSM    H7G11989   5.427   3.577   5.585  0.7164  4.0717 -0.6167
  115OSM    C8F11990   5.617   3.468   5.625 -0.2896 -0.0938  0.4229
  115OSM    H8F11991   5.568   3.369   5.637 -2.5524  0.7725 -0.8992
  115OSM    H8G11992   5.709   3.465   5.687 -0.7575 -0.1635  1.1184
  115OSM    C9F11993   5.667   3.477   5.480  0.0518  0.2305  0.1276
  115OSM    H9F11994   5.774   3.503   5.471  0.8802 -3.2472 -2.0700
  115OSM   C10F11995   5.599   3.433   5.372  0.5926  0.7035  0.6819
  115OSM   H10F11996   5.658   3.430   5.278 -0.1807  2.2773  0.0969
  115OSM   C11F11997   5.457   3.383   5.357 -0.6719 -0.0995  0.1838
  115OSM   H11F11998   5.400   3.368   5.452 -1.6548 -3.7981 -0.8382
  115OSM   H11G11999   5.459   3.283   5.309  1.8118 -0.1895  0.3676
  115OSM   C12F12000   5.370   3.482   5.269 -0.5526 -0.8891  0.6188
  115OSM   H12F12001   5.378   3.583   5.315 -1.5863 -0.5296  0.0420
  115OSM   H12G12002   5.264   3.449   5.272 -0.7221 -0.5794 -0.9784
  115OSM   C13F12003   5.403   3.494   5.116 -0.1448  0.0960 -0.1677
  115OSM   H13F12004   5.511   3.504   5.092  0.2482  1.3787  1.8802
  115OSM   H13G12005   5.357   3.591   5.088  1.2212  1.1825  1.1285
  115OSM   C14F12006   5.362   3.362   5.038 -0.2142  0.6329  0.4452
  115OSM   H14F12007   5.405   3.271   5.085  0.5719  0.5284 -0.4424
  115OSM   H14G12008   5.391   3.366   4.931  1.3134  1.4565  0.8641
  115OSM   C15F12009   5.207   3.350   5.048 -0.4487  0.4383  0.3196
  115OSM   H15F12010   5.182   3.310   5.149  1.8497  0.0242  0.7668
  115OSM   H15G12011   5.177   3.275   4.972  1.6938  1.3862 -1.5641
  115OSM   C16F12012   5.123   3.468   5.006 -0.0868  0.5011  0.3584
  115OSM   H16F12013   5.145   3.551   5.076 -0.3148 -2.3511  4.0957
  115OSM   H16G12014   5.012   3.454   5.012 -0.0872  0.3428  0.0138
  115OSM   C17F12015   5.146   3.530   4.865  0.0138  0.4353  0.2852
  115OSM   H17F12016   5.126   3.448   4.792 -0.0854 -0.0736  0.8691
  115OSM   H17G12017   5.252   3.559   4.854  0.1826  0.6002  1.9818
  115OSM   C18F12018   5.061   3.655   4.831 -0.0777  0.2726  0.0591
  115OSM   H18F12019   5.098   3.741   4.891  0.2533  0.7350 -0.7991
  115OSM   H18G12020   4.952   3.651   4.855  0.0022 -0.0760  0.3620
  115OSM   H18H12021   5.067   3.683   4.724 -2.7759 -0.9673 -0.5106
  116OSM      N12022   0.162   0.942   7.499  0.0317 -0.4432 -0.1213
  116OSM    C1512023   0.241   0.868   7.601  0.4849  0.1018  0.6702
  116OSM   H15A12024   0.178   0.782   7.620 -0.0700  0.1510 -0.8168
  116OSM   H15B12025   0.235   0.909   7.701 -1.0139  0.8113  0.3310
  116OSM   H15C12026   0.343   0.844   7.574 -0.3092 -1.5982 -1.1054
  116OSM    C1412027   0.021   0.941   7.537 -0.4866  0.6919 -0.5722
  116OSM   H14A12028  -0.021   0.844   7.516  0.8250 -0.3824  1.5004
  116OSM   H14B12029  -0.019   1.018   7.472 -0.1428  1.9407  0.6548
  116OSM   H14C12030   0.006   0.969   7.640  0.8751  2.4960 -0.8076
  116OSM    C1312031   0.209   1.079   7.490  0.2705  0.1174  0.4656
  116OSM   H13A12032   0.163   1.138   7.411 -2.0898 -0.6179  1.2089
  116OSM   H13B12033   0.315   1.084   7.468  0.1713  1.1484  0.1827
  116OSM   H13C12034   0.178   1.133   7.578  1.0069  0.0174  0.7885
  116OSM    C1212035   0.167   0.874   7.355  0.0674 -0.5003 -0.1665
  116OSM   H12A12036   0.112   0.781   7.361 -2.3089  0.7225 -1.5181
  116OSM   H12B12037   0.272   0.847   7.347 -0.0001 -0.5425 -1.0049
  116OSM    C1112038   0.098   0.955   7.243 -0.2162 -0.0945  0.9124
  116OSM   H11A12039   0.122   0.906   7.147  0.6903  1.4494  0.3139
  116OSM   H11B12040   0.136   1.059   7.234  2.2864 -0.9680  0.5708
  116OSM      P12041  -0.155   0.860   7.188  0.0742 -0.0641  0.1191
  116OSM    O1312042  -0.206   0.753   7.274  0.4978 -0.5539  0.0340
  116OSM    O1412043  -0.265   0.949   7.140 -0.6012 -0.1168 -0.2625
  116OSM    O1112044  -0.088   0.786   7.061 -0.4050 -0.3262 -0.0421
  116OSM    O1212045  -0.048   0.951   7.255  0.6769  0.1235 -0.3438
  116OSM    C1S12046  -0.058   0.880   6.959  0.0982 -0.3939  0.2796
  116OSM    H1S12047  -0.005   0.970   6.996 -1.5229  2.2921 -3.3881
  116OSM    H1T12048  -0.151   0.920   6.913  0.1750 -1.3600 -0.7614
  116OSM     NF12049   0.034   0.928   6.751  0.1195  0.4769  0.1898
  116OSM    HNF12050  -0.018   0.926   6.666 -2.7572  0.8391  1.8390
  116OSM    C2S12051   0.013   0.813   6.839 -0.4818 -0.1918  0.2634
  116OSM    H2S12052   0.111   0.771   6.870 -1.2935 -1.2274  1.5224
  116OSM    C3S12053  -0.082   0.711   6.781  0.0172  0.2231  0.1878
  116OSM    H3S12054  -0.175   0.767   6.757 -0.2363 -0.7511 -1.2821
  116OSM     O312055  -0.126   0.604   6.868 -0.1092 -0.2157 -0.0790
  116OSM    HO312056  -0.107   0.645   6.952  1.8757  1.1459 -1.1060
  116OSM    C4S12057  -0.021   0.666   6.650  0.1440  0.4175  0.2242
  116OSM    H4S12058  -0.067   0.720   6.565  1.4064  1.6370  0.2812
  116OSM    C5S12059   0.087   0.583   6.620  0.2179 -0.6271  0.6125
  116OSM    H5S12060   0.138   0.533   6.704 -2.6506 -1.5143  1.9820
  116OSM    C6S12061   0.122   0.556   6.477 -0.5096  0.1412 -0.0480
  116OSM    H6S12062   0.113   0.449   6.447  0.6586  0.2631 -0.8822
  116OSM    H6T12063   0.232   0.563   6.459 -0.2223 -1.0151  1.0445
  116OSM    C7S12064   0.054   0.643   6.365  0.4011 -0.3353  0.2306
  116OSM    H7S12065   0.047   0.748   6.399  1.2601 -0.3835  0.5689
  116OSM    H7T12066  -0.050   0.604   6.353 -0.0892  0.7124  0.9057
  116OSM    C8S12067   0.128   0.641   6.241 -0.1038 -0.3480 -0.2828
  116OSM    H8S12068   0.160   0.536   6.223  1.2041  0.1829 -1.2101
  116OSM    H8T12069   0.213   0.711   6.259  0.5710 -1.2588  0.1835
  116OSM    C9S12070   0.056   0.677   6.105 -0.4781  0.2087 -0.0572
  116OSM    H9S12071   0.136   0.713   6.037 -1.3869  1.3979 -0.5250
  116OSM    H9T12072   0.002   0.772   6.122 -0.9219 -0.1977  0.8679
  116OSM   C10S12073  -0.039   0.576   6.035 -0.2626  0.3652 -0.2889
  116OSM   H10S12074  -0.099   0.521   6.110  0.5448 -0.5364 -0.2926
  116OSM   H10T12075   0.020   0.501   5.977 -1.2741 -1.6484  1.1781
  116OSM   C11S12076  -0.120   0.639   5.921 -0.1061  0.0087  0.0211
  116OSM   H11S12077  -0.168   0.731   5.962 -0.2887 -0.0087 -0.1523
  116OSM   H11T12078  -0.200   0.574   5.880 -0.7642 -0.0221  1.2998
  116OSM   C12S12079  -0.039   0.684   5.800 -0.4714 -0.7221 -0.2710
  116OSM   H12S12080   0.015   0.597   5.757 -0.7422 -0.9658 -0.1212
  116OSM   H12T12081   0.040   0.761   5.813 -0.6883 -0.2007 -1.8227
  116OSM   C13S12082  -0.137   0.730   5.698  0.5396 -0.3034 -0.1476
  116OSM   H13S12083  -0.202   0.806   5.747 -1.2279 -1.4485 -0.6407
  116OSM   H13T12084  -0.220   0.661   5.672 -1.5414  2.0828 -0.1636
  116OSM   C14S12085  -0.086   0.796   5.576  0.3541 -0.7254 -0.4024
  116OSM   H14S12086  -0.006   0.738   5.525  1.0948 -0.0797  0.0093
  116OSM   H14T12087  -0.027   0.886   5.602 -0.7264  1.1218 -3.7549
  116OSM   C15S12088  -0.195   0.836   5.478 -0.8312 -0.8474 -0.1946
  116OSM   H15S12089  -0.276   0.891   5.531 -0.3286 -1.6621  1.4965
  116OSM   H15T12090  -0.243   0.746   5.434  0.3116 -0.9001 -1.3983
  116OSM   C16S12091  -0.154   0.913   5.351 -1.4638 -0.1134 -0.7824
  116OSM   H16S12092  -0.048   0.943   5.369 -1.9603  0.5025  1.4010
  116OSM   H16T12093  -0.206   1.011   5.357 -2.4943 -0.6288 -1.0625
  116OSM   C17S12094  -0.189   0.837   5.226  0.1457  0.1736 -0.1567
  116OSM   H17S12095  -0.188   0.899   5.134 -1.6261 -0.3689 -0.5880
  116OSM   H17T12096  -0.292   0.796   5.230 -0.1404  0.8156 -0.7011
  116OSM   C18S12097  -0.085   0.729   5.203 -0.0859 -0.5145 -0.1253
  116OSM   H18S12098  -0.091   0.689   5.100  1.9240 -0.9564 -0.1091
  116OSM   H18T12099  -0.103   0.637   5.263  2.4948 -0.7064  0.4749
  116OSM   H18U12100   0.010   0.781   5.227 -1.4369  1.6097  0.9862
  116OSM    C1F12101   0.120   1.025   6.773 -0.4947  0.1507 -0.4507
  116OSM     OF12102   0.185   1.032   6.883 -0.8611  0.2066  0.3184
  116OSM    C2F12103   0.145   1.141   6.677 -0.5593 -0.4547  0.3764
  116OSM    H2F12104   0.206   1.219   6.729  1.6381 -2.4041  0.8730
  116OSM    H2G12105   0.057   1.207   6.658  1.0704  2.1935  1.3346
  116OSM    C3F12106   0.209   1.096   6.542  0.0576 -0.4943  0.5085
  116OSM    H3F12107   0.140   1.027   6.489  1.5316  0.3412 -2.6990
  116OSM    H3G12108   0.307   1.046   6.554  1.4869  2.0553  0.1007
  116OSM    C4F12109   0.209   1.215   6.439  0.8718  0.7805  0.6018
  116OSM    H4F12110   0.271   1.302   6.467  1.4699 -0.3663  3.1967
  116OSM    H4G12111   0.104   1.252   6.437  0.9503  1.1091 -2.8356
  116OSM    C5F12112   0.245   1.178   6.294  0.0407 -0.3038  0.3147
  116OSM    H5F12113   0.173   1.105   6.252 -2.5507  2.8382 -1.1092
  116OSM    H5G12114   0.346   1.132   6.298 -0.6115 -1.7933  0.7249
  116OSM    C6F12115   0.240   1.302   6.199  0.4023  0.2533 -0.0478
  116OSM    H6F12116   0.289   1.393   6.240  0.0565 -0.3990  1.9167
  116OSM    H6G12117   0.134   1.328   6.182 -1.2937 -3.5023  3.1878
  116OSM    C7F12118   0.293   1.267   6.057  0.4796  0.5336 -0.4322
  116OSM    H7F12119   0.222   1.192   6.016  0.1692 -0.8580  2.3711
  116OSM    H7G12120   0.388   1.210   6.064 -0.2495 -0.5529  1.8623
  116OSM    C8F12121   0.295   1.378   5.953  0.2326  0.1591 -0.3403
  116OSM    H8F12122   0.340   1.342   5.858 -0.5841  0.4274 -0.8406
  116OSM    H8G12123   0.370   1.451   5.990  2.1533 -1.3361 -1.1616
  116OSM    C9F12124   0.152   1.438   5.924 -0.3949 -0.2651  0.4383
  116OSM    H9F12125   0.086   1.456   6.010 -1.1467 -2.4383  0.3769
  116OSM   C10F12126   0.095   1.428   5.798 -0.1192  0.1926 -0.8531
  116OSM   H10F12127  -0.005   1.470   5.778 -0.6582 -1.1513 -1.0459
  116OSM   C11F12128   0.158   1.389   5.667  0.2124  0.7597  0.5327
  116OSM   H11F12129   0.263   1.354   5.676 -0.0412  0.5174  3.5344
  116OSM   H11G12130   0.158   1.476   5.597  1.4852 -1.1214 -1.9490
  116OSM   C12F12131   0.089   1.271   5.612  0.2107  0.2720  0.0978
  116OSM   H12F12132  -0.022   1.283   5.618 -0.1936 -2.5011 -0.4909
  116OSM   H12G12133   0.109   1.182   5.675  0.7789 -1.7262 -2.7242
  116OSM   C13F12134   0.115   1.234   5.471 -0.0126 -0.3430  0.4706
  116OSM   H13F12135   0.086   1.130   5.447  1.5968 -0.6117 -0.4805
  116OSM   H13G12136   0.225   1.242   5.460 -0.1870  0.3263 -1.0105
  116OSM   C14F12137   0.038   1.328   5.368 -0.4861  0.2039 -0.4334
  116OSM   H14F12138   0.083   1.429   5.376 -1.4118  0.5866  0.1116
  116OSM   H14G12139  -0.070   1.328   5.396 -0.5924 -0.4377 -0.8264
  116OSM   C15F12140   0.040   1.274   5.218  0.7585 -0.8763 -0.1840
  116OSM   H15F12141  -0.018   1.179   5.225 -0.6910 -0.1316 -1.5251
  116OSM   H15G12142   0.148   1.251   5.203  1.0117 -0.3307  0.6904
  116OSM   C16F12143  -0.021   1.360   5.113  0.0127 -0.0545 -0.2014
  116OSM   H16F12144   0.049   1.447   5.111  0.5585 -0.3749  1.8707
  116OSM   H16G12145  -0.127   1.383   5.137 -0.4182 -3.5168  1.8410
  116OSM   C17F12146  -0.019   1.277   4.983  0.0611  0.3322  0.0827
  116OSM   H17F12147  -0.069   1.337   4.904 -0.8589 -0.6814 -0.1311
  116OSM   H17G12148  -0.075   1.182   4.998  0.6650 -0.3190 -1.4406
  116OSM   C18F12149   0.123   1.243   4.930 -0.3631 -0.5984 -0.4068
  116OSM   H18F12150   0.192   1.199   5.005  0.4145  0.9276 -0.1740
  116OSM   H18G12151   0.172   1.335   4.890 -1.1324 -0.9873 -2.2948
  116OSM   H18H12152   0.124   1.178   4.841  1.0714 -2.0751  0.6169
  117OSM      N12153   5.521   3.904   7.371  0.6740 -0.5570 -0.2894
  117OSM    C1512154   5.658   3.855   7.408  0.0544  0.2884 -0.2769
  117OSM   H15A12155   5.658   3.748   7.393  0.8811  0.2252  0.1180
  117OSM   H15B12156   5.684   3.873   7.511 -1.0606  0.1043  0.0493
  117OSM   H15C12157   5.741   3.893   7.351  1.7025 -1.1405  1.0428
  117OSM    C1412158   5.417   3.827   7.445  0.1411 -0.1432 -0.0402
  117OSM   H14A12159   5.408   3.858   7.548 -1.1530 -3.0864  0.8422
  117OSM   H14B12160   5.443   3.722   7.451 -0.6796 -0.6768 -3.4110
  117OSM   H14C12161   5.325   3.834   7.389 -0.2546 -0.1889  0.6038
  117OSM    C1312162   5.510   4.044   7.414  0.9274 -0.9456 -0.3445
  117OSM   H13A12163   5.551   4.112   7.341 -0.2972  2.0735  1.5388
  117OSM   H13B12164   5.563   4.064   7.507  2.4836  0.4050 -1.4581
  117OSM   H13C12165   5.407   4.068   7.436  1.3108 -1.4650  2.3877
  117OSM    C1212166   5.494   3.893   7.225  0.5989  0.0377  0.1613
  117OSM   H12A12167   5.391   3.922   7.215 -0.4363 -3.7172 -2.5683
  117OSM   H12B12168   5.496   3.788   7.198  0.1761  0.4972 -1.8139
  117OSM    C1112169   5.581   3.984   7.122 -0.5455 -0.1548  0.3145
  117OSM   H11A12170   5.551   3.949   7.021 -0.4129  0.0752  0.1960
  117OSM   H11B12171   5.688   3.965   7.142 -0.1684  1.8029  0.3952
  117OSM      P12172   5.428   4.198   7.075  0.2738  0.0041  0.1272
  117OSM    O1312173   5.323   4.103   7.028  0.2120 -0.1770  0.7396
  117OSM    O1412174   5.387   4.296   7.181 -0.4158 -0.6831 -0.3514
  117OSM    O1112175   5.487   4.275   6.947 -0.0705  0.5684  0.5659
  117OSM    O1212176   5.562   4.123   7.133  0.2674 -0.3940 -0.2160
  117OSM    C1S12177   5.420   4.268   6.817  0.2878  0.5240  0.3580
  117OSM    H1S12178   5.316   4.309   6.817  1.3068  3.3645  1.4981
  117OSM    H1T12179   5.415   4.164   6.779  0.8186  0.0613  1.5273
  117OSM     NF12180   5.430   4.351   6.584 -0.0067  0.2337  0.3209
  117OSM    HNF12181   5.433   4.285   6.509 -0.7422  0.8372 -0.2528
  117OSM    C2S12182   5.502   4.336   6.703  0.3874  0.3341 -0.2416
  117OSM    H2S12183   5.534   4.438   6.731  1.8824  0.2946 -1.6142
  117OSM    C3S12184   5.627   4.243   6.683  0.3165 -0.1125  0.3930
  117OSM    H3S12185   5.596   4.138   6.667 -1.8877  0.5848 -0.1699
  117OSM     O312186   5.708   4.246   6.799  0.4635  0.3549  0.6513
  117OSM    HO312187   5.649   4.280   6.868  0.7552 -0.3741  1.2668
  117OSM    C4S12188   5.716   4.296   6.579  0.3928  0.4248  0.0496
  117OSM    H4S12189   5.784   4.378   6.606  1.9096 -0.0420 -2.0765
  117OSM    C5S12190   5.742   4.243   6.462  0.1386  0.2583  0.7144
  117OSM    H5S12191   5.696   4.145   6.441  0.2337 -0.0970  2.1203
  117OSM    C6S12192   5.843   4.285   6.354 -0.5358  0.6711 -0.2092
  117OSM    H6S12193   5.900   4.375   6.385  0.1744  0.1462  0.0471
  117OSM    H6T12194   5.786   4.310   6.262 -0.9205 -0.3332 -0.2573
  117OSM    C7S12195   5.940   4.172   6.325  0.4078 -0.6459  0.2182
  117OSM    H7S12196   5.886   4.077   6.309  0.3702 -0.3990 -1.1885
  117OSM    H7T12197   6.011   4.167   6.411  1.5295  1.9974 -0.4280
  117OSM    C8S12198   6.020   4.203   6.197  0.4379  0.4518 -0.6698
  117OSM    H8S12199   6.090   4.118   6.179  0.2640 -0.1518  1.2730
  117OSM    H8T12200   6.084   4.290   6.219 -0.7010  1.0995  0.1885
  117OSM    C9S12201   5.939   4.215   6.067 -0.0340  0.1619  1.0330
  117OSM    H9S12202   5.853   4.285   6.071 -0.7987 -0.7581  0.7778
  117OSM    H9T12203   5.895   4.114   6.057  0.3812  0.0652  0.1044
  117OSM   C10S12204   6.024   4.250   5.941  0.7055 -0.5666  0.0240
  117OSM   H10S12205   6.099   4.170   5.925 -0.9408 -2.1273 -0.2660
  117OSM   H10T12206   6.075   4.348   5.954 -0.1253 -0.2789  1.3128
  117OSM   C11S12207   5.940   4.259   5.814  0.1668 -1.1511  0.3605
  117OSM   H11S12208   5.871   4.346   5.810  1.7760  0.1230 -1.1099
  117OSM   H11T12209   5.888   4.161   5.803 -1.5932 -0.1122 -1.2879
  117OSM   C12S12210   6.023   4.264   5.678  0.5598  0.6129 -0.5528
  117OSM   H12S12211   6.094   4.178   5.683  1.4496  1.1549 -2.5930
  117OSM   H12T12212   6.073   4.363   5.686 -0.3531  1.0173  0.4103
  117OSM   C13S12213   5.917   4.255   5.561  0.7066 -0.8532 -0.2523
  117OSM   H13S12214   5.839   4.329   5.587  0.8355 -0.8061  0.0039
  117OSM   H13T12215   5.864   4.159   5.546 -2.1937  0.5170  0.5954
  117OSM   C14S12216   5.982   4.306   5.426  0.1708 -0.1064 -0.0473
  117OSM   H14S12217   6.050   4.228   5.385 -0.7211 -0.8297 -0.1795
  117OSM   H14T12218   6.042   4.397   5.447  0.8115 -0.8387  1.4118
  117OSM   C15S12219   5.870   4.336   5.321 -0.0177 -0.2393  0.4777
  117OSM   H15S12220   5.810   4.426   5.349  1.0585  1.5214 -2.4875
  117OSM   H15T12221   5.811   4.242   5.316  0.9680 -0.8237 -0.7302
  117OSM   C16S12222   5.932   4.367   5.187  0.1863 -0.2306  0.1937
  117OSM   H16S12223   5.985   4.277   5.147 -1.2924 -1.1654  0.2755
  117OSM   H16T12224   6.017   4.437   5.201 -0.1714  1.2722 -3.8576
  117OSM   C17S12225   5.837   4.406   5.073  0.0497  0.0769 -0.5333
  117OSM   H17S12226   5.896   4.441   4.986 -0.0822  2.0994  0.1319
  117OSM   H17T12227   5.786   4.501   5.100  2.0628  0.7524  1.2195
  117OSM   C18S12228   5.728   4.298   5.042 -0.5777  0.2025 -0.1830
  117OSM   H18S12229   5.667   4.270   5.130 -1.3085  0.6322 -0.5468
  117OSM   H18T12230   5.783   4.206   5.012 -2.0265 -1.1408  1.1569
  117OSM   H18U12231   5.669   4.334   4.955  0.6117 -0.9910 -1.5388
  117OSM    C1F12232   5.338   4.440   6.569  0.4905 -0.8795  0.9585
  117OSM     OF12233   5.310   4.521   6.658 -0.3015  0.1001  0.5206
  117OSM    C2F12234   5.262   4.454   6.430 -0.3205  0.0454 -0.2912
  117OSM    H2F12235   5.175   4.385   6.432  1.0205 -1.7742  2.0167
  117OSM    H2G12236   5.334   4.408   6.358 -0.6720 -0.8917 -0.0661
  117OSM    C3F12237   5.249   4.599   6.392 -0.0372 -0.2033 -0.0034
  117OSM    H3F12238   5.338   4.658   6.421  1.7360 -3.4804  1.8038
  117OSM    H3G12239   5.169   4.646   6.453  0.6986  1.5551 -0.3296
  117OSM    C4F12240   5.211   4.633   6.246 -0.4787 -0.1467 -0.2243
  117OSM    H4F12241   5.171   4.735   6.224 -1.2362 -0.1544  0.9946
  117OSM    H4G12242   5.126   4.568   6.218 -0.1052 -0.9184  0.3770
  117OSM    C5F12243   5.319   4.601   6.143  0.6498  0.2006  0.4647
  117OSM    H5F12244   5.328   4.492   6.127 -1.4596 -0.1120  1.1083
  117OSM    H5G12245   5.421   4.626   6.181  1.9435 -1.7556 -1.5040
  117OSM    C6F12246   5.300   4.682   6.017 -0.5107 -0.2461 -0.0876
  117OSM    H6F12247   5.290   4.788   6.047 -1.5297 -0.1438 -0.7489
  117OSM    H6G12248   5.200   4.671   5.970 -0.3921  1.7932 -0.9071
  117OSM    C7F12249   5.414   4.650   5.916  0.2124  0.5836 -0.3544
  117OSM    H7F12250   5.398   4.550   5.873 -0.3813 -0.0187  1.1723
  117OSM    H7G12251   5.509   4.655   5.972  0.1577 -0.1656 -0.1957
  117OSM    C8F12252   5.403   4.748   5.797  0.6194 -0.4353 -0.6232
  117OSM    H8F12253   5.398   4.855   5.825  2.2712 -0.3325 -0.6161
  117OSM    H8G12254   5.307   4.729   5.745  0.0280  0.5497  0.0859
  117OSM    C9F12255   5.513   4.728   5.702 -0.9953 -0.2796  0.6102
  117OSM    H9F12256   5.600   4.678   5.748 -1.1932  0.3465  1.6874
  117OSM   C10F12257   5.530   4.787   5.575  0.0874  0.3131  0.3652
  117OSM   H10F12258   5.628   4.771   5.527 -0.3979  1.0149 -0.8929
  117OSM   C11F12259   5.436   4.866   5.499  0.5221 -0.1818  0.4628
  117OSM   H11F12260   5.467   4.973   5.492 -0.5062  0.0883 -0.2705
  117OSM   H11G12261   5.342   4.862   5.558 -1.0855 -0.3283 -1.9689
  117OSM   C12F12262   5.392   4.829   5.356 -0.2371  0.1820  0.0933
  117OSM   H12F12263   5.355   4.724   5.355 -1.7616  0.6134  2.2885
  117OSM   H12G12264   5.478   4.835   5.287 -0.8260  3.9714 -0.5185
  117OSM   C13F12265   5.283   4.921   5.289  0.2566 -0.1415 -0.4841
  117OSM   H13F12266   5.205   4.943   5.365  0.9696  2.0710 -0.3182
  117OSM   H13G12267   5.243   4.862   5.204  2.7569 -0.8808 -1.2462
  117OSM   C14F12268   5.327   5.059   5.231 -0.4178 -0.8076 -0.5896
  117OSM   H14F12269   5.386   5.110   5.310  1.4327 -0.7892 -1.9169
  117OSM   H14G12270   5.236   5.121   5.219 -0.6881 -1.0733  0.0292
  117OSM   C15F12271   5.410   5.072   5.104  0.2024  0.5391 -1.2317
  117OSM   H15F12272   5.363   5.013   5.023  3.1143 -0.9409 -2.0033
  117OSM   H15G12273   5.501   5.009   5.115 -1.1727 -1.8724 -2.6633
  117OSM   C16F12274   5.434   5.212   5.069 -0.1240 -1.2445  0.2255
  117OSM   H16F12275   5.476   5.265   5.157  2.0859  0.7705 -1.8748
  117OSM   H16G12276   5.341   5.271   5.055 -1.0903 -2.8736 -0.4850
  117OSM   C17F12277   5.517   5.231   4.939  0.2221 -0.2233 -0.3165
  117OSM   H17F12278   5.522   5.334   4.898 -1.0251  0.3107  0.8246
  117OSM   H17G12279   5.466   5.175   4.858  0.0368  0.8644 -0.9647
  117OSM   C18F12280   5.662   5.174   4.951 -0.3568 -0.9803 -0.2816
  117OSM   H18F12281   5.719   5.223   5.033  1.6538  0.1444 -2.2221
  117OSM   H18G12282   5.731   5.209   4.871  0.6659 -1.7763  0.2302
  117OSM   H18H12283   5.675   5.065   4.967 -0.4999 -0.9967 -0.2715
  118OSM      N12284   6.079   2.753   6.898 -0.1999  0.6797  0.0810
  118OSM    C1512285   6.128   2.878   6.957 -0.0785 -0.1269  0.3505
  118OSM   H15A12286   6.095   2.906   7.056  1.4299  1.0837  0.5544
  118OSM   H15B12287   6.093   2.969   6.909 -0.7744 -0.3367  0.4441
  118OSM   H15C12288   6.235   2.890   6.959 -0.1400  1.1511 -1.3435
  118OSM    C1412289   6.132   2.736   6.757 -0.0919 -0.4575 -0.2779
  118OSM   H14A12290   6.110   2.812   6.683  1.7661  0.4388  0.0255
  118OSM   H14B12291   6.102   2.638   6.725  0.4707 -0.4552 -0.8397
  118OSM   H14C12292   6.240   2.733   6.766  0.0142 -3.0528 -1.4515
  118OSM    C1312293   6.130   2.627   6.968  0.3762 -0.1603  0.1185
  118OSM   H13A12294   6.076   2.635   7.061 -0.1398  1.1512 -0.2731
  118OSM   H13B12295   6.234   2.646   6.987 -0.0248 -0.1205  2.6330
  118OSM   H13C12296   6.106   2.533   6.920 -1.5115 -0.3779  1.3663
  118OSM    C1212297   5.930   2.756   6.883  0.1187 -0.7136 -0.0828
  118OSM   H12A12298   5.893   2.676   6.820 -0.6055 -0.2376 -0.2785
  118OSM   H12B12299   5.908   2.851   6.836  4.1610  0.0301 -0.8321
  118OSM    C1112300   5.848   2.740   7.012  0.0212  0.6285 -0.4948
  118OSM   H11A12301   5.872   2.821   7.084 -2.2842  1.0084 -0.0747
  118OSM   H11B12302   5.882   2.647   7.063  1.4287  0.0188 -2.4171
  118OSM      P12303   5.620   2.864   6.973 -0.2348 -0.4344  0.1108
  118OSM    O1312304   5.485   2.835   7.016  0.2006  0.1636 -0.3019
  118OSM    O1412305   5.678   2.977   7.053  0.3294  0.3118 -0.4821
  118OSM    O1112306   5.620   2.900   6.820  0.4104  0.4575 -0.0481
  118OSM    O1212307   5.711   2.728   6.981 -0.1346  0.0956  0.0148
  118OSM    C1S12308   5.625   2.804   6.717 -0.1631  0.1149  0.2524
  118OSM    H1S12309   5.536   2.738   6.716  0.6879 -1.0517 -0.6353
  118OSM    H1T12310   5.709   2.731   6.726 -1.1680 -1.0855  0.1266
  118OSM     NF12311   5.613   2.755   6.465 -0.1190  0.0234 -0.1637
  118OSM    HNF12312   5.693   2.739   6.407  0.1954 -1.2939  0.6058
  118OSM    C2S12313   5.621   2.861   6.566 -0.3755 -0.6766 -0.2704
  118OSM    H2S12314   5.526   2.919   6.564 -1.8247 -2.8442  1.1699
  118OSM    C3S12315   5.735   2.966   6.550  0.7184  0.0714 -0.1382
  118OSM    H3S12316   5.828   2.905   6.555  1.2100  0.8500  0.5600
  118OSM     O312317   5.747   3.063   6.649  0.2423 -0.5921  0.0664
  118OSM    HO312318   5.701   3.020   6.721 -0.6462 -2.9599 -1.7713
  118OSM    C4S12319   5.745   3.029   6.413  0.0312  0.2605  0.1286
  118OSM    H4S12320   5.841   3.006   6.365  0.9094  1.2439  1.3635
  118OSM    C5S12321   5.663   3.126   6.357  0.9671  0.3226 -0.2654
  118OSM    H5S12322   5.562   3.140   6.397 -0.3751 -2.9647 -2.0947
  118OSM    C6S12323   5.676   3.185   6.219 -0.4574  0.0754 -0.2528
  118OSM    H6S12324   5.707   3.289   6.242 -0.8700  0.4052 -1.1433
  118OSM    H6T12325   5.573   3.196   6.178 -0.5995 -1.7515 -0.4737
  118OSM    C7S12326   5.757   3.115   6.110 -0.1099 -0.1639  0.2473
  118OSM    H7S12327   5.711   3.015   6.096 -1.0575  0.4992 -1.7722
  118OSM    H7T12328   5.863   3.100   6.142  0.5542  0.1835 -1.6500
  118OSM    C8S12329   5.759   3.181   5.967  0.2305  0.5568 -0.0746
  118OSM    H8S12330   5.797   3.284   5.974  2.4234 -0.2741  1.0736
  118OSM    H8T12331   5.651   3.191   5.943  0.6644  0.8115 -2.0855
  118OSM    C9S12332   5.830   3.110   5.851 -0.0950  0.6359  0.8476
  118OSM    H9S12333   5.797   3.004   5.852 -1.0385  0.9177  0.5690
  118OSM    H9T12334   5.935   3.113   5.889 -0.3319  0.5751  1.5114
  118OSM   C10S12335   5.814   3.174   5.714  0.0411  0.0998 -0.2524
  118OSM   H10S12336   5.865   3.272   5.713  0.0735  0.0864  0.0286
  118OSM   H10T12337   5.705   3.193   5.700 -0.2882 -0.5109  1.2172
  118OSM   C11S12338   5.863   3.098   5.595 -0.1260 -0.3214  0.0713
  118OSM   H11S12339   5.811   3.001   5.580  0.0838 -0.1614 -1.9764
  118OSM   H11T12340   5.968   3.066   5.615  0.1503  1.6111  2.1808
  118OSM   C12S12341   5.844   3.175   5.470  0.2011  0.5058  0.0077
  118OSM   H12S12342   5.903   3.268   5.482  1.8961 -0.3950 -1.0022
  118OSM   H12T12343   5.738   3.207   5.465  0.3373  1.3956  1.9621
  118OSM   C13S12344   5.899   3.101   5.345  0.0855 -0.5405 -0.0147
  118OSM   H13S12345   5.838   3.011   5.328  1.4181 -1.1500 -1.8396
  118OSM   H13T12346   6.005   3.073   5.363  0.4704  0.0418 -1.2747
  118OSM   C14S12347   5.892   3.183   5.217  0.4361  0.2967 -0.4535
  118OSM   H14S12348   5.961   3.268   5.236  0.3292  0.2286  0.2760
  118OSM   H14T12349   5.791   3.217   5.186  0.2537  0.5438  0.4038
  118OSM   C15S12350   5.957   3.114   5.100  0.0908 -0.7573 -0.0203
  118OSM   H15S12351   5.915   3.013   5.079 -1.7214  0.1157 -0.8622
  118OSM   H15T12352   6.065   3.106   5.123 -0.2590 -0.4545  1.8141
  118OSM   C16S12353   5.922   3.198   4.973  0.3634 -0.1961  0.3154
  118OSM   H16S12354   5.971   3.297   4.984 -0.1874  0.1973 -0.6730
  118OSM   H16T12355   5.813   3.214   4.978  0.5995  2.0441 -0.2561
  118OSM   C17S12356   5.964   3.130   4.835 -0.6006 -0.0731  0.2103
  118OSM   H17S12357   5.934   3.203   4.757  1.7762  1.3622  0.5378
  118OSM   H17T12358   5.908   3.035   4.822 -0.0852 -0.5156  1.1258
  118OSM   C18S12359   6.112   3.091   4.816 -0.0803 -0.0586 -0.1073
  118OSM   H18S12360   6.127   3.049   4.715 -0.4715 -0.9207  0.1872
  118OSM   H18T12361   6.145   3.018   4.893  2.0082 -0.4289 -1.2724
  118OSM   H18U12362   6.173   3.184   4.822  2.4813 -1.6407 -0.2875
  118OSM    C1F12363   5.507   2.678   6.458  0.4981 -0.1990  0.2660
  118OSM     OF12364   5.406   2.706   6.520 -0.0480  0.2516  0.3496
  118OSM    C2F12365   5.518   2.555   6.373 -0.3356  0.2260  0.1918
  118OSM    H2F12366   5.556   2.474   6.439  1.7098 -0.7408 -2.0422
  118OSM    H2G12367   5.578   2.582   6.284 -0.9392  0.0891 -0.2673
  118OSM    C3F12368   5.379   2.492   6.324 -1.5567  0.7029  0.1575
  118OSM    H3F12369   5.307   2.483   6.409 -3.3967  0.6407 -1.3526
  118OSM    H3G12370   5.409   2.389   6.297 -1.3856  1.0565 -1.0322
  118OSM    C4F12371   5.306   2.548   6.200  0.1668  0.5186  0.2578
  118OSM    H4F12372   5.368   2.537   6.108 -0.5519 -0.8773 -0.0733
  118OSM    H4G12373   5.284   2.656   6.216  0.1879  0.5705 -0.0433
  118OSM    C5F12374   5.179   2.469   6.155 -0.8832  0.0790 -0.1757
  118OSM    H5F12375   5.095   2.456   6.227 -1.5419 -0.5616 -1.0483
  118OSM    H5G12376   5.221   2.368   6.135 -1.3870 -0.3801  1.0013
  118OSM    C6F12377   5.118   2.513   6.019  0.0483 -0.4337  0.0780
  118OSM    H6F12378   5.179   2.472   5.935 -1.8435 -0.5051 -1.3051
  118OSM    H6G12379   5.117   2.624   6.018  0.3366 -0.4314 -0.2722
  118OSM    C7F12380   4.970   2.465   5.999  0.1082 -0.2990 -0.3308
  118OSM    H7F12381   4.902   2.527   6.061  0.8544 -0.2850  0.4953
  118OSM    H7G12382   4.981   2.366   6.047 -0.9961 -0.1275  0.3079
  118OSM    C8F12383   4.923   2.463   5.850 -0.7222  0.5814  0.1279
  118OSM    H8F12384   4.826   2.407   5.848  0.3018 -1.2515 -0.8532
  118OSM    H8G12385   5.000   2.404   5.796 -0.8483  1.6014 -1.2145
  118OSM    C9F12386   4.908   2.607   5.794 -0.0385  0.2280 -0.7480
  118OSM    H9F12387   4.852   2.666   5.868 -0.2190  1.2487 -1.6772
  118OSM   C10F12388   4.971   2.660   5.688 -0.4225 -0.4673 -0.1677
  118OSM   H10F12389   4.951   2.766   5.666  0.8735  0.1598  1.4747
  118OSM   C11F12390   5.053   2.591   5.585 -0.4068 -0.1023 -0.7743
  118OSM   H11F12391   5.010   2.491   5.559  0.8166 -0.9384  0.2800
  118OSM   H11G12392   5.156   2.583   5.624 -0.7219  0.9386  0.3141
  118OSM   C12F12393   5.046   2.663   5.449 -0.1212 -0.5720 -0.4768
  118OSM   H12F12394   5.120   2.613   5.382  0.8315  2.1316 -1.5643
  118OSM   H12G12395   5.078   2.768   5.461  0.1574 -0.9215  2.5801
  118OSM   C13F12396   4.909   2.652   5.386 -0.2555 -1.0099  0.0985
  118OSM   H13F12397   4.826   2.678   5.456 -0.0005 -0.0226  0.0456
  118OSM   H13G12398   4.894   2.549   5.347  0.6385 -0.2790 -2.3762
  118OSM   C14F12399   4.891   2.737   5.256 -0.1907 -0.1122 -0.5877
  118OSM   H14F12400   4.875   2.845   5.274  2.3796  0.3572 -0.7397
  118OSM   H14G12401   4.795   2.710   5.207  0.4659  0.4112 -2.2445
  118OSM   C15F12402   5.008   2.725   5.155 -0.3363 -0.2028  0.1324
  118OSM   H15F12403   5.025   2.617   5.134 -0.4081 -0.9683  3.4405
  118OSM   H15G12404   5.104   2.759   5.200 -0.9519  0.7766  0.7378
  118OSM   C16F12405   4.988   2.809   5.029  0.1082 -0.4440  0.4396
  118OSM   H16F12406   4.960   2.912   5.058 -0.5554 -1.1317  2.4013
  118OSM   H16G12407   4.900   2.766   4.976 -1.5288  0.8043  2.0308
  118OSM   C17F12408   5.119   2.822   4.943 -0.7610  0.3372  0.4728
  118OSM   H17F12409   5.210   2.839   5.004 -0.3172 -0.3298  0.0136
  118OSM   H17G12410   5.120   2.911   4.876  0.8068  1.0500  1.3970
  118OSM   C18F12411   5.155   2.703   4.851  0.7592 -0.0300  0.1198
  118OSM   H18F12412   5.200   2.732   4.753  0.6652 -0.2110  0.0219
  118OSM   H18G12413   5.065   2.649   4.814  0.9889 -0.3257 -0.0179
  118OSM   H18H12414   5.222   2.627   4.896  1.1948  0.0075 -0.4410
  119OSM      N12415   0.896   0.665   6.988 -0.4888  0.4707  0.8038
  119OSM    C1512416   0.768   0.676   6.919 -0.0890  0.6334 -0.3207
  119OSM   H15A12417   0.693   0.702   6.992 -0.2337 -1.2629  0.2636
  119OSM   H15B12418   0.749   0.582   6.869  3.1426 -0.3334  0.0096
  119OSM   H15C12419   0.770   0.759   6.851  0.0121  1.4239  0.6207
  119OSM    C1412420   0.937   0.794   7.054  0.6473  0.6228  0.8930
  119OSM   H14A12421   0.976   0.862   6.980 -1.1776  0.6741 -0.0968
  119OSM   H14B12422   1.013   0.774   7.127  0.0252 -1.8113  0.9820
  119OSM   H14C12423   0.850   0.842   7.097 -0.2891  0.0945 -0.3209
  119OSM    C1312424   0.873   0.557   7.088 -0.0253 -0.0327  0.0873
  119OSM   H13A12425   0.850   0.466   7.034  0.8478 -1.2234  1.6210
  119OSM   H13B12426   0.789   0.588   7.149 -1.4780 -0.1737 -1.7630
  119OSM   H13C12427   0.958   0.532   7.150  0.4796 -4.1192 -1.9202
  119OSM    C1212428   1.012   0.613   6.898 -0.1367 -0.3740  0.1404
  119OSM   H12A12429   1.095   0.586   6.962 -1.0063 -2.3889  0.5009
  119OSM   H12B12430   1.046   0.697   6.839  0.0807  0.4460  1.4046
  119OSM    C1112431   0.985   0.489   6.812  0.3444  0.1498 -0.1535
  119OSM   H11A12432   1.057   0.476   6.729  0.4620 -1.9274  0.2330
  119OSM   H11B12433   0.884   0.502   6.768  0.0679 -1.1573  0.0625
  119OSM      P12434   1.128   0.302   6.930  0.1129 -0.2262 -0.2822
  119OSM    O1312435   1.220   0.396   6.994  0.3761  0.1433  0.3558
  119OSM    O1412436   1.087   0.182   7.011  0.3296 -0.1149  0.0797
  119OSM    O1112437   1.180   0.250   6.794 -0.3580  0.4079 -0.4413
  119OSM    O1212438   0.988   0.372   6.892 -0.5680  0.2097  0.1046
  119OSM    C1S12439   1.107   0.169   6.700 -1.1244  0.2904 -0.2956
  119OSM    H1S12440   1.002   0.139   6.721 -0.8103 -1.4538 -1.0651
  119OSM    H1T12441   1.161   0.074   6.688 -0.4298  0.4671  1.1415
  119OSM     NF12442   1.026   0.156   6.469  0.3534 -0.4495  0.4440
  119OSM    HNF12443   1.069   0.108   6.392  2.5851  0.5834  0.9527
  119OSM    C2S12444   1.108   0.235   6.559 -1.1867 -0.0879 -0.8239
  119OSM    H2S12445   1.057   0.333   6.573 -1.5674 -0.4970  0.9713
  119OSM    C3S12446   1.256   0.257   6.515 -0.3034  0.0197  0.3486
  119OSM    H3S12447   1.299   0.155   6.518  0.7737  0.4322 -0.4376
  119OSM     O312448   1.335   0.326   6.610 -0.2925  0.7462  0.3152
  119OSM    HO312449   1.287   0.316   6.693 -2.3960 -0.0506 -0.9256
  119OSM    C4S12450   1.269   0.306   6.370 -0.4169  0.0175 -0.7389
  119OSM    H4S12451   1.246   0.226   6.297  2.6197 -2.2945  0.6124
  119OSM    C5S12452   1.303   0.434   6.341  0.8321 -0.0631  0.6237
  119OSM    H5S12453   1.312   0.506   6.424 -1.2367 -1.2940  1.9988
  119OSM    C6S12454   1.313   0.504   6.207 -0.1268  0.0118 -0.4510
  119OSM    H6S12455   1.418   0.534   6.192 -0.2543  0.1269 -1.1241
  119OSM    H6T12456   1.253   0.598   6.204  3.3485  2.4240 -4.6430
  119OSM    C7S12457   1.267   0.408   6.087  0.1901  0.6241 -0.1497
  119OSM    H7S12458   1.167   0.362   6.105 -0.8707  2.3456 -1.3476
  119OSM    H7T12459   1.341   0.326   6.078 -0.4347  0.2788 -3.5444
  119OSM    C8S12460   1.257   0.482   5.955 -0.2147  0.7651  0.9055
  119OSM    H8S12461   1.347   0.547   5.951  0.0891  0.2911 -0.2400
  119OSM    H8T12462   1.163   0.540   5.967 -1.4367 -0.7076 -1.0108
  119OSM    C9S12463   1.232   0.392   5.834 -0.4209  0.4490 -1.2926
  119OSM    H9S12464   1.157   0.316   5.862  1.3943 -0.3204  1.9553
  119OSM    H9T12465   1.328   0.340   5.811 -0.3256  0.1028 -0.1628
  119OSM   C10S12466   1.176   0.476   5.722 -0.4111  0.6130 -0.1121
  119OSM   H10S12467   1.202   0.583   5.735 -1.4249  0.6786  1.6695
  119OSM   H10T12468   1.066   0.469   5.734 -0.2879  0.0450  0.7140
  119OSM   C11S12469   1.202   0.435   5.575  0.0307  0.2216  0.0387
  119OSM   H11S12470   1.310   0.445   5.548 -0.0155 -3.7729 -2.3933
  119OSM   H11T12471   1.149   0.502   5.504 -0.8783  0.1997  0.6864
  119OSM   C12S12472   1.148   0.293   5.538 -0.3499  0.0645  0.4763
  119OSM   H12S12473   1.037   0.292   5.545 -0.4746 -2.8195 -0.6976
  119OSM   H12T12474   1.195   0.216   5.603  1.1401  1.6748  1.4062
  119OSM   C13S12475   1.178   0.246   5.390  0.2786 -0.2580 -0.1412
  119OSM   H13S12476   1.134   0.321   5.322 -1.9554 -0.1632  1.3199
  119OSM   H13T12477   1.128   0.148   5.380 -1.1775  0.4559 -0.1706
  119OSM   C14S12478   1.334   0.232   5.372 -0.5707 -0.4620  0.2233
  119OSM   H14S12479   1.372   0.167   5.453 -0.4863 -2.0486 -1.0437
  119OSM   H14T12480   1.380   0.331   5.397 -0.7465 -0.3689  0.1817
  119OSM   C15S12481   1.373   0.188   5.230  0.0332 -0.1462  0.4977
  119OSM   H15S12482   1.318   0.099   5.193 -1.3469  0.3875  1.1992
  119OSM   H15T12483   1.481   0.166   5.241  0.3264  0.9515 -0.0556
  119OSM   C16S12484   1.360   0.307   5.132  0.0022  0.3737 -0.1680
  119OSM   H16S12485   1.453   0.300   5.071  0.1749 -1.2019  0.2337
  119OSM   H16T12486   1.364   0.406   5.181 -0.7679  0.3269 -0.0001
  119OSM   C17S12487   1.233   0.295   5.037 -1.2094 -0.0899  0.1390
  119OSM   H17S12488   1.166   0.224   5.090 -0.0616 -1.0672  0.3174
  119OSM   H17T12489   1.253   0.246   4.939 -0.6597 -1.1349  0.7635
  119OSM   C18S12490   1.163   0.422   5.017  0.1290  0.0401  0.0098
  119OSM   H18S12491   1.071   0.396   4.959  0.2328  1.0799 -0.6388
  119OSM   H18T12492   1.220   0.495   4.955 -1.9739  0.5314 -1.4617
  119OSM   H18U12493   1.142   0.467   5.116 -1.7457  1.1006 -0.8138
  119OSM    C1F12494   0.894   0.147   6.479  0.1775 -0.6610  0.1020
  119OSM     OF12495   0.834   0.211   6.562  0.2386 -0.0078  0.1387
  119OSM    C2F12496   0.831   0.035   6.401  0.1211 -0.2386  0.4220
  119OSM    H2F12497   0.757  -0.016   6.466 -0.0584 -0.4395  0.0633
  119OSM    H2G12498   0.903  -0.041   6.364  0.7476  1.0739 -1.1649
  119OSM    C3F12499   0.757   0.091   6.281  0.2303 -0.3592  0.1133
  119OSM    H3F12500   0.834   0.139   6.217  0.2541 -1.2972 -0.5921
  119OSM    H3G12501   0.679   0.166   6.307  0.6407  0.8506 -1.9307
  119OSM    C4F12502   0.677  -0.022   6.211 -0.3673 -0.1318  0.5586
  119OSM    H4F12503   0.593  -0.049   6.278 -0.1325  0.0740  0.9384
  119OSM    H4G12504   0.746  -0.109   6.198  0.3851  0.5840 -0.3929
  119OSM    C5F12505   0.620   0.025   6.074  0.1938 -0.4623 -0.3990
  119OSM    H5F12506   0.588   0.132   6.078  0.6851 -0.3135 -0.3838
  119OSM    H5G12507   0.541  -0.051   6.058 -3.4210  2.7808  0.6038
  119OSM    C6F12508   0.722   0.026   5.960  0.2149 -0.2206  0.1686
  119OSM    H6F12509   0.735  -0.080   5.931 -0.0054 -0.4957  1.0598
  119OSM    H6G12510   0.824   0.057   5.990  1.4722 -1.2585 -2.6458
  119OSM    C7F12511   0.681   0.111   5.842 -0.9042  0.1710  0.5422
  119OSM    H7F12512   0.766   0.173   5.806 -1.1694 -0.0034 -0.4282
  119OSM    H7G12513   0.603   0.185   5.870 -0.7939 -0.3705  2.3822
  119OSM    C8F12514   0.612   0.024   5.728  0.0670 -0.3909  0.1850
  119OSM    H8F12515   0.561   0.096   5.659 -0.0576  0.7630  1.4475
  119OSM    H8G12516   0.539  -0.042   5.780  1.9545 -1.5642  1.4500
  119OSM    C9F12517   0.701  -0.069   5.654 -0.6583 -0.1205 -0.3245
  119OSM    H9F12518   0.699  -0.178   5.670  1.8249  0.0354  1.6640
  119OSM   C10F12519   0.778  -0.030   5.548  0.2073  0.1355  0.2820
  119OSM   H10F12520   0.836  -0.106   5.493 -1.0062  0.3362 -1.3831
  119OSM   C11F12521   0.794   0.108   5.484 -0.3031 -0.3288  0.2444
  119OSM   H11F12522   0.900   0.127   5.459 -0.3014 -1.1256 -0.3942
  119OSM   H11G12523   0.769   0.187   5.558 -0.4480 -1.0224  0.9524
  119OSM   C12F12524   0.713   0.122   5.353  0.5834 -0.5510  1.3938
  119OSM   H12F12525   0.727   0.228   5.322  0.9288 -0.7691  0.7916
  119OSM   H12G12526   0.605   0.104   5.373  0.0955 -0.7457 -1.1822
  119OSM   C13F12527   0.733   0.024   5.234  0.1228 -0.1736 -0.3091
  119OSM   H13F12528   0.670   0.065   5.153 -1.4526 -1.0721  0.4132
  119OSM   H13G12529   0.699  -0.078   5.262 -1.8244  0.0800 -1.5687
  119OSM   C14F12530   0.874   0.022   5.186 -0.1842  0.7705 -0.0919
  119OSM   H14F12531   0.929  -0.055   5.245 -0.5545 -0.4306 -1.2549
  119OSM   H14G12532   0.928   0.117   5.203  1.1547 -0.0216  0.2339
  119OSM   C15F12533   0.895  -0.037   5.048  0.1161 -0.0648 -0.7068
  119OSM   H15F12534   0.999  -0.017   5.016  0.6564 -0.4473  0.7106
  119OSM   H15G12535   0.837   0.017   4.970 -1.2441 -0.3521  0.0615
  119OSM   C16F12536   0.870  -0.192   5.032 -1.0648  0.2949 -0.4642
  119OSM   H16F12537   0.762  -0.217   5.039 -0.9365  0.2680  2.9363
  119OSM   H16G12538   0.917  -0.237   5.122 -2.2337  0.6932  0.3689
  119OSM   C17F12539   0.922  -0.252   4.898 -0.6783 -0.3118 -0.6522
  119OSM   H17F12540   1.028  -0.221   4.887 -0.6003  0.0781  0.9776
  119OSM   H17G12541   0.879  -0.190   4.816 -0.8978 -1.2301 -1.2519
  119OSM   C18F12542   0.898  -0.409   4.880 -0.2997  0.4732 -0.1175
  119OSM   H18F12543   0.962  -0.469   4.948 -1.7363 -1.3760 -0.3162
  119OSM   H18G12544   0.925  -0.431   4.775 -0.6246 -0.2544 -0.0560
  119OSM   H18H12545   0.791  -0.434   4.895 -0.3344  1.0444  0.6684
  120OSM      N12546   3.716   5.782   7.184  0.6306  0.6077 -0.1148
  120OSM    C1512547   3.693   5.933   7.215  0.0416  0.3288  0.3377
  120OSM   H15A12548   3.630   5.953   7.301  0.5809  1.6007  0.4498
  120OSM   H15B12549   3.657   5.980   7.125  1.7084  1.3984  0.1868
  120OSM   H15C12550   3.789   5.972   7.245 -0.2420  1.1985  0.1364
  120OSM    C1412551   3.796   5.755   7.062  0.1435 -0.1071 -0.2881
  120OSM   H14A12552   3.889   5.810   7.064  0.1640 -0.1606  0.6562
  120OSM   H14B12553   3.745   5.763   6.967  0.6362 -0.4416 -0.5865
  120OSM   H14C12554   3.825   5.651   7.068 -1.2219 -0.6926 -2.5418
  120OSM    C1312555   3.785   5.711   7.297  0.5492 -0.2293 -0.5899
  120OSM   H13A12556   3.892   5.729   7.293  0.2827  1.5825 -0.7338
  120OSM   H13B12557   3.783   5.605   7.276  1.1923 -0.3697  0.0114
  120OSM   H13C12558   3.751   5.739   7.395  1.7411 -2.3455  0.4881
  120OSM    C1212559   3.575   5.725   7.175  0.5413 -0.4400  0.4709
  120OSM   H12A12560   3.522   5.741   7.268 -1.3946 -0.4587 -0.5806
  120OSM   H12B12561   3.572   5.617   7.175  1.0510 -0.4566  0.7496
  120OSM    C1112562   3.485   5.760   7.051  0.3608 -0.3291  0.2227
  120OSM   H11A12563   3.479   5.870   7.041  0.6519 -0.4650 -1.8869
  120OSM   H11B12564   3.380   5.734   7.076  1.5382 -3.4838  2.5883
  120OSM      P12565   3.480   5.585   6.870 -0.0113  0.3422  0.1444
  120OSM    O1312566   3.573   5.533   6.768 -0.1232  0.1319 -0.0176
  120OSM    O1412567   3.441   5.493   6.982  0.3085 -0.3209 -0.2293
  120OSM    O1112568   3.343   5.613   6.801 -0.8460 -0.7536  0.5091
  120OSM    O1212569   3.537   5.715   6.930 -0.4503  0.7271  0.2962
  120OSM    C1S12570   3.318   5.708   6.698 -0.1545 -0.6077 -0.2190
  120OSM    H1S12571   3.380   5.797   6.722  2.0774 -2.1287 -0.0904
  120OSM    H1T12572   3.211   5.740   6.703  0.1494  0.2385  2.4028
  120OSM     NF12573   3.352   5.763   6.466  0.7970  0.6765  0.1493
  120OSM    HNF12574   3.257   5.778   6.439  1.1239  3.3330  0.2211
  120OSM    C2S12575   3.353   5.653   6.558  0.4181  0.1474 -0.3547
  120OSM    H2S12576   3.451   5.602   6.559 -0.3827 -1.4973 -0.7735
  120OSM    C3S12577   3.249   5.540   6.515  1.2185  0.1637 -0.1931
  120OSM    H3S12578   3.144   5.575   6.519  0.7722 -0.7535 -2.4812
  120OSM     O312579   3.240   5.428   6.604 -0.1543  0.6529  0.0935
  120OSM    HO312580   3.274   5.450   6.691  1.1782 -0.6192 -0.0538
  120OSM    C4S12581   3.261   5.492   6.375 -0.2585 -0.1841  0.6650
  120OSM    H4S12582   3.188   5.541   6.309 -0.1610  0.4176  0.9907
  120OSM    C5S12583   3.353   5.405   6.335 -0.1728  0.6584 -0.1130
  120OSM    H5S12584   3.413   5.357   6.415  0.7097  0.8139 -0.6652
  120OSM    C6S12585   3.380   5.357   6.190  0.5142 -0.1456 -0.0428
  120OSM    H6S12586   3.304   5.281   6.161 -1.2529  2.2881 -2.2642
  120OSM    H6T12587   3.482   5.314   6.182  1.0107  0.1942  2.9790
  120OSM    C7S12588   3.370   5.455   6.066  0.4631  0.9511 -0.6555
  120OSM    H7S12589   3.465   5.511   6.075  0.5263  0.5350  3.2629
  120OSM    H7T12590   3.291   5.533   6.063 -1.2180 -0.6883 -1.1730
  120OSM    C8S12591   3.359   5.360   5.943  0.1774  0.0669 -0.2238
  120OSM    H8S12592   3.257   5.316   5.944  0.1803  0.0196 -1.0813
  120OSM    H8T12593   3.436   5.280   5.943  0.6979  0.5548  0.6148
  120OSM    C9S12594   3.374   5.438   5.809 -0.4824 -0.0983  0.1411
  120OSM    H9S12595   3.477   5.476   5.794 -1.3126  2.4587  0.5021
  120OSM    H9T12596   3.309   5.528   5.809 -1.1870 -0.5982 -0.7335
  120OSM   C10S12597   3.329   5.349   5.685  0.0046 -0.1644 -0.6984
  120OSM   H10S12598   3.221   5.334   5.703  0.0459  1.4030  1.0715
  120OSM   H10T12599   3.376   5.249   5.699 -0.8370 -0.2698  1.8057
  120OSM   C11S12600   3.371   5.414   5.549  0.5425 -0.0056  0.9779
  120OSM   H11S12601   3.474   5.454   5.557  0.4658  1.2116 -2.3389
  120OSM   H11T12602   3.303   5.500   5.535 -1.7914 -1.9447 -0.5219
  120OSM   C12S12603   3.364   5.313   5.431  0.0745  0.4209  0.0393
  120OSM   H12S12604   3.418   5.220   5.458 -1.0427 -0.2677 -0.0409
  120OSM   H12T12605   3.422   5.339   5.339 -2.6909 -2.2069 -2.6560
  120OSM   C13S12606   3.227   5.275   5.391 -0.3635  0.5029  0.2879
  120OSM   H13S12607   3.171   5.363   5.353 -0.9654  1.6394  3.5066
  120OSM   H13T12608   3.179   5.246   5.488  0.4471  0.3496  0.6549
  120OSM   C14S12609   3.226   5.168   5.285  0.3786 -0.7807 -0.1845
  120OSM   H14S12610   3.149   5.094   5.316  1.4314 -1.0677  1.9896
  120OSM   H14T12611   3.320   5.108   5.283  0.4108 -0.8215  1.2513
  120OSM   C15S12612   3.197   5.219   5.141 -0.2058  0.4866 -0.1687
  120OSM   H15S12613   3.101   5.274   5.137 -0.9749 -0.8888 -2.5276
  120OSM   H15T12614   3.181   5.124   5.086 -0.1360  1.2109 -1.4941
  120OSM   C16S12615   3.306   5.305   5.070 -0.4523 -0.2385 -0.0811
  120OSM   H16S12616   3.390   5.234   5.050  2.3222  2.5020  1.0451
  120OSM   H16T12617   3.356   5.372   5.143  2.0137 -1.7232 -0.2754
  120OSM   C17S12618   3.251   5.367   4.937 -0.4654 -0.1999  0.4555
  120OSM   H17S12619   3.156   5.417   4.965 -0.4111 -0.7646  1.7356
  120OSM   H17T12620   3.210   5.299   4.859 -3.7814  0.3164  1.5846
  120OSM   C18S12621   3.343   5.478   4.868 -0.2654  0.1144 -0.2562
  120OSM   H18S12622   3.425   5.440   4.804  2.1830  1.8670  1.6320
  120OSM   H18T12623   3.399   5.537   4.944  1.2950  2.0526 -2.7522
  120OSM   H18U12624   3.286   5.552   4.807 -2.8622 -0.2815  1.5032
  120OSM    C1F12625   3.453   5.840   6.460 -0.3805  0.4258 -0.5064
  120OSM     OF12626   3.560   5.806   6.513 -0.0558  0.2913  0.0119
  120OSM    C2F12627   3.432   5.966   6.390  0.6117 -0.8838 -0.3923
  120OSM    H2F12628   3.352   6.024   6.442  1.5226 -0.6491  0.7774
  120OSM    H2G12629   3.404   5.942   6.285 -0.7231  0.0283 -0.2749
  120OSM    C3F12630   3.562   6.044   6.377 -0.6234 -0.1743  0.4625
  120OSM    H3F12631   3.645   5.981   6.337 -0.4103 -0.2319  0.9841
  120OSM    H3G12632   3.588   6.074   6.481  1.5375 -1.1571  0.2599
  120OSM    C4F12633   3.551   6.174   6.297  0.3398  0.1851  0.0001
  120OSM    H4F12634   3.627   6.247   6.331  1.0022  0.5620 -2.1677
  120OSM    H4G12635   3.449   6.206   6.324  0.5750 -0.6633  2.0842
  120OSM    C5F12636   3.559   6.171   6.143  0.2715  0.1498  0.6915
  120OSM    H5F12637   3.494   6.249   6.098  0.4470 -0.3571 -0.4630
  120OSM    H5G12638   3.520   6.073   6.107 -2.2754  0.7505  1.6033
  120OSM    C6F12639   3.699   6.188   6.097 -0.7389  0.5888  0.7593
  120OSM    H6F12640   3.770   6.109   6.130  0.8723  1.2544 -0.9343
  120OSM    H6G12641   3.735   6.288   6.128  1.5000  1.0036 -2.6141
  120OSM    C7F12642   3.715   6.186   5.941  0.1487  0.7786 -0.2222
  120OSM    H7F12643   3.649   6.265   5.897  0.0244  1.2602  0.7999
  120OSM    H7G12644   3.682   6.090   5.896  2.6926 -1.0752  1.6162
  120OSM    C8F12645   3.861   6.211   5.895 -0.1716  0.4274 -0.5428
  120OSM    H8F12646   3.929   6.136   5.941 -0.3349  1.0256  0.7239
  120OSM    H8G12647   3.881   6.312   5.937  0.7105 -0.3217  0.9303
  120OSM    C9F12648   3.889   6.193   5.748  0.3944 -0.1144  0.2293
  120OSM    H9F12649   3.824   6.123   5.694  0.0580  0.7417 -0.4926
  120OSM   C10F12650   3.973   6.267   5.677 -0.0698  0.0673 -0.0705
  120OSM   H10F12651   3.984   6.248   5.569 -0.0920  0.3181 -0.1166
  120OSM   C11F12652   4.047   6.389   5.731  0.7901  0.5790 -0.7210
  120OSM   H11F12653   4.035   6.390   5.842  1.4242 -2.4903 -0.5361
  120OSM   H11G12654   4.000   6.480   5.687 -0.3363  1.4434  2.0319
  120OSM   C12F12655   4.196   6.378   5.686 -0.4960 -0.2656 -0.5224
  120OSM   H12F12656   4.252   6.468   5.718 -0.0248 -1.1164  1.1780
  120OSM   H12G12657   4.223   6.387   5.578  0.8901 -0.5288 -0.2124
  120OSM   C13F12658   4.259   6.253   5.754 -0.8759  0.3463 -0.3384
  120OSM   H13F12659   4.209   6.160   5.720  0.3665 -0.0487 -1.1304
  120OSM   H13G12660   4.243   6.257   5.863  1.8870 -0.9724  0.1951
  120OSM   C14F12661   4.415   6.243   5.742  0.2452  0.3327  0.1622
  120OSM   H14F12662   4.450   6.336   5.692  0.0542  0.1016 -0.4168
  120OSM   H14G12663   4.428   6.152   5.680 -0.5766  0.8110 -0.7528
  120OSM   C15F12664   4.480   6.231   5.881 -0.2219 -0.4631 -0.0176
  120OSM   H15F12665   4.426   6.299   5.951  1.5927  1.6711 -0.5868
  120OSM   H15G12666   4.586   6.261   5.874 -0.9417  2.1736 -0.9504
  120OSM   C16F12667   4.472   6.086   5.940 -0.2846  0.4459 -0.3230
  120OSM   H16F12668   4.373   6.046   5.911 -0.3323  0.9055 -0.8259
  120OSM   H16G12669   4.477   6.086   6.051  3.9788  1.7190 -0.3242
  120OSM   C17F12670   4.588   5.997   5.894 -0.5510 -0.0894 -0.2815
  120OSM   H17F12671   4.682   6.048   5.924 -1.6702  1.4468  0.7642
  120OSM   H17G12672   4.579   5.987   5.784 -2.8885 -0.3741 -0.1080
  120OSM   C18F12673   4.579   5.854   5.952 -0.4746 -0.4256  0.2763
  120OSM   H18F12674   4.474   5.822   5.932  0.3059 -2.3337 -1.1099
  120OSM   H18G12675   4.589   5.849   6.062 -1.9904  0.0127  0.4568
  120OSM   H18H12676   4.654   5.781   5.915 -1.3327 -0.5868 -1.2564
  121OSM      N12677   5.705   1.162   7.379 -0.2528 -0.1440  0.5725
  121OSM    C1512678   5.851   1.158   7.391 -0.5533 -0.0555 -0.2824
  121OSM   H15A12679   5.886   1.113   7.483 -0.3038 -3.0999 -1.7452
  121OSM   H15B12680   5.914   1.245   7.379  0.4780 -0.3939  2.0679
  121OSM   H15C12681   5.894   1.097   7.312  1.7452  0.6958  0.3111
  121OSM    C1412682   5.650   1.028   7.403  0.2356 -0.3132  0.6020
  121OSM   H14A12683   5.658   1.000   7.506  0.3357 -0.9354  0.4285
  121OSM   H14B12684   5.704   0.954   7.346  0.2609  0.4954 -0.4606
  121OSM   H14C12685   5.545   1.019   7.380  0.2489 -0.9570  0.7689
  121OSM    C1312686   5.658   1.252   7.489  0.4595 -0.2873  0.4277
  121OSM   H13A12687   5.555   1.284   7.486  0.5102  0.2119  2.7028
  121OSM   H13B12688   5.714   1.344   7.502 -0.6609  0.6097 -0.7368
  121OSM   H13C12689   5.681   1.204   7.582  0.1530  0.9804  1.1888
  121OSM    C1212690   5.662   1.226   7.247  0.1548 -0.1422  0.1416
  121OSM   H12A12691   5.687   1.160   7.165 -1.3373 -1.3562  0.6267
  121OSM   H12B12692   5.718   1.317   7.232 -0.3448  0.7141  3.0028
  121OSM    C1112693   5.513   1.271   7.225 -0.2957  0.8302 -0.3122
  121OSM   H11A12694   5.523   1.317   7.124 -0.7802 -1.7386 -1.6154
  121OSM   H11B12695   5.486   1.340   7.307 -1.1807 -2.5380  2.4789
  121OSM      P12696   5.434   1.056   7.102 -0.0148 -0.1901 -0.8037
  121OSM    O1312697   5.555   0.972   7.120  0.4329  0.1515 -0.4409
  121OSM    O1412698   5.313   0.971   7.097  0.3725 -0.0098 -0.2547
  121OSM    O1112699   5.438   1.152   6.974  0.3954 -0.2331  0.1607
  121OSM    O1212700   5.423   1.166   7.220  0.1325  0.0730 -0.4491
  121OSM    C1S12701   5.471   1.085   6.851 -0.3308 -0.4171 -0.1390
  121OSM    H1S12702   5.406   0.996   6.832 -1.1994  0.1209  0.2663
  121OSM    H1T12703   5.577   1.052   6.861  0.1188  0.3603 -1.8879
  121OSM     NF12704   5.485   1.096   6.606 -0.2323  0.1501 -0.9318
  121OSM    HNF12705   5.560   1.130   6.550 -0.0770  2.9251  0.7795
  121OSM    C2S12706   5.454   1.170   6.726 -0.1160  0.1917 -0.4048
  121OSM    H2S12707   5.346   1.194   6.722  0.0699  0.9817 -0.9713
  121OSM    C3S12708   5.526   1.314   6.739  0.2209  0.1633  0.3507
  121OSM    H3S12709   5.636   1.295   6.737  0.2092  0.0985 -0.8335
  121OSM     O312710   5.492   1.372   6.861 -0.1398  0.2186  0.6477
  121OSM    HO312711   5.448   1.296   6.900 -0.8772  0.6079  0.5948
  121OSM    C4S12712   5.496   1.402   6.620  0.2986  1.2233  0.2807
  121OSM    H4S12713   5.548   1.361   6.532  0.0543 -3.5691  2.0946
  121OSM    C5S12714   5.417   1.513   6.596  0.2538  0.4074  0.2414
  121OSM    H5S12715   5.375   1.556   6.688  0.8478  2.3809 -0.3540
  121OSM    C6S12716   5.401   1.585   6.463  0.1956  0.1970 -0.1099
  121OSM    H6S12717   5.489   1.647   6.436  0.2876  0.0560 -0.1354
  121OSM    H6T12718   5.310   1.650   6.462 -0.6591 -0.9679  0.0798
  121OSM    C7S12719   5.374   1.482   6.348  0.1647 -0.2020  0.5604
  121OSM    H7S12720   5.284   1.420   6.366 -0.3978 -0.3897 -2.3410
  121OSM    H7T12721   5.455   1.420   6.304  0.9888 -0.3079  2.1841
  121OSM    C8S12722   5.326   1.556   6.218  0.1110 -0.0701 -0.1384
  121OSM    H8S12723   5.397   1.640   6.205 -0.5593  0.6780  0.9409
  121OSM    H8T12724   5.228   1.607   6.230  0.5184  0.8282 -0.5606
  121OSM    C9S12725   5.322   1.477   6.084 -0.6669  0.2003 -0.6734
  121OSM    H9S12726   5.247   1.395   6.088  0.0171 -0.4095 -0.2578
  121OSM    H9T12727   5.422   1.436   6.062  0.2128  1.1449  1.3283
  121OSM   C10S12728   5.273   1.574   5.973  0.8440  0.2359 -0.0790
  121OSM   H10S12729   5.302   1.529   5.876 -2.3890  0.6472 -1.3595
  121OSM   H10T12730   5.305   1.681   5.981  1.0420  0.4418 -2.6930
  121OSM   C11S12731   5.121   1.584   5.952  0.1583  0.3715 -0.7081
  121OSM   H11S12732   5.081   1.638   6.040  1.5007  1.6469 -0.8414
  121OSM   H11T12733   5.078   1.481   5.957 -0.9075  0.7625 -1.4787
  121OSM   C12S12734   5.074   1.652   5.823  0.1082  0.0386 -0.1421
  121OSM   H12S12735   5.129   1.608   5.737  1.0143 -0.7644  0.8299
  121OSM   H12T12736   5.104   1.759   5.826  1.0995 -0.2374  2.6795
  121OSM   C13S12737   4.923   1.653   5.790  0.8307 -0.1787  0.2295
  121OSM   H13S12738   4.878   1.723   5.863  2.1126  2.4385 -1.3450
  121OSM   H13T12739   4.875   1.553   5.801 -1.9492  1.2015  1.6654
  121OSM   C14S12740   4.884   1.717   5.661 -0.0454  0.6074 -0.2441
  121OSM   H14S12741   4.931   1.817   5.651 -0.7111  0.7409 -2.6182
  121OSM   H14T12742   4.776   1.739   5.663 -0.1931 -0.0900  2.0124
  121OSM   C15S12743   4.912   1.627   5.538  0.1624 -0.4478  0.0159
  121OSM   H15S12744   4.851   1.536   5.557  0.9214 -1.2564 -1.2708
  121OSM   H15T12745   5.015   1.588   5.524 -0.2103 -2.2800  1.9858
  121OSM   C16S12746   4.859   1.687   5.406 -0.2016 -0.2518 -0.3438
  121OSM   H16S12747   4.921   1.779   5.398  1.3088 -1.2292 -0.2257
  121OSM   H16T12748   4.750   1.711   5.407 -0.6578 -2.1552 -0.3816
  121OSM   C17S12749   4.857   1.609   5.280  1.1240  0.5883 -0.6644
  121OSM   H17S12750   4.819   1.505   5.291  1.1542  0.6892  0.4842
  121OSM   H17T12751   4.962   1.579   5.255  1.7713  0.9691  1.4205
  121OSM   C18S12752   4.768   1.675   5.183 -0.8412  0.0964 -0.1440
  121OSM   H18S12753   4.771   1.605   5.097  0.7795 -3.4966  2.5819
  121OSM   H18T12754   4.820   1.768   5.149 -1.4228  0.7574  0.7227
  121OSM   H18U12755   4.663   1.699   5.209 -0.8613  1.1599 -1.1261
  121OSM    C1F12756   5.411   0.993   6.570 -0.4461  0.6561 -0.2972
  121OSM     OF12757   5.301   0.970   6.619 -0.1920  0.4215 -0.1495
  121OSM    C2F12758   5.457   0.895   6.465  0.1272  0.7815  0.4765
  121OSM    H2F12759   5.475   0.794   6.507  0.7960  0.4719 -0.5141
  121OSM    H2G12760   5.558   0.930   6.434  0.1403  1.4914  1.2700
  121OSM    C3F12761   5.362   0.896   6.350 -0.8312 -0.3173  0.0455
  121OSM    H3F12762   5.343   1.004   6.335 -0.3492 -0.5063 -2.2942
  121OSM    H3G12763   5.265   0.845   6.366 -0.2606 -1.4258  0.0836
  121OSM    C4F12764   5.420   0.839   6.222 -0.2576 -0.0112  1.1818
  121OSM    H4F12765   5.424   0.728   6.216 -0.3845  0.0599 -1.0740
  121OSM    H4G12766   5.522   0.879   6.202 -1.8348  2.9433 -2.3015
  121OSM    C5F12767   5.330   0.876   6.102  0.1662  0.0855  0.4250
  121OSM    H5F12768   5.306   0.985   6.101 -1.3706 -0.2138 -1.3950
  121OSM    H5G12769   5.237   0.816   6.115 -0.1925  0.6786  0.6391
  121OSM    C6F12770   5.392   0.832   5.969  0.3195 -0.2142  0.6760
  121OSM    H6F12771   5.366   0.724   5.967 -2.0515  0.2967 -0.0920
  121OSM    H6G12772   5.502   0.843   5.974  0.3996 -1.2408  1.3308
  121OSM    C7F12773   5.336   0.898   5.843  0.7080 -0.4935  0.5166
  121OSM    H7F12774   5.341   1.009   5.849  0.3114 -0.3642 -1.0245
  121OSM    H7G12775   5.227   0.883   5.834  0.7773 -0.5664 -0.3549
  121OSM    C8F12776   5.391   0.845   5.717 -0.4320 -0.5103  0.5035
  121OSM    H8F12777   5.371   0.736   5.714 -0.8341 -0.4739  1.4556
  121OSM    H8G12778   5.501   0.860   5.717 -0.1895 -2.0788  0.8867
  121OSM    C9F12779   5.336   0.923   5.598  0.8958 -0.0091  0.2634
  121OSM    H9F12780   5.352   1.032   5.605  0.6378  0.1407 -1.1343
  121OSM   C10F12781   5.278   0.880   5.481  0.2539 -0.1176  0.0580
  121OSM   H10F12782   5.248   0.949   5.402 -1.6665 -2.3966 -1.3318
  121OSM   C11F12783   5.244   0.739   5.441  0.2249  0.4247 -0.4196
  121OSM   H11F12784   5.183   0.701   5.526  0.5679 -0.8795 -0.7397
  121OSM   H11G12785   5.339   0.682   5.438  0.4283  0.7072  0.4184
  121OSM   C12F12786   5.164   0.728   5.308  0.1446  0.2242  0.6465
  121OSM   H12F12787   5.238   0.777   5.242 -0.1329  0.5165  0.5508
  121OSM   H12G12788   5.070   0.787   5.321  0.4271  0.8097  0.0905
  121OSM   C13F12789   5.140   0.589   5.256  0.8608  0.7682 -0.6409
  121OSM   H13F12790   5.240   0.541   5.251  1.4278  1.1691  3.4016
  121OSM   H13G12791   5.099   0.598   5.153  1.4309  1.7480 -0.7895
  121OSM   C14F12792   5.043   0.508   5.342  0.1656  0.3617  0.3655
  121OSM   H14F12793   4.971   0.582   5.383 -0.8706  0.1477 -0.9927
  121OSM   H14G12794   5.102   0.464   5.425 -1.0085 -0.5966  0.7148
  121OSM   C15F12795   4.970   0.402   5.255  0.1794 -0.2584 -0.5576
  121OSM   H15F12796   5.046   0.336   5.207 -1.8275 -1.9399 -1.5593
  121OSM   H15G12797   4.922   0.461   5.174  0.3661 -1.5777 -1.6690
  121OSM   C16F12798   4.873   0.323   5.331  1.2760  0.6278 -0.4776
  121OSM   H16F12799   4.810   0.393   5.390  0.3781  0.8060 -1.6087
  121OSM   H16G12800   4.934   0.257   5.395 -3.5714 -1.1266  2.9259
  121OSM   C17F12801   4.785   0.230   5.231 -0.5175 -0.4045 -0.6585
  121OSM   H17F12802   4.855   0.156   5.188 -0.6784 -1.4778  0.8432
  121OSM   H17G12803   4.744   0.294   5.150 -1.1774 -1.0779 -0.8651
  121OSM   C18F12804   4.684   0.146   5.301  1.2125  0.3358  0.6319
  121OSM   H18F12805   4.626   0.095   5.220  3.5356 -0.5887 -0.5314
  121OSM   H18G12806   4.607   0.195   5.365 -0.2378 -1.1713  0.1408
  121OSM   H18H12807   4.732   0.062   5.356  0.9151 -0.2022  0.0852
  122OSM      N12808   4.388   3.711   7.081  0.2611 -0.3274 -0.6421
  122OSM    C1512809   4.430   3.854   7.098 -0.0665 -0.1049 -0.2829
  122OSM   H15A12810   4.526   3.858   7.148 -0.2790 -3.2326  0.5732
  122OSM   H15B12811   4.350   3.903   7.152 -1.0691 -0.9769 -0.9358
  122OSM   H15C12812   4.442   3.883   6.995  2.8784  0.8077  0.2183
  122OSM    C1412813   4.498   3.634   7.021  0.6192 -0.4600 -0.4027
  122OSM   H14A12814   4.584   3.649   7.084 -0.7176 -0.7740  1.6115
  122OSM   H14B12815   4.498   3.665   6.917  3.1008 -0.7581 -0.5425
  122OSM   H14C12816   4.470   3.530   7.029 -2.1552  0.1951 -0.3410
  122OSM    C1312817   4.357   3.653   7.217  0.1606  0.6631  1.0711
  122OSM   H13A12818   4.343   3.547   7.210  0.2490  0.6206  1.4970
  122OSM   H13B12819   4.264   3.699   7.247 -1.9558 -1.7466 -1.3172
  122OSM   H13C12820   4.446   3.677   7.273  2.1605 -2.0110 -0.7194
  122OSM    C1212821   4.264   3.710   7.001  0.5648 -0.6537 -0.6398
  122OSM   H12A12822   4.189   3.769   7.050 -0.1363 -2.9424  1.2056
  122OSM   H12B12823   4.223   3.611   6.986  1.2983 -1.2234  0.9231
  122OSM    C1112824   4.275   3.774   6.863 -0.3002  0.2752 -0.5435
  122OSM   H11A12825   4.317   3.877   6.863  0.3284  0.0527 -2.5231
  122OSM   H11B12826   4.179   3.768   6.806  0.3131 -0.7767 -1.4970
  122OSM      P12827   4.324   3.566   6.699  0.0926 -0.0158 -0.4841
  122OSM    O1312828   4.453   3.505   6.644 -0.1783 -0.6951  0.3460
  122OSM    O1412829   4.237   3.488   6.790  0.4553 -0.6904  0.7877
  122OSM    O1112830   4.240   3.613   6.569 -0.2076 -0.1329 -0.5281
  122OSM    O1212831   4.354   3.695   6.779  0.4564 -0.2250 -0.4083
  122OSM    C1S12832   4.299   3.720   6.496 -0.3246 -0.1400  0.0195
  122OSM    H1S12833   4.409   3.725   6.512 -0.2031 -0.0600 -0.8090
  122OSM    H1T12834   4.248   3.814   6.525 -3.1996 -0.9773 -1.8873
  122OSM     NF12835   4.338   3.813   6.272 -0.1833  0.0876  0.4923
  122OSM    HNF12836   4.282   3.895   6.266 -2.2038 -1.2384  0.3912
  122OSM    C2S12837   4.266   3.715   6.351 -0.7068  0.3376  0.1057
  122OSM    H2S12838   4.301   3.623   6.298  0.0251  1.2049 -0.9723
  122OSM    C3S12839   4.108   3.726   6.329 -0.6402  0.4995  0.0895
  122OSM    H3S12840   4.088   3.834   6.348 -1.9737 -0.3213  4.3565
  122OSM     O312841   4.038   3.639   6.419 -0.2471 -0.2387 -0.0122
  122OSM    HO312842   4.098   3.612   6.489  2.0256 -1.8778 -2.3920
  122OSM    C4S12843   4.076   3.703   6.185  0.2213  0.0512 -0.2133
  122OSM    H4S12844   4.067   3.800   6.133 -0.7250 -0.4612 -1.0261
  122OSM    C5S12845   4.062   3.580   6.123  0.6328 -0.0471  0.1394
  122OSM    H5S12846   4.074   3.492   6.188 -0.9887  0.2961  0.9554
  122OSM    C6S12847   4.064   3.557   5.971  0.4367  0.6945 -0.7353
  122OSM    H6S12848   3.961   3.551   5.930  0.3661 -1.4524 -0.4036
  122OSM    H6T12849   4.119   3.461   5.960 -0.6674 -0.1526  0.7372
  122OSM    C7S12850   4.136   3.660   5.879  0.8907  0.0549 -0.6857
  122OSM    H7S12851   4.231   3.680   5.933  1.1587  0.3593 -1.2684
  122OSM    H7T12852   4.079   3.755   5.874  2.0114  0.8811  1.0350
  122OSM    C8S12853   4.171   3.599   5.737  0.0376 -0.3991  0.2027
  122OSM    H8S12854   4.074   3.584   5.686  0.9486 -1.3389 -1.3319
  122OSM    H8T12855   4.208   3.494   5.738  1.0146 -0.0732  1.1845
  122OSM    C9S12856   4.267   3.686   5.655 -0.4034 -0.0575  0.1864
  122OSM    H9S12857   4.369   3.703   5.697  0.9494 -1.3548 -2.3568
  122OSM    H9T12858   4.219   3.785   5.639  0.3388  0.4959  1.2054
  122OSM   C10S12859   4.286   3.622   5.519 -0.0416  0.0789  0.4640
  122OSM   H10S12860   4.301   3.512   5.527 -2.1377 -0.4469 -1.6564
  122OSM   H10T12861   4.379   3.661   5.471 -0.8195 -1.0015 -2.1131
  122OSM   C11S12862   4.162   3.633   5.424 -0.3568  0.2452 -0.5445
  122OSM   H11S12863   4.129   3.739   5.432 -0.8907 -0.0183  1.3414
  122OSM   H11T12864   4.080   3.573   5.469 -0.6540 -0.4188 -1.9169
  122OSM   C12S12865   4.195   3.608   5.278  0.1425  0.1098 -0.0080
  122OSM   H12S12866   4.209   3.499   5.264  5.6172  0.9063 -3.6506
  122OSM   H12T12867   4.284   3.662   5.241 -0.6185 -0.0901 -2.3250
  122OSM   C13S12868   4.073   3.651   5.185  0.7413 -0.3041 -0.1875
  122OSM   H13S12869   4.045   3.755   5.210  0.2892 -0.4107 -0.2463
  122OSM   H13T12870   3.985   3.588   5.211 -0.9507  1.5065 -1.2674
  122OSM   C14S12871   4.109   3.658   5.038 -1.3235  0.1112  0.8020
  122OSM   H14S12872   4.207   3.709   5.026 -1.5369  0.0202 -2.0848
  122OSM   H14T12873   4.036   3.705   4.970 -1.2234 -0.0842  0.5575
  122OSM   C15S12874   4.120   3.501   4.993 -0.4275 -0.1597  0.1078
  122OSM   H15S12875   4.019   3.459   5.011 -0.2608  0.1604  1.9118
  122OSM   H15T12876   4.188   3.446   5.061  0.1340  0.0372 -0.2866
  122OSM   C16S12877   4.161   3.481   4.846  0.3025 -0.1465  0.3483
  122OSM   H16S12878   4.180   3.373   4.825 -0.6075  0.2764 -3.1896
  122OSM   H16T12879   4.253   3.539   4.824  1.0903 -1.1256  0.9279
  122OSM   C17S12880   4.055   3.530   4.749 -0.0035 -0.2768 -0.2100
  122OSM   H17S12881   4.027   3.637   4.763  1.0599  0.3273 -2.2454
  122OSM   H17T12882   3.963   3.473   4.774 -0.8302  0.8977 -0.4966
  122OSM   C18S12883   4.114   3.504   4.607  0.0052 -0.3288 -0.0478
  122OSM   H18S12884   4.041   3.509   4.524  0.8090 -1.6537 -0.8603
  122OSM   H18T12885   4.143   3.397   4.601 -2.0070 -1.1746  2.9927
  122OSM   H18U12886   4.205   3.565   4.586  1.2360 -2.3896 -1.0878
  122OSM    C1F12887   4.468   3.807   6.244  0.0367 -0.5264  0.3085
  122OSM     OF12888   4.540   3.712   6.279  0.2961 -0.7452 -0.0331
  122OSM    C2F12889   4.517   3.931   6.178  0.2197  0.8035  0.4300
  122OSM    H2F12890   4.622   3.955   6.208 -0.4264 -0.2307  4.0206
  122OSM    H2G12891   4.456   4.016   6.214 -2.7791 -0.7634 -0.6582
  122OSM    C3F12892   4.503   3.908   6.021 -0.1866  0.2481 -0.2538
  122OSM    H3F12893   4.398   3.881   6.001 -0.1474  0.6614 -1.0587
  122OSM    H3G12894   4.562   3.823   5.981 -2.8081 -0.8759 -1.9687
  122OSM    C4F12895   4.540   4.021   5.931 -0.4065 -0.3064  0.2865
  122OSM    H4F12896   4.646   4.046   5.952  0.0530 -1.4586 -0.5680
  122OSM    H4G12897   4.469   4.106   5.938  1.8698  1.7200 -0.0466
  122OSM    C5F12898   4.538   3.969   5.784 -0.3999  0.4513 -0.6551
  122OSM    H5F12899   4.439   3.920   5.770 -1.6288  2.3827  0.8069
  122OSM    H5G12900   4.617   3.891   5.778  0.5442  1.1982  1.1726
  122OSM    C6F12901   4.553   4.082   5.684 -0.3100 -0.0134  0.0514
  122OSM    H6F12902   4.547   4.039   5.582 -1.0561  0.5801 -0.1614
  122OSM    H6G12903   4.656   4.123   5.698  0.9660 -2.3988 -1.7327
  122OSM    C7F12904   4.459   4.207   5.688 -0.8165  0.8194  0.3667
  122OSM    H7F12905   4.507   4.277   5.759  1.1971 -1.2288  1.1571
  122OSM    H7G12906   4.364   4.171   5.735 -1.1930  0.1237 -0.8767
  122OSM    C8F12907   4.411   4.271   5.558 -1.5585 -0.1773  0.0364
  122OSM    H8F12908   4.329   4.344   5.575  0.0222  1.2255  2.2095
  122OSM    H8G12909   4.383   4.200   5.477  0.6117  1.9840 -2.8136
  122OSM    C9F12910   4.521   4.358   5.506 -0.3207  0.7876  0.0594
  122OSM    H9F12911   4.574   4.420   5.580 -1.0512 -0.2011  1.4487
  122OSM   C10F12912   4.570   4.363   5.381 -0.0524 -0.8300 -0.2479
  122OSM   H10F12913   4.644   4.441   5.359 -1.8462  1.1708  0.4703
  122OSM   C11F12914   4.514   4.297   5.253  0.1018 -0.4143 -0.6834
  122OSM   H11F12915   4.513   4.187   5.269  1.5983 -0.4738 -0.8239
  122OSM   H11G12916   4.589   4.310   5.172 -0.6489  1.1386 -1.1679
  122OSM   C12F12917   4.379   4.344   5.210  0.6563 -0.4069  0.0702
  122OSM   H12F12918   4.397   4.440   5.156  1.4676  0.2543  1.4674
  122OSM   H12G12919   4.310   4.374   5.291 -0.1557 -2.3263  0.1314
  122OSM   C13F12920   4.314   4.246   5.109  0.6424 -0.8239 -0.5734
  122OSM   H13F12921   4.236   4.307   5.059  1.9101  1.8649  0.5329
  122OSM   H13G12922   4.275   4.153   5.156  0.7494  0.3011  1.8843
  122OSM   C14F12923   4.412   4.185   5.001  0.2608 -0.0141 -0.1949
  122OSM   H14F12924   4.469   4.105   5.053  0.3446  1.1144  1.5206
  122OSM   H14G12925   4.480   4.270   4.978  0.2284 -0.0282 -0.3434
  122OSM   C15F12926   4.346   4.135   4.874  0.0228 -0.0439  0.4639
  122OSM   H15F12927   4.286   4.217   4.828 -0.2704 -0.9569 -0.8275
  122OSM   H15G12928   4.281   4.048   4.895  0.8953 -0.8215  0.0037
  122OSM   C16F12929   4.450   4.093   4.766 -0.4976  0.7163 -0.3102
  122OSM   H16F12930   4.543   4.151   4.784  0.8499 -1.9506  2.1991
  122OSM   H16G12931   4.417   4.121   4.664 -0.1613  1.0399 -0.3357
  122OSM   C17F12932   4.494   3.945   4.770 -1.1610 -0.0243  0.3249
  122OSM   H17F12933   4.543   3.906   4.863 -0.8955 -2.2332 -0.6648
  122OSM   H17G12934   4.568   3.937   4.687 -1.3872  2.1465 -0.1434
  122OSM   C18F12935   4.388   3.833   4.750 -0.1201 -0.3044  0.5120
  122OSM   H18F12936   4.428   3.731   4.770 -2.1008 -1.3804 -0.6735
  122OSM   H18G12937   4.337   3.836   4.651 -1.0319  1.3331  0.9893
  122OSM   H18H12938   4.310   3.843   4.829 -0.0555  0.5210  0.4788
  123OSM      N12939   2.418   1.963   2.203  0.2283 -0.1498 -0.1769
  123OSM    C1512940   2.337   2.081   2.258 -0.8343 -0.9423  0.5280
  123OSM   H15A12941   2.395   2.119   2.341  1.8158  2.6897 -2.6269
  123OSM   H15B12942   2.239   2.053   2.292 -0.3287 -0.3933  2.5554
  123OSM   H15C12943   2.335   2.161   2.186  1.3491 -1.6865 -0.4608
  123OSM    C1412944   2.344   1.908   2.090 -0.3861  0.2334 -0.4308
  123OSM   H14A12945   2.312   1.983   2.019 -0.8950  0.3129 -0.1265
  123OSM   H14B12946   2.258   1.860   2.135 -0.6120 -0.9544 -2.0219
  123OSM   H14C12947   2.413   1.840   2.042  1.1064  2.5909 -1.8544
  123OSM    C1312948   2.551   2.018   2.166  0.1317 -0.1512  0.0915
  123OSM   H13A12949   2.612   1.953   2.105  1.0159 -1.4478  2.2075
  123OSM   H13B12950   2.613   2.043   2.252 -0.1236  1.2155 -0.1038
  123OSM   H13C12951   2.534   2.115   2.122 -3.2228  0.4595  2.3192
  123OSM    C1212952   2.442   1.854   2.314  0.4642  0.1722  0.0902
  123OSM   H12A12953   2.488   1.770   2.264 -2.0610 -1.4810  0.3487
  123OSM   H12B12954   2.348   1.808   2.342  0.0365  1.5252  0.9557
  123OSM    C1112955   2.514   1.880   2.451 -0.2918  0.6870 -0.3707
  123OSM   H11A12956   2.514   1.780   2.499 -0.5030  0.2406 -1.2991
  123OSM   H11B12957   2.446   1.951   2.504 -0.7209 -0.1994  0.3111
  123OSM      P12958   2.782   1.862   2.421  0.3514  0.6335 -0.0342
  123OSM    O1312959   2.758   1.762   2.315 -0.1185  0.5429  0.4695
  123OSM    O1412960   2.890   1.966   2.400 -0.2406 -0.3272 -0.0777
  123OSM    O1112961   2.808   1.780   2.557  0.0609  0.2304 -0.1319
  123OSM    O1212962   2.645   1.939   2.443 -0.0023  0.1180 -0.3944
  123OSM    C1S12963   2.837   1.862   2.669 -0.7856  0.5087 -0.0710
  123OSM    H1S12964   2.836   1.971   2.649  1.4108  1.1529  2.6232
  123OSM    H1T12965   2.943   1.842   2.695 -1.4757 -2.9111  0.6967
  123OSM     NF12966   2.770   1.938   2.903 -0.4681 -0.6170  0.9278
  123OSM    HNF12967   2.820   1.900   2.980  0.8527  1.2584  1.0709
  123OSM    C2S12968   2.740   1.851   2.788 -0.1315 -0.1914  0.1353
  123OSM    H2S12969   2.648   1.901   2.751 -0.5867  1.1892  2.9431
  123OSM    C3S12970   2.695   1.699   2.816 -0.5400 -0.0198 -0.2358
  123OSM    H3S12971   2.783   1.634   2.834 -1.6197 -1.5664 -0.3693
  123OSM     O312972   2.623   1.635   2.710 -0.7155  0.0640 -0.2210
  123OSM    HO312973   2.650   1.689   2.636  1.5330  2.3864  2.0936
  123OSM    C4S12974   2.613   1.701   2.938  0.3911 -0.5853  0.2223
  123OSM    H4S12975   2.505   1.697   2.920  0.0392 -1.0791  2.1621
  123OSM    C5S12976   2.655   1.654   3.058 -0.2796 -0.3963  0.1180
  123OSM    H5S12977   2.755   1.612   3.078  1.0624  3.7557  3.4842
  123OSM    C6S12978   2.558   1.633   3.169  0.4849  0.2565 -0.0524
  123OSM    H6S12979   2.563   1.527   3.203 -0.2656 -0.2433 -1.4338
  123OSM    H6T12980   2.456   1.654   3.132  0.7767  0.6418 -0.6625
  123OSM    C7S12981   2.581   1.736   3.282  0.1042 -0.0904 -0.3843
  123OSM    H7S12982   2.569   1.838   3.239  0.0988  0.6224  1.2279
  123OSM    H7T12983   2.684   1.729   3.324  1.1266  3.4610 -1.8858
  123OSM    C8S12984   2.476   1.718   3.395 -0.1656 -0.6418  0.1406
  123OSM    H8S12985   2.472   1.614   3.434  1.3770 -0.6482  0.3426
  123OSM    H8T12986   2.381   1.751   3.347  0.6194 -1.1213 -1.8599
  123OSM    C9S12987   2.514   1.804   3.515 -0.6294 -0.5338 -0.0628
  123OSM    H9S12988   2.530   1.903   3.468 -0.7372 -0.5447 -0.1222
  123OSM    H9T12989   2.613   1.764   3.546  0.1856  0.4442 -1.2873
  123OSM   C10S12990   2.412   1.825   3.625 -0.0382  1.2936  0.4801
  123OSM   H10S12991   2.393   1.723   3.665 -0.1454  1.7391  1.5911
  123OSM   H10T12992   2.316   1.866   3.586 -0.4250 -0.8176 -0.9941
  123OSM   C11S12993   2.467   1.898   3.745 -0.1048  0.6558  0.4383
  123OSM   H11S12994   2.530   1.821   3.795  1.7600 -0.0611 -2.7282
  123OSM   H11T12995   2.388   1.925   3.818 -0.2262 -0.0656  0.5818
  123OSM   C12S12996   2.569   2.016   3.717 -0.2362  0.3552  0.2849
  123OSM   H12S12997   2.554   2.074   3.623 -0.2034  0.7548  0.5229
  123OSM   H12T12998   2.672   1.975   3.715  0.9413  2.8723  2.8291
  123OSM   C13S12999   2.577   2.122   3.838  0.4115  0.0864 -0.4167
  123OSM   H13S13000   2.566   2.079   3.940  1.1328  1.8261  0.4316
  123OSM   H13T13001   2.488   2.187   3.827 -0.0215 -0.4177  0.0192
  123OSM   C14S13002   2.703   2.212   3.837  0.2029  0.4439  0.8149
  123OSM   H14S13003   2.722   2.247   3.733  0.7587 -0.1525  0.7110
  123OSM   H14T13004   2.782   2.140   3.866 -1.8054 -2.2816 -0.1534
  123OSM   C15S13005   2.699   2.342   3.927 -0.9038  0.6965  0.1896
  123OSM   H15S13006   2.629   2.418   3.887 -0.7760  1.2848  1.0492
  123OSM   H15T13007   2.800   2.386   3.925 -0.0927 -1.0740  0.0442
  123OSM   C16S13008   2.645   2.321   4.072 -0.2338  0.4572  0.7408
  123OSM   H16S13009   2.704   2.238   4.118 -0.9240  0.5112  1.7678
  123OSM   H16T13010   2.540   2.285   4.080 -0.6703  1.9087  2.0533
  123OSM   C17S13011   2.656   2.446   4.160  0.6325 -0.6593 -0.3937
  123OSM   H17S13012   2.596   2.458   4.252 -0.4159  1.4919 -1.2928
  123OSM   H17T13013   2.626   2.534   4.100  1.6515 -0.5706 -0.8067
  123OSM   C18S13014   2.800   2.475   4.207  0.0101  0.7872  0.2822
  123OSM   H18S13015   2.877   2.485   4.127 -0.0573 -1.1490 -0.0846
  123OSM   H18T13016   2.829   2.404   4.288 -0.1459 -1.3529 -1.4495
  123OSM   H18U13017   2.796   2.573   4.260  0.4112  1.7185 -1.3474
  123OSM    C1F13018   2.777   2.072   2.898  0.0634 -0.0369 -0.0300
  123OSM     OF13019   2.725   2.136   2.806 -0.3348  0.1789  0.2094
  123OSM    C2F13020   2.844   2.143   3.011 -0.1814  0.6506  0.4976
  123OSM    H2F13021   2.920   2.079   3.060 -0.4017 -0.5986 -0.7342
  123OSM    H2G13022   2.772   2.168   3.092  0.0758  2.7951  0.1289
  123OSM    C3F13023   2.920   2.272   2.969 -0.1441 -0.0047 -0.3570
  123OSM    H3F13024   2.854   2.311   2.888  0.5521 -1.2869 -1.5706
  123OSM    H3G13025   3.012   2.267   2.907 -1.7428  1.1153 -3.0179
  123OSM    C4F13026   2.940   2.370   3.083 -0.0960  0.1750  0.1034
  123OSM    H4F13027   2.843   2.383   3.137 -1.3957 -3.7618 -0.9323
  123OSM    H4G13028   2.982   2.463   3.041  0.4662  0.2335  0.7716
  123OSM    C5F13029   3.043   2.320   3.183  0.3032  0.6272 -0.1459
  123OSM    H5F13030   3.142   2.330   3.134  0.8878  0.3678  0.9366
  123OSM    H5G13031   3.019   2.215   3.210  0.3294  0.8450  0.7668
  123OSM    C6F13032   3.041   2.401   3.314 -0.2314 -0.2032 -0.0069
  123OSM    H6F13033   2.953   2.378   3.378 -0.8504  1.9729 -0.0095
  123OSM    H6G13034   3.029   2.510   3.299 -1.7097 -0.3409 -0.0246
  123OSM    C7F13035   3.173   2.383   3.396 -0.2366 -0.2616 -0.0553
  123OSM    H7F13036   3.248   2.446   3.344  0.3169 -1.2369 -0.4600
  123OSM    H7G13037   3.209   2.278   3.384  1.1141  0.2061 -0.2837
  123OSM    C8F13038   3.175   2.446   3.532  0.0307 -0.1749  0.3538
  123OSM    H8F13039   3.161   2.554   3.510 -0.7658 -0.2665  0.3737
  123OSM    H8G13040   3.279   2.447   3.572  0.4040 -1.9037 -0.4451
  123OSM    C9F13041   3.073   2.378   3.628  0.3479 -1.1549 -0.2581
  123OSM    H9F13042   2.990   2.331   3.573  0.9248 -2.7390  0.1531
  123OSM   C10F13043   3.081   2.357   3.759 -0.1073  0.0608  0.0042
  123OSM   H10F13044   2.992   2.319   3.811 -0.7822  0.7036 -0.6442
  123OSM   C11F13045   3.199   2.400   3.842 -0.0740  0.5126 -0.0990
  123OSM   H11F13046   3.264   2.464   3.780  2.4020 -0.9002  0.8909
  123OSM   H11G13047   3.259   2.314   3.881  2.0386  1.9358 -0.0642
  123OSM   C12F13048   3.150   2.470   3.973 -0.2110  0.2247 -0.1209
  123OSM   H12F13049   3.070   2.408   4.018  0.2421 -0.3930 -0.1471
  123OSM   H12G13050   3.090   2.560   3.948 -2.9594 -1.6818 -0.8074
  123OSM   C13F13051   3.264   2.518   4.063 -1.0402  0.3374 -0.1182
  123OSM   H13F13052   3.351   2.564   4.012 -1.3484 -1.0403 -2.0190
  123OSM   H13G13053   3.290   2.427   4.122 -2.0487 -0.7083 -1.2139
  123OSM   C14F13054   3.209   2.610   4.169 -0.0283 -0.4616  0.1650
  123OSM   H14F13055   3.109   2.572   4.196  0.4223 -2.1784 -0.4712
  123OSM   H14G13056   3.202   2.711   4.123  2.1825  1.0240  2.7668
  123OSM   C15F13057   3.284   2.624   4.305 -0.1742  0.5194  0.1826
  123OSM   H15F13058   3.387   2.663   4.293  0.3558 -0.2939  1.7309
  123OSM   H15G13059   3.289   2.517   4.337  0.3754 -0.0185 -1.6116
  123OSM   C16F13060   3.206   2.699   4.406  0.1831 -0.1816 -0.0246
  123OSM   H16F13061   3.129   2.632   4.449 -1.2971  0.4712 -1.5215
  123OSM   H16G13062   3.174   2.793   4.357  1.9266  0.3947 -0.1478
  123OSM   C17F13063   3.293   2.737   4.527 -0.2568  0.4013  0.2188
  123OSM   H17F13064   3.390   2.779   4.494 -1.0956  3.0363  0.8373
  123OSM   H17G13065   3.321   2.653   4.594  1.7974  1.5676  0.9054
  123OSM   C18F13066   3.219   2.834   4.606  0.3276  0.5329 -1.0939
  123OSM   H18F13067   3.185   2.915   4.537 -0.5184 -0.4077 -1.8116
  123OSM   H18G13068   3.284   2.879   4.683 -0.9483 -0.2274  0.4831
  123OSM   H18H13069   3.125   2.795   4.650 -0.5478  2.1165 -1.4674
  124OSM      N13070   6.868   3.081   2.458 -0.0166 -0.3389 -0.6606
  124OSM    C1513071   6.859   3.208   2.377 -0.1999  0.8096  0.6258
  124OSM   H15A13072   6.759   3.224   2.340  0.0299  1.6832  0.3403
  124OSM   H15B13073   6.930   3.218   2.296 -1.6548  0.3662 -0.7474
  124OSM   H15C13074   6.879   3.296   2.437  0.0037  2.3404 -1.5550
  124OSM    C1413075   6.839   2.964   2.372 -0.4046 -0.0891 -0.0749
  124OSM   H14A13076   6.811   2.882   2.438 -0.3149 -0.9930 -1.1328
  124OSM   H14B13077   6.922   2.916   2.323  0.5236 -0.3415  1.6558
  124OSM   H14C13078   6.763   2.987   2.299  0.0346 -0.7915 -0.7682
  124OSM    C1313079   7.004   3.064   2.514 -0.4471  0.0957 -0.2540
  124OSM   H13A13080   7.021   2.963   2.549  0.1876  0.0811 -0.5939
  124OSM   H13B13081   7.022   3.130   2.597  0.4529 -0.4507 -0.0011
  124OSM   H13C13082   7.080   3.067   2.438 -0.4722  0.1720 -0.2757
  124OSM    C1213083   6.767   3.088   2.570 -0.5162  0.0277 -0.1778
  124OSM   H12A13084   6.664   3.083   2.536 -1.0687  2.1864  0.9805
  124OSM   H12B13085   6.781   3.188   2.608  1.9846 -0.3656  0.0665
  124OSM    C1113086   6.771   2.978   2.672 -0.9511  0.3689  0.0267
  124OSM   H11A13087   6.697   3.001   2.752 -1.5009 -1.7652  0.1924
  124OSM   H11B13088   6.870   2.973   2.722 -1.7958 -1.8055  1.6049
  124OSM      P13089   6.619   2.791   2.560 -0.0622 -0.6073  0.3317
  124OSM    O1313090   6.546   2.901   2.484 -0.6724  0.7854 -0.0957
  124OSM    O1413091   6.648   2.658   2.492 -0.5370  0.1670  0.1517
  124OSM    O1113092   6.521   2.760   2.680  0.4782 -0.6988 -0.0816
  124OSM    O1213093   6.755   2.851   2.618 -0.1772  0.4824 -0.3332
  124OSM    C1S13094   6.543   2.662   2.779  0.0309 -0.2333  0.1273
  124OSM    H1S13095   6.579   2.568   2.732  0.2604 -0.8691  1.5103
  124OSM    H1T13096   6.442   2.628   2.810  0.5654 -1.1121  0.9824
  124OSM     NF13097   6.656   2.593   2.982  0.7907 -0.3165  0.6275
  124OSM    HNF13098   6.599   2.582   3.063 -0.6668  2.1724  0.0418
  124OSM    C2S13099   6.623   2.709   2.897  0.3235 -0.5576 -0.7803
  124OSM    H2S13100   6.716   2.764   2.869  0.4574  0.3845  1.3037
  124OSM    C3S13101   6.536   2.820   2.971 -0.1751  0.5673  0.2614
  124OSM    H3S13102   6.444   2.778   3.017 -0.5648 -0.8862 -1.6939
  124OSM     O313103   6.481   2.906   2.880  0.3477 -0.8492  0.6837
  124OSM    HO313104   6.487   2.850   2.802 -1.1607  1.1964 -1.0452
  124OSM    C4S13105   6.614   2.876   3.082  0.6139 -0.4801  0.2801
  124OSM    H4S13106   6.609   2.815   3.174  0.2872  0.1846  0.7146
  124OSM    C5S13107   6.674   2.997   3.092 -0.1538  0.4836 -0.2472
  124OSM    H5S13108   6.675   3.072   3.011  0.6577  0.2979 -0.4154
  124OSM    C6S13109   6.729   3.058   3.218  0.2608 -0.1649 -0.5148
  124OSM    H6S13110   6.668   3.149   3.237  2.1683  1.3771 -1.4195
  124OSM    H6T13111   6.833   3.095   3.205  0.6276 -0.6451  0.8837
  124OSM    C7S13112   6.742   2.978   3.349 -0.1903 -0.1209  0.4835
  124OSM    H7S13113   6.782   2.878   3.323  2.4103  0.9416  0.0562
  124OSM    H7T13114   6.643   2.958   3.395  0.0308 -0.9134  0.6335
  124OSM    C8S13115   6.833   3.041   3.454  0.3677  0.9174  0.0141
  124OSM    H8S13116   6.805   3.137   3.501 -2.2590 -0.5134  1.6150
  124OSM    H8T13117   6.935   3.067   3.418  1.7931 -0.8549  2.4184
  124OSM    C9S13118   6.854   2.948   3.577 -0.3873 -0.0175 -0.2207
  124OSM    H9S13119   6.892   2.849   3.544  0.3065  0.9923 -2.6881
  124OSM    H9T13120   6.751   2.931   3.616 -0.3965  2.2848  0.9274
  124OSM   C10S13121   6.945   3.021   3.680  0.3676 -0.1511 -0.1959
  124OSM   H10S13122   6.931   3.131   3.668 -0.0552  0.0619  1.9109
  124OSM   H10T13123   7.054   3.003   3.669  0.7172  1.8686 -0.4261
  124OSM   C11S13124   6.919   2.979   3.821  0.1739 -0.7441 -0.2062
  124OSM   H11S13125   6.825   3.031   3.851 -0.1683 -1.4332 -0.0846
  124OSM   H11T13126   6.998   3.020   3.888  0.5475 -0.6281 -0.7092
  124OSM   C12S13127   6.929   2.829   3.844 -0.2921 -0.2235  0.0439
  124OSM   H12S13128   7.025   2.795   3.800  0.2132 -1.7133  2.1111
  124OSM   H12T13129   6.841   2.772   3.807  1.0113 -3.0098  0.9644
  124OSM   C13S13130   6.950   2.799   3.984  0.7829 -0.4007 -0.7057
  124OSM   H13S13131   7.032   2.846   4.042 -0.3117  1.1714 -0.3635
  124OSM   H13T13132   6.975   2.691   3.985 -0.2043 -0.6356 -0.0846
  124OSM   C14S13133   6.824   2.821   4.070  0.3378  0.2741 -0.8389
  124OSM   H14S13134   6.729   2.788   4.023 -1.1115 -0.4282  2.3868
  124OSM   H14T13135   6.803   2.930   4.068  2.7117  0.8367  0.5350
  124OSM   C15S13136   6.832   2.790   4.216  0.5042  0.0839 -0.0805
  124OSM   H15S13137   6.912   2.850   4.263 -0.1307  0.6604  0.2934
  124OSM   H15T13138   6.865   2.684   4.225 -1.9827 -0.9237 -1.4765
  124OSM   C16S13139   6.703   2.811   4.295 -0.6720  0.6472  0.4172
  124OSM   H16S13140   6.628   2.734   4.266  0.9738 -1.5190  1.5101
  124OSM   H16T13141   6.665   2.914   4.285 -0.7075  0.4993 -1.3617
  124OSM   C17S13142   6.726   2.772   4.439 -0.0571  0.7663 -0.1196
  124OSM   H17S13143   6.640   2.819   4.492  0.1679  1.7994 -0.6459
  124OSM   H17T13144   6.819   2.819   4.476  0.3139 -0.9529  1.3209
  124OSM   C18S13145   6.727   2.619   4.473  0.1998 -0.2939  0.0719
  124OSM   H18S13146   6.806   2.558   4.425 -0.3017 -1.5021  0.7239
  124OSM   H18T13147   6.628   2.572   4.455  1.1016 -2.2316 -0.1123
  124OSM   H18U13148   6.750   2.607   4.582  2.0062 -1.4092 -0.3924
  124OSM    C1F13149   6.746   2.499   2.941  0.1490 -0.2961 -0.1714
  124OSM     OF13150   6.825   2.535   2.857 -0.7152  0.6290 -0.2228
  124OSM    C2F13151   6.748   2.370   3.004  0.0659 -0.1402  0.7059
  124OSM    H2F13152   6.703   2.292   2.940  1.3244 -1.2507  1.1436
  124OSM    H2G13153   6.691   2.365   3.099 -1.3994 -0.8848 -0.1763
  124OSM    C3F13154   6.895   2.325   3.036  0.6364 -0.8222  0.9112
  124OSM    H3F13155   6.948   2.408   3.088  1.3147  1.2194 -2.7612
  124OSM    H3G13156   6.950   2.300   2.943 -1.5796  0.7080 -0.9167
  124OSM    C4F13157   6.915   2.206   3.141 -0.0401  0.3716 -0.3648
  124OSM    H4F13158   7.024   2.184   3.147  0.1379  1.3575  0.1824
  124OSM    H4G13159   6.872   2.108   3.110  0.1920 -0.3187  1.3671
  124OSM    C5F13160   6.877   2.231   3.296  0.1072 -0.0253  0.5661
  124OSM    H5F13161   6.767   2.213   3.298  0.3737 -1.8450  0.7029
  124OSM    H5G13162   6.894   2.338   3.320 -1.3974  0.5606 -0.8012
  124OSM    C6F13163   6.948   2.139   3.394 -0.3951 -0.0578  0.9226
  124OSM    H6F13164   7.056   2.162   3.384 -0.5447  1.4157  2.2635
  124OSM    H6G13165   6.922   2.034   3.369  0.8424 -0.2206  0.2589
  124OSM    C7F13166   6.912   2.174   3.538  0.5668  0.0928  0.2885
  124OSM    H7F13167   6.802   2.171   3.551  0.4734 -0.6641 -0.5892
  124OSM    H7G13168   6.944   2.277   3.563  1.5637  0.1086 -0.9235
  124OSM    C8F13169   6.971   2.082   3.649  0.3064  0.2987 -1.2573
  124OSM    H8F13170   6.928   2.126   3.742  2.5343 -0.7312  0.3516
  124OSM    H8G13171   7.079   2.106   3.663 -0.0645  0.8820  1.1844
  124OSM    C9F13172   6.936   1.939   3.632 -0.5908  0.6630  0.5017
  124OSM    H9F13173   6.964   1.886   3.540 -2.1762  2.7007 -1.2498
  124OSM   C10F13174   6.873   1.858   3.723  0.0642  0.5350 -0.6600
  124OSM   H10F13175   6.865   1.750   3.701 -0.2208  0.5928 -0.8486
  124OSM   C11F13176   6.812   1.900   3.862  0.1477  0.9540  0.4100
  124OSM   H11F13177   6.713   1.852   3.875  0.6531 -0.1460  0.3003
  124OSM   H11G13178   6.783   2.007   3.870 -0.9468  0.8220 -1.4271
  124OSM   C12F13179   6.908   1.859   3.968  0.5972  0.8286  0.0870
  124OSM   H12F13180   6.961   1.765   3.943 -0.8254 -0.2279  0.8915
  124OSM   H12G13181   6.850   1.834   4.059  0.2587  0.8227 -0.1284
  124OSM   C13F13182   7.006   1.974   4.009 -0.3301  0.1958 -0.0384
  124OSM   H13F13183   6.945   2.066   4.017 -1.2954 -0.4236 -0.0626
  124OSM   H13G13184   7.079   1.980   3.926  0.4833  0.2657  0.6678
  124OSM   C14F13185   7.089   1.952   4.136  0.1175  0.1487 -0.1531
  124OSM   H14F13186   7.156   1.863   4.136  2.5151  1.8632 -0.2858
  124OSM   H14G13187   7.022   1.957   4.225  2.6774  2.1270  1.8181
  124OSM   C15F13188   7.190   2.070   4.168 -0.5287  0.2347 -0.1503
  124OSM   H15F13189   7.131   2.159   4.199  0.5332  1.4705 -1.5353
  124OSM   H15G13190   7.257   2.092   4.083 -0.2211  1.5336  0.3985
  124OSM   C16F13191   7.292   2.040   4.284  0.0711 -0.7245 -0.1573
  124OSM   H16F13192   7.355   2.131   4.292 -0.8198 -0.0771 -0.3494
  124OSM   H16G13193   7.353   1.948   4.271  1.4782  0.4508 -2.2285
  124OSM   C17F13194   7.215   2.020   4.415 -0.7875 -0.2780 -1.0849
  124OSM   H17F13195   7.169   1.921   4.434  0.9187 -0.9924 -0.4303
  124OSM   H17G13196   7.130   2.090   4.415 -0.6561 -0.1190 -1.3709
  124OSM   C18F13197   7.312   2.053   4.528 -0.1320  0.0232  0.0222
  124OSM   H18F13198   7.413   2.010   4.512 -0.4524 -0.4466 -0.8687
  124OSM   H18G13199   7.267   2.014   4.622 -0.1405  0.4118  0.1783
  124OSM   H18H13200   7.316   2.163   4.542 -1.3215 -0.2179  2.9796
  125OSM      N13201   1.602   0.661   2.383  0.4419  0.2496 -1.1218
  125OSM    C1513202   1.705   0.721   2.306  0.2032 -0.0688  0.1162
  125OSM   H15A13203   1.694   0.827   2.322  1.1515 -0.2924  2.7495
  125OSM   H15B13204   1.686   0.705   2.201 -0.8613 -0.1269  0.2970
  125OSM   H15C13205   1.804   0.696   2.340  0.1739 -1.2225 -0.5949
  125OSM    C1413206   1.552   0.766   2.478  0.6851 -0.2431  0.3103
  125OSM   H14A13207   1.640   0.800   2.531  1.0365 -1.9072  0.8461
  125OSM   H14B13208   1.481   0.725   2.548  0.9681 -1.6049 -0.1646
  125OSM   H14C13209   1.511   0.846   2.419 -0.1586 -0.7268  0.2225
  125OSM    C1313210   1.480   0.617   2.307  0.9056  0.4240  0.2086
  125OSM   H13A13211   1.503   0.550   2.225  0.1757 -0.0050  0.3485
  125OSM   H13B13212   1.428   0.704   2.268  1.1598  0.0419 -1.0238
  125OSM   H13C13213   1.409   0.564   2.369  0.0304  0.2296 -0.9215
  125OSM    C1213214   1.657   0.540   2.459  0.3719  0.3032  0.0091
  125OSM   H12A13215   1.678   0.463   2.387 -0.6091  1.9076 -2.1146
  125OSM   H12B13216   1.577   0.497   2.518 -0.9544  0.3793 -1.6539
  125OSM    C1113217   1.778   0.551   2.556  0.9230  0.2646  0.3688
  125OSM   H11A13218   1.779   0.457   2.616  1.7719  0.2553  0.3563
  125OSM   H11B13219   1.754   0.627   2.632 -2.9560 -0.8147  0.4236
  125OSM      P13220   1.995   0.471   2.434  0.1150 -0.1769  0.1153
  125OSM    O1313221   1.909   0.377   2.357 -0.3917 -0.7683 -0.0826
  125OSM    O1413222   2.102   0.546   2.356  0.3909  0.2429 -0.6995
  125OSM    O1113223   2.050   0.398   2.560 -0.0540 -0.2504  0.0719
  125OSM    O1213224   1.899   0.580   2.495  0.5139  0.0748 -0.2911
  125OSM    C1S13225   2.178   0.339   2.568  0.6903 -0.1306 -0.0508
  125OSM    H1S13226   2.252   0.414   2.534  0.0059  1.0282  0.9601
  125OSM    H1T13227   2.182   0.247   2.505 -1.4348  0.6506 -1.4165
  125OSM     NF13228   2.346   0.227   2.693 -0.6490  0.2441 -0.1154
  125OSM    HNF13229   2.345   0.129   2.712 -0.9311  0.1021 -0.8195
  125OSM    C2S13230   2.218   0.302   2.711 -0.1503 -0.1826 -0.2622
  125OSM    H2S13231   2.237   0.391   2.774  1.2441 -1.4147  1.1308
  125OSM    C3S13232   2.105   0.217   2.782  0.7369  0.0494 -0.5899
  125OSM    H3S13233   2.084   0.132   2.713  0.2918 -0.1214 -0.2519
  125OSM     O313234   1.983   0.289   2.799  0.4054 -0.9458  0.0205
  125OSM    HO313235   1.996   0.351   2.727  0.8830 -0.5695  0.4297
  125OSM    C4S13236   2.136   0.172   2.918  0.4276 -0.1449  0.4300
  125OSM    H4S13237   2.112   0.238   3.003  4.9255  1.3765  0.7985
  125OSM    C5S13238   2.172   0.045   2.949  0.8159 -0.7969 -0.6063
  125OSM    H5S13239   2.190  -0.020   2.863  1.4209  0.5679 -1.5479
  125OSM    C6S13240   2.204  -0.011   3.090  0.0573  0.3374 -0.1242
  125OSM    H6S13241   2.310  -0.040   3.105  0.4328  1.9425  0.5484
  125OSM    H6T13242   2.147  -0.104   3.111 -0.6295  0.9334  0.7606
  125OSM    C7S13243   2.159   0.097   3.197 -1.0073 -0.1145 -0.0750
  125OSM    H7S13244   2.049   0.118   3.192 -0.7479  1.2472 -0.5696
  125OSM    H7T13245   2.215   0.193   3.189  0.0079 -0.8121 -1.7341
  125OSM    C8S13246   2.205   0.049   3.337  0.3714 -0.3123  0.9233
  125OSM    H8S13247   2.215  -0.060   3.320 -0.0914 -0.1773 -0.3560
  125OSM    H8T13248   2.130   0.078   3.414  1.1216 -0.9070  1.8948
  125OSM    C9S13249   2.350   0.072   3.383  1.0025  0.4062  0.4643
  125OSM    H9S13250   2.351   0.177   3.419  0.2911  1.0507 -1.2820
  125OSM    H9T13251   2.419   0.081   3.296  2.0288  1.4677  1.3401
  125OSM   C10S13252   2.400  -0.023   3.497  0.5656 -0.0892  0.8273
  125OSM   H10S13253   2.508  -0.009   3.519  0.6713 -1.2461  1.1279
  125OSM   H10T13254   2.403  -0.127   3.457 -1.9115  0.2305 -0.3458
  125OSM   C11S13255   2.320  -0.008   3.629  0.5846 -0.1453  0.7971
  125OSM   H11S13256   2.217  -0.048   3.616 -0.0667  1.7541 -0.2753
  125OSM   H11T13257   2.315   0.100   3.653 -0.2403 -0.2705  1.2292
  125OSM   C12S13258   2.388  -0.079   3.747  0.3716  1.0767  0.8332
  125OSM   H12S13259   2.498  -0.085   3.735  0.5435  3.9864  0.3788
  125OSM   H12T13260   2.358  -0.186   3.748  2.3406  0.4509 -0.7636
  125OSM   C13S13261   2.351  -0.023   3.887  0.0792  0.2011  0.1965
  125OSM   H13S13262   2.240  -0.018   3.889  0.0390 -0.3580 -0.2383
  125OSM   H13T13263   2.393   0.078   3.907  0.6133  0.4305 -1.8854
  125OSM   C14S13264   2.391  -0.123   3.996  0.2284  0.2962 -1.0273
  125OSM   H14S13265   2.502  -0.133   3.986  0.1439 -0.4547 -1.2443
  125OSM   H14T13266   2.346  -0.224   3.984 -0.2384  0.6833 -2.9592
  125OSM   C15S13267   2.349  -0.076   4.141  0.1065 -0.3373  0.0131
  125OSM   H15S13268   2.249  -0.032   4.121  1.0377  1.5017 -0.9463
  125OSM   H15T13269   2.415   0.006   4.178  1.2678  0.0167 -2.6541
  125OSM   C16S13270   2.351  -0.189   4.248  0.4997  0.6978 -0.0138
  125OSM   H16S13271   2.457  -0.218   4.263  0.0022 -0.9963  0.5163
  125OSM   H16T13272   2.290  -0.268   4.198  1.1985  0.2855 -0.2310
  125OSM   C17S13273   2.281  -0.124   4.371  0.4027  0.4239  0.0716
  125OSM   H17S13274   2.179  -0.086   4.348 -0.1621 -0.4788  1.0181
  125OSM   H17T13275   2.349  -0.043   4.405  0.5354  0.1901  0.3557
  125OSM   C18S13276   2.274  -0.227   4.492  0.1025 -0.1695 -0.5373
  125OSM   H18S13277   2.369  -0.269   4.532  0.7123  1.2920 -0.3503
  125OSM   H18T13278   2.216  -0.320   4.477  1.2744 -1.3021  1.4991
  125OSM   H18U13279   2.215  -0.190   4.578 -0.9619 -1.2628 -0.7758
  125OSM    C1F13280   2.464   0.280   2.664 -0.4715 -0.2414 -0.3922
  125OSM     OF13281   2.476   0.404   2.658  0.4065 -0.8142 -0.6963
  125OSM    C2F13282   2.583   0.192   2.657  0.6528  0.5720 -0.1423
  125OSM    H2F13283   2.632   0.189   2.558 -1.6914 -1.6960 -1.3653
  125OSM    H2G13284   2.564   0.087   2.689  0.5458  0.5451 -0.2921
  125OSM    C3F13285   2.689   0.240   2.761  0.4661 -0.4090  0.3328
  125OSM    H3F13286   2.723   0.343   2.738  0.3503 -0.2082  1.0489
  125OSM    H3G13287   2.776   0.174   2.741  0.9537  0.3167  0.0402
  125OSM    C4F13288   2.634   0.218   2.902 -0.3546 -0.9289 -0.1990
  125OSM    H4F13289   2.619   0.111   2.930  2.4706 -1.3636 -0.0314
  125OSM    H4G13290   2.530   0.250   2.928 -0.2376 -1.5500  1.1708
  125OSM    C5F13291   2.730   0.268   3.014 -0.4180  0.0481  0.5192
  125OSM    H5F13292   2.755   0.373   2.989 -0.4932  0.6080  2.6228
  125OSM    H5G13293   2.823   0.208   3.004 -0.4884  0.2128 -1.6817
  125OSM    C6F13294   2.669   0.260   3.147  0.5033  0.4432 -0.2326
  125OSM    H6F13295   2.645   0.153   3.167 -0.7531  0.3887 -1.8210
  125OSM    H6G13296   2.570   0.309   3.136  1.0658  2.3269  2.2145
  125OSM    C7F13297   2.746   0.334   3.255  0.0431  0.2173 -0.2794
  125OSM    H7F13298   2.683   0.341   3.346  1.6527 -0.9964  0.9935
  125OSM    H7G13299   2.766   0.437   3.219 -0.8944 -0.3508 -2.6239
  125OSM    C8F13300   2.885   0.263   3.266 -0.3258 -0.0879 -0.8589
  125OSM    H8F13301   2.942   0.295   3.175  0.1881 -0.2366 -0.5936
  125OSM    H8G13302   2.886   0.152   3.261 -0.2781 -0.0458 -2.4116
  125OSM    C9F13303   2.954   0.303   3.392 -0.3807 -0.5583  0.2392
  125OSM    H9F13304   3.021   0.389   3.382 -1.2167  0.2655  1.3661
  125OSM   C10F13305   2.913   0.274   3.519  0.3991 -0.0121  0.9060
  125OSM   H10F13306   2.961   0.332   3.599  0.0716  0.6831  0.5963
  125OSM   C11F13307   2.797   0.182   3.551 -0.1001 -0.0505 -0.2284
  125OSM   H11F13308   2.837   0.097   3.611 -1.5312  0.5088  1.6088
  125OSM   H11G13309   2.749   0.133   3.464 -2.4951 -0.3188  1.1368
  125OSM   C12F13310   2.695   0.248   3.639  0.1133 -0.3408  0.1072
  125OSM   H12F13311   2.597   0.197   3.634 -0.7453  1.3046 -0.7673
  125OSM   H12G13312   2.658   0.348   3.605 -1.4564 -1.4048 -1.5044
  125OSM   C13F13313   2.733   0.255   3.790 -0.9013  0.9641 -0.2656
  125OSM   H13F13314   2.823   0.318   3.803 -1.4097  1.7956 -0.6618
  125OSM   H13G13315   2.755   0.149   3.814  2.6676  1.7020  0.2811
  125OSM   C14F13316   2.618   0.304   3.870  0.9835  1.1000  0.5466
  125OSM   H14F13317   2.523   0.261   3.831  1.6549  0.5868 -0.5830
  125OSM   H14G13318   2.605   0.410   3.841  0.5044  0.1371 -3.3961
  125OSM   C15F13319   2.634   0.292   4.018 -0.1362 -0.3005  0.5678
  125OSM   H15F13320   2.723   0.345   4.059  0.6738 -1.3230  0.1904
  125OSM   H15G13321   2.640   0.191   4.064  1.4329 -1.3316 -1.7251
  125OSM   C16F13322   2.513   0.367   4.077 -0.1213  0.4612 -0.1142
  125OSM   H16F13323   2.423   0.311   4.044 -0.8394  1.0287  0.7897
  125OSM   H16G13324   2.500   0.470   4.038  0.4035  0.8997  0.8234
  125OSM   C17F13325   2.515   0.355   4.230 -0.0963 -0.6756 -0.4246
  125OSM   H17F13326   2.575   0.433   4.282  2.0740 -2.4182 -0.1338
  125OSM   H17G13327   2.562   0.259   4.260 -0.7354 -0.4687  1.3755
  125OSM   C18F13328   2.364   0.340   4.282 -0.2263 -0.0121 -0.3517
  125OSM   H18F13329   2.326   0.442   4.303 -1.5216 -0.1233 -1.9454
  125OSM   H18G13330   2.360   0.275   4.372 -1.2879 -0.8963 -1.0105
  125OSM   H18H13331   2.297   0.288   4.209 -0.0487  0.5993 -0.9641
  126OSM      N13332   6.365   6.743   2.239 -0.5709  0.5134 -0.0392
  126OSM    C1513333   6.320   6.833   2.127 -0.4251 -0.7627  0.5683
  126OSM   H15A13334   6.228   6.806   2.076 -0.5364  0.3401  0.1539
  126OSM   H15B13335   6.403   6.850   2.061 -1.7901  1.5312 -0.7018
  126OSM   H15C13336   6.301   6.929   2.172 -0.9779 -0.4978 -0.1960
  126OSM    C1413337   6.247   6.704   2.316  0.0762 -0.2801  0.4639
  126OSM   H14A13338   6.191   6.791   2.344 -1.4347  0.3390 -3.7818
  126OSM   H14B13339   6.273   6.644   2.402 -0.3854 -0.5466  0.4208
  126OSM   H14C13340   6.175   6.645   2.262 -0.6562  0.4923  0.5808
  126OSM    C1313341   6.419   6.617   2.173 -0.2545  0.2248  0.0719
  126OSM   H13A13342   6.415   6.535   2.243 -0.0013 -0.2079 -0.4201
  126OSM   H13B13343   6.521   6.620   2.139  0.2867 -1.0998  1.4779
  126OSM   H13C13344   6.359   6.590   2.087  0.9316  0.0859 -0.7372
  126OSM    C1213345   6.461   6.807   2.339 -0.7451  0.2238  0.0892
  126OSM   H12A13346   6.522   6.869   2.276 -1.2732  0.5614 -0.0939
  126OSM   H12B13347   6.527   6.732   2.382 -0.0275  0.3511 -0.7762
  126OSM    C1113348   6.403   6.892   2.458 -0.1953 -0.1227  0.9851
  126OSM   H11A13349   6.478   6.948   2.518 -1.2850  2.4019  0.1300
  126OSM   H11B13350   6.341   6.834   2.530 -0.5683  1.4120  1.9676
  126OSM      P13351   6.349   7.144   2.381 -0.0055  0.0019  0.2625
  126OSM    O1313352   6.474   7.142   2.297 -0.0668 -0.2389  0.0084
  126OSM    O1413353   6.226   7.213   2.324 -0.1457 -0.1750  0.2264
  126OSM    O1113354   6.380   7.196   2.525 -0.9398  0.0088  0.1552
  126OSM    O1213355   6.313   6.994   2.412  0.3220 -0.5623  0.0703
  126OSM    C1S13356   6.328   7.148   2.649 -0.0580 -0.0864 -0.2570
  126OSM    H1S13357   6.383   7.056   2.681 -2.5543 -0.7773  2.5012
  126OSM    H1T13358   6.222   7.120   2.633 -0.1706  0.9560 -1.5471
  126OSM     NF13359   6.310   7.184   2.897  0.3044 -0.0498  0.4766
  126OSM    HNF13360   6.227   7.204   2.949  0.2268  0.6113  0.1094
  126OSM    C2S13361   6.335   7.251   2.762  0.0390 -0.0612 -0.2684
  126OSM    H2S13362   6.440   7.286   2.770  0.0059 -0.2959  1.7491
  126OSM    C3S13363   6.235   7.372   2.738  0.1995 -0.1099 -0.4339
  126OSM    H3S13364   6.139   7.326   2.708  0.5316 -1.5317  0.5629
  126OSM     O313365   6.259   7.451   2.622  0.2338 -0.2918  0.0672
  126OSM    HO313366   6.318   7.399   2.567 -0.3419 -0.0349 -0.8046
  126OSM    C4S13367   6.209   7.470   2.850  0.2119 -0.3912  0.3887
  126OSM    H4S13368   6.304   7.509   2.889  0.0593 -1.3109  1.7740
  126OSM    C5S13369   6.089   7.514   2.904 -0.7760  0.0908 -0.2319
  126OSM    H5S13370   5.998   7.467   2.863 -0.1106 -3.0757  1.6264
  126OSM    C6S13371   6.077   7.604   3.022  0.6537 -0.0496 -0.2629
  126OSM    H6S13372   5.979   7.657   3.022  0.2067 -0.8422 -0.0515
  126OSM    H6T13373   6.159   7.678   3.025 -0.5686  1.4208 -1.6274
  126OSM    C7S13374   6.071   7.498   3.139  0.6991  0.3339  0.3697
  126OSM    H7S13375   6.155   7.425   3.135  0.1734 -0.2397 -1.5949
  126OSM    H7T13376   5.972   7.450   3.122  1.3049 -1.0197  0.5814
  126OSM    C8S13377   6.083   7.573   3.263 -0.1523  0.0354 -0.3943
  126OSM    H8S13378   6.021   7.664   3.272 -1.3508 -0.7987  0.1263
  126OSM    H8T13379   6.182   7.614   3.293  0.1402  0.2903 -1.6660
  126OSM    C9S13380   6.032   7.501   3.396 -0.2099  0.0267 -0.0106
  126OSM    H9S13381   5.946   7.434   3.373  1.1300 -1.9822  0.5719
  126OSM    H9T13382   5.997   7.579   3.468 -2.4400 -0.2674 -0.6874
  126OSM   C10S13383   6.145   7.427   3.472 -0.0104 -0.6312 -0.4813
  126OSM   H10S13384   6.235   7.488   3.495  0.5604 -0.9105 -1.8783
  126OSM   H10T13385   6.188   7.356   3.399  1.4115  0.6866 -0.9716
  126OSM   C11S13386   6.083   7.348   3.584  0.0756 -0.1543 -0.3178
  126OSM   H11S13387   6.163   7.273   3.600  0.6394  0.2668 -1.0903
  126OSM   H11T13388   5.988   7.301   3.551 -0.7796  3.0968 -3.1277
  126OSM   C12S13389   6.061   7.432   3.710 -0.4286 -0.4388  0.0332
  126OSM   H12S13390   5.980   7.506   3.692  0.3143  0.9111  1.8973
  126OSM   H12T13391   6.155   7.488   3.730 -0.0507 -0.1932 -2.1862
  126OSM   C13S13392   6.016   7.353   3.822  0.3902  0.2495 -0.5065
  126OSM   H13S13393   6.064   7.256   3.845 -1.0264  0.1461  2.6407
  126OSM   H13T13394   5.910   7.326   3.803  0.2477 -0.2998  0.9494
  126OSM   C14S13395   6.036   7.445   3.949  0.1354  1.4857  0.0022
  126OSM   H14S13396   5.970   7.532   3.927 -2.6877 -0.7261 -0.9404
  126OSM   H14T13397   6.141   7.476   3.962  0.1305  1.7762 -0.6358
  126OSM   C15S13398   5.961   7.378   4.063 -0.8881  0.0473 -0.2657
  126OSM   H15S13399   6.000   7.275   4.078 -0.3788  0.2397 -0.2530
  126OSM   H15T13400   5.853   7.367   4.038 -1.3215  2.4314  0.2777
  126OSM   C16S13401   5.971   7.454   4.197 -0.2832 -0.4927  0.5129
  126OSM   H16S13402   5.914   7.549   4.190 -0.4248 -0.5680  0.6478
  126OSM   H16T13403   6.080   7.471   4.212 -0.3629  0.9776 -0.3759
  126OSM   C17S13404   5.917   7.385   4.328  0.2556 -0.0419 -0.1631
  126OSM   H17S13405   5.926   7.462   4.408  1.3110  0.2413 -0.5323
  126OSM   H17T13406   5.987   7.305   4.358  2.3673  1.8410  0.1900
  126OSM   C18S13407   5.774   7.332   4.322  0.2503  0.6179 -0.3389
  126OSM   H18S13408   5.764   7.261   4.238 -0.2819 -0.5975  0.7177
  126OSM   H18T13409   5.697   7.413   4.318 -1.6271 -0.9947  1.1502
  126OSM   H18U13410   5.738   7.285   4.416 -2.2228 -0.5814 -1.7868
  126OSM    C1F13411   6.381   7.093   2.955 -0.3924 -0.9699 -0.0235
  126OSM     OF13412   6.487   7.049   2.908  0.6564 -0.4367 -0.0634
  126OSM    C2F13413   6.316   7.039   3.076 -0.4308 -0.0496  0.0716
  126OSM    H2F13414   6.298   6.932   3.050 -0.3759  0.8151 -4.2162
  126OSM    H2G13415   6.225   7.098   3.101 -0.0529  0.8576 -0.6790
  126OSM    C3F13416   6.409   7.077   3.196  0.9234 -0.6063 -0.5254
  126OSM    H3F13417   6.444   7.183   3.193 -0.7495  0.0424  1.1032
  126OSM    H3G13418   6.505   7.022   3.187  2.1610  1.3817 -0.2010
  126OSM    C4F13419   6.339   7.071   3.336  0.2156 -0.0787 -0.5304
  126OSM    H4F13420   6.241   7.123   3.338 -0.7379 -1.8282 -0.4276
  126OSM    H4G13421   6.407   7.130   3.402 -0.8139 -0.5855  1.0408
  126OSM    C5F13422   6.330   6.924   3.390  0.4281  0.0792 -0.3695
  126OSM    H5F13423   6.423   6.870   3.364  0.5750  0.1533 -0.0143
  126OSM    H5G13424   6.239   6.880   3.346 -0.3211  1.5920 -0.3939
  126OSM    C6F13425   6.314   6.924   3.550  0.4594  0.1460  0.4008
  126OSM    H6F13426   6.211   6.963   3.561  0.4945  0.4598 -0.2931
  126OSM    H6G13427   6.378   7.008   3.583  0.5733  0.8781 -1.5603
  126OSM    C7F13428   6.345   6.794   3.616 -0.0652 -0.1791 -0.8709
  126OSM    H7F13429   6.449   6.762   3.598 -0.2790 -3.3801  2.3734
  126OSM    H7G13430   6.281   6.712   3.577 -0.3870  0.1888 -1.1224
  126OSM    C8F13431   6.309   6.811   3.765  0.3188  0.2900 -0.0571
  126OSM    H8F13432   6.216   6.873   3.771  0.8778  1.3584 -1.6846
  126OSM    H8G13433   6.395   6.862   3.814 -1.0489  1.1753  1.5365
  126OSM    C9F13434   6.267   6.674   3.822  0.7808 -0.2083 -0.0334
  126OSM    H9F13435   6.188   6.623   3.765  1.4604  0.5069 -1.7179
  126OSM   C10F13436   6.328   6.612   3.920  0.5672 -0.5837 -0.0981
  126OSM   H10F13437   6.283   6.521   3.963 -2.6018  1.2141  0.7031
  126OSM   C11F13438   6.452   6.653   3.986 -0.9131 -0.2869 -0.3477
  126OSM   H11F13439   6.521   6.712   3.922 -0.2948  1.4788  1.8364
  126OSM   H11G13440   6.496   6.554   4.010  0.6506  0.2380 -0.9514
  126OSM   C12F13441   6.446   6.728   4.121 -0.3467  0.7619 -0.2277
  126OSM   H12F13442   6.346   6.719   4.168 -0.6702  2.7725 -0.4615
  126OSM   H12G13443   6.464   6.837   4.111 -0.9360  0.8598 -0.2867
  126OSM   C13F13444   6.550   6.680   4.217 -1.1944  0.4496 -0.3345
  126OSM   H13F13445   6.541   6.570   4.228  1.6506  0.2155  0.4270
  126OSM   H13G13446   6.539   6.720   4.320 -0.8083 -0.8339  0.2183
  126OSM   C14F13447   6.697   6.712   4.165  0.2300 -0.0213 -0.3279
  126OSM   H14F13448   6.680   6.796   4.095  0.5621  0.1937 -0.1506
  126OSM   H14G13449   6.741   6.629   4.106  0.1713 -0.6687  0.5168
  126OSM   C15F13450   6.796   6.736   4.277  0.0435 -0.0344 -0.0804
  126OSM   H15F13451   6.750   6.801   4.355 -1.6855 -0.1121 -0.9717
  126OSM   H15G13452   6.882   6.790   4.233  1.5125 -1.1763  1.2866
  126OSM   C16F13453   6.850   6.617   4.356 -0.4743 -1.1409  0.2218
  126OSM   H16F13454   6.906   6.554   4.283 -2.4363 -1.7796 -0.8100
  126OSM   H16G13455   6.766   6.555   4.394 -1.7299 -1.2727 -2.4799
  126OSM   C17F13456   6.950   6.681   4.455  0.0626  0.3206 -0.7246
  126OSM   H17F13457   7.022   6.745   4.401  2.1785 -1.8329 -0.6355
  126OSM   H17G13458   7.012   6.600   4.499 -0.6873 -0.3691 -0.8904
  126OSM   C18F13459   6.884   6.749   4.575  0.1145  0.0761  0.0654
  126OSM   H18F13460   6.794   6.691   4.607 -0.1451 -0.2723 -1.2545
  126OSM   H18G13461   6.849   6.852   4.554 -0.5476 -0.0710  0.4008
  126OSM   H18H13462   6.962   6.766   4.652  1.5691 -1.0687 -1.0923
  127OSM      N13463   0.142   2.422   2.492  0.7924  0.1468 -0.0479
  127OSM    C1513464   0.125   2.564   2.433  0.2675 -0.1716 -0.2392
  127OSM   H15A13465   0.028   2.588   2.394 -0.1367 -0.1040  0.7961
  127OSM   H15B13466   0.197   2.588   2.355  1.1127  0.1887  0.6319
  127OSM   H15C13467   0.132   2.640   2.509 -0.6217  2.5753 -2.7208
  127OSM    C1413468   0.139   2.317   2.387  0.5570  0.9267  0.5962
  127OSM   H14A13469   0.039   2.303   2.348  0.3506  1.1253  1.0498
  127OSM   H14B13470   0.168   2.220   2.424  3.6388  1.0403 -1.2006
  127OSM   H14C13471   0.199   2.320   2.297 -0.9781 -2.2398 -0.7084
  127OSM    C1313472   0.278   2.422   2.543  0.0481  0.2402 -0.1193
  127OSM   H13A13473   0.296   2.333   2.602 -0.8274  0.9035  1.1955
  127OSM   H13B13474   0.288   2.505   2.611 -0.6622  1.0791 -1.0151
  127OSM   H13C13475   0.337   2.437   2.454 -2.6630 -1.0795 -2.3077
  127OSM    C1213476   0.037   2.399   2.601  0.5205 -0.7806  0.8582
  127OSM   H12A13477  -0.062   2.409   2.559  0.6379  2.1573  1.0205
  127OSM   H12B13478   0.051   2.479   2.672  0.7861  0.3219 -0.3856
  127OSM    C1113479   0.046   2.268   2.675 -0.0839 -0.0891 -0.4708
  127OSM   H11A13480  -0.026   2.269   2.759 -0.0203 -1.3430 -0.3823
  127OSM   H11B13481   0.148   2.268   2.719 -0.3057  0.7882  0.0503
  127OSM      P13482  -0.118   2.109   2.558 -0.1113 -0.0134  0.7397
  127OSM    O1313483  -0.191   2.216   2.489  0.2429  0.2609  0.1282
  127OSM    O1413484  -0.116   1.978   2.496 -0.0540  0.1435  0.0306
  127OSM    O1113485  -0.185   2.090   2.696 -0.1822 -0.4006 -0.0097
  127OSM    O1213486   0.025   2.150   2.596 -0.4643 -0.0746 -0.0041
  127OSM    C1S13487  -0.172   1.974   2.771 -0.1943  0.7126  1.0172
  127OSM    H1S13488  -0.071   1.930   2.767 -0.8654 -0.8456  0.3315
  127OSM    H1T13489  -0.246   1.898   2.737 -1.7435  1.1226  3.2564
  127OSM     NF13490  -0.170   1.863   2.997 -0.1549 -0.5626  0.3895
  127OSM    HNF13491  -0.248   1.810   3.031 -0.1300  0.3071  1.8939
  127OSM    C2S13492  -0.209   1.984   2.922 -0.1554  0.2644 -1.0947
  127OSM    H2S13493  -0.160   2.073   2.965 -2.8749  1.3914 -0.0580
  127OSM    C3S13494  -0.364   2.016   2.939 -0.5606 -0.2296 -0.2998
  127OSM    H3S13495  -0.412   1.942   2.871  1.5708 -0.1351 -2.0204
  127OSM     O313496  -0.386   2.144   2.890 -0.2610  0.2576  0.1127
  127OSM    HO313497  -0.310   2.170   2.838  0.0652 -0.0185  0.4490
  127OSM    C4S13498  -0.412   1.995   3.084 -0.7540 -0.5574 -0.7078
  127OSM    H4S13499  -0.446   1.893   3.107  2.8820 -1.5390  0.8955
  127OSM    C5S13500  -0.398   2.089   3.180  0.4710  0.5890  0.1102
  127OSM    H5S13501  -0.359   2.189   3.155  1.2366 -0.1075 -1.6821
  127OSM    C6S13502  -0.432   2.071   3.326  0.8049 -0.8832 -0.7755
  127OSM    H6S13503  -0.539   2.098   3.339  2.1404  4.5201  1.9224
  127OSM    H6T13504  -0.375   2.143   3.389 -1.8026 -0.8160  1.6992
  127OSM    C7S13505  -0.401   1.930   3.390  0.0219 -0.7845 -0.7716
  127OSM    H7S13506  -0.293   1.905   3.389 -0.1696 -1.6781 -0.3379
  127OSM    H7T13507  -0.441   1.845   3.331  0.6529  0.5412 -3.2406
  127OSM    C8S13508  -0.437   1.929   3.540 -0.6119  0.1252 -0.1670
  127OSM    H8S13509  -0.543   1.960   3.545 -0.4070  0.6430  1.1356
  127OSM    H8T13510  -0.376   1.996   3.604  0.6409 -2.3316  1.3854
  127OSM    C9S13511  -0.436   1.797   3.622 -0.1651 -0.2266  0.6808
  127OSM    H9S13512  -0.337   1.746   3.629 -1.1680 -2.3310  0.3472
  127OSM    H9T13513  -0.504   1.723   3.576  0.1117 -0.1318  0.1008
  127OSM   C10S13514  -0.481   1.828   3.765  0.2428 -0.0439 -0.2340
  127OSM   H10S13515  -0.583   1.873   3.773  0.8918  1.3652  0.6264
  127OSM   H10T13516  -0.413   1.895   3.821  0.8895 -0.9053  0.0249
  127OSM   C11S13517  -0.475   1.709   3.855 -0.5234  0.2924  0.4931
  127OSM   H11S13518  -0.371   1.671   3.870 -1.2163 -0.8014  2.9935
  127OSM   H11T13519  -0.536   1.635   3.799  0.2076  0.6873 -0.8967
  127OSM   C12S13520  -0.543   1.719   3.992 -0.2019 -0.5156  0.7865
  127OSM   H12S13521  -0.543   1.619   4.038 -1.4774 -0.9414 -0.0811
  127OSM   H12T13522  -0.646   1.763   3.994  0.9120  2.8509 -2.6261
  127OSM   C13S13523  -0.457   1.810   4.088  0.1029  0.4637  0.4675
  127OSM   H13S13524  -0.461   1.913   4.045  1.1140  0.8314  1.2071
  127OSM   H13T13525  -0.347   1.793   4.078 -0.1844 -0.6859 -1.1897
  127OSM   C14S13526  -0.501   1.810   4.235  0.1746 -0.7769  0.3767
  127OSM   H14S13527  -0.440   1.887   4.287 -1.1860 -0.3462  1.3957
  127OSM   H14T13528  -0.474   1.709   4.272  2.6090  0.0027  0.9031
  127OSM   C15S13529  -0.646   1.850   4.272  0.4961  0.1068  0.2876
  127OSM   H15S13530  -0.683   1.926   4.199  1.3273  0.3866  0.1450
  127OSM   H15T13531  -0.656   1.904   4.368 -2.1584  0.8318 -0.3174
  127OSM   C16S13532  -0.738   1.727   4.277  0.4998  0.9162  0.7154
  127OSM   H16S13533  -0.704   1.654   4.354  1.6309  0.3187 -0.3072
  127OSM   H16T13534  -0.733   1.669   4.182 -1.4466 -0.8310  1.6051
  127OSM   C17S13535  -0.885   1.764   4.300 -0.2894  0.9481  0.0014
  127OSM   H17S13536  -0.914   1.846   4.231  0.6899  1.5792  0.3320
  127OSM   H17T13537  -0.884   1.803   4.404  0.3450 -0.9656  0.7552
  127OSM   C18S13538  -0.987   1.645   4.301 -0.6440  0.7286  0.0867
  127OSM   H18S13539  -1.020   1.609   4.201 -0.3690  0.0688  0.2287
  127OSM   H18T13540  -1.075   1.678   4.360 -0.7097  1.0271 -0.1752
  127OSM   H18U13541  -0.955   1.553   4.355  1.8493  0.0558 -2.3205
  127OSM    C1F13542  -0.045   1.830   3.026 -0.5921  0.0541 -0.6747
  127OSM     OF13543   0.049   1.877   2.972 -0.4746  0.0449 -0.1800
  127OSM    C2F13544  -0.034   1.730   3.136 -1.0186  0.4854  0.1685
  127OSM    H2F13545  -0.099   1.640   3.124 -0.0968 -0.1395 -0.2285
  127OSM    H2G13546  -0.070   1.782   3.227 -1.3726  0.8031 -0.1445
  127OSM    C3F13547   0.105   1.664   3.140 -0.0546  0.5007 -0.2469
  127OSM    H3F13548   0.188   1.734   3.117 -0.9713  1.8610  0.4894
  127OSM    H3G13549   0.114   1.586   3.062 -0.2132 -1.0011  1.1664
  127OSM    C4F13550   0.146   1.585   3.264  0.2713  0.4800  0.3617
  127OSM    H4F13551   0.250   1.546   3.261 -0.2474 -1.3285  2.7075
  127OSM    H4G13552   0.081   1.496   3.281 -1.3846  1.3782 -0.9730
  127OSM    C5F13553   0.137   1.670   3.392  1.0227 -0.0354  0.1537
  127OSM    H5F13554   0.030   1.697   3.408  0.6911  0.7486 -2.8282
  127OSM    H5G13555   0.194   1.765   3.381 -0.1176  0.5716 -0.7394
  127OSM    C6F13556   0.189   1.594   3.524  0.1065 -0.5539 -0.0409
  127OSM    H6F13557   0.165   1.652   3.616 -0.0959  0.2972 -0.6147
  127OSM    H6G13558   0.300   1.585   3.523  0.1343 -0.8282  1.9839
  127OSM    C7F13559   0.148   1.450   3.543  0.1749 -0.9068 -0.3908
  127OSM    H7F13560   0.171   1.390   3.453 -1.5396 -1.3071 -0.5861
  127OSM    H7G13561   0.042   1.424   3.565  1.1831 -2.9810  2.7263
  127OSM    C8F13562   0.226   1.389   3.659  0.5668  0.1826 -0.8906
  127OSM    H8F13563   0.334   1.401   3.638  0.6222 -2.0267 -2.2309
  127OSM    H8G13564   0.204   1.280   3.661  0.6976  0.1440 -1.4628
  127OSM    C9F13565   0.190   1.457   3.786  0.3182 -0.1556 -0.0985
  127OSM    H9F13566   0.085   1.490   3.787  0.4560  0.3485  1.8409
  127OSM   C10F13567   0.274   1.493   3.886 -0.7708  0.2383 -0.4432
  127OSM   H10F13568   0.229   1.534   3.977 -0.8132  2.2649 -1.3223
  127OSM   C11F13569   0.420   1.459   3.907 -0.4519  0.5892 -0.0721
  127OSM   H11F13570   0.479   1.545   3.870  1.3242  0.4226  2.1061
  127OSM   H11G13571   0.443   1.364   3.854 -1.4895 -0.2068  0.8446
  127OSM   C12F13572   0.460   1.434   4.054 -0.5363 -0.4583  0.5947
  127OSM   H12F13573   0.571   1.427   4.062 -0.6562 -1.6261  1.4062
  127OSM   H12G13574   0.434   1.331   4.086  0.7339 -0.6077  1.2235
  127OSM   C13F13575   0.414   1.548   4.152 -0.1839 -0.3983 -0.3866
  127OSM   H13F13576   0.309   1.538   4.185 -0.5134  3.3165  0.1426
  127OSM   H13G13577   0.428   1.646   4.100  0.1255  1.7769  3.4173
  127OSM   C14F13578   0.505   1.542   4.275 -0.1694 -1.1101 -0.1380
  127OSM   H14F13579   0.608   1.513   4.244 -1.0863 -3.1625 -1.5162
  127OSM   H14G13580   0.461   1.453   4.325 -2.5256 -0.4619 -0.9364
  127OSM   C15F13581   0.495   1.670   4.361  0.0159  0.3351 -0.6137
  127OSM   H15F13582   0.392   1.713   4.363  1.4925  4.3867 -1.7751
  127OSM   H15G13583   0.571   1.741   4.323 -0.6360  0.2273 -2.1807
  127OSM   C16F13584   0.533   1.648   4.510  0.3389 -0.0425 -0.5681
  127OSM   H16F13585   0.457   1.579   4.552  3.1039 -1.2953  2.8356
  127OSM   H16G13586   0.513   1.739   4.569 -0.5246 -1.1909  0.9918
  127OSM   C17F13587   0.667   1.587   4.530  0.0474  0.8280  1.2460
  127OSM   H17F13588   0.721   1.585   4.433  0.0219  1.0199  1.2277
  127OSM   H17G13589   0.653   1.478   4.545  1.0978  0.4418 -0.3215
  127OSM   C18F13590   0.755   1.636   4.643 -0.2844 -0.1642  0.0685
  127OSM   H18F13591   0.844   1.569   4.643  0.9605  1.3499 -2.3198
  127OSM   H18G13592   0.699   1.630   4.739  0.8053  0.2593  0.7478
  127OSM   H18H13593   0.782   1.743   4.635 -1.8901  0.3449  1.0354
  128OSM      N13594   0.889   0.452   2.427  0.0679 -0.1726  0.5034
  128OSM    C1513595   0.920   0.598   2.442 -0.7146 -1.1490 -0.1292
  128OSM   H15A13596   0.846   0.659   2.491  0.8277  1.5074 -0.9115
  128OSM   H15B13597   0.927   0.644   2.344  0.4310 -1.6635 -0.2996
  128OSM   H15C13598   1.011   0.622   2.494 -1.4557  1.9529 -0.0547
  128OSM    C1413599   0.783   0.458   2.320 -0.1087  0.1780 -0.1476
  128OSM   H14A13600   0.816   0.534   2.251 -0.3579  0.0423 -0.4154
  128OSM   H14B13601   0.695   0.491   2.372 -0.3903 -1.9718  0.8420
  128OSM   H14C13602   0.758   0.359   2.285  1.4195 -1.3905  2.7427
  128OSM    C1313603   1.003   0.373   2.372  0.1884 -0.5028  0.6639
  128OSM   H13A13604   1.071   0.354   2.454  0.5907 -1.0627  0.2085
  128OSM   H13B13605   1.062   0.424   2.298  0.1551 -0.8927  0.3672
  128OSM   H13C13606   0.966   0.281   2.330  0.8165 -0.2350 -0.4952
  128OSM    C1213607   0.839   0.379   2.554  0.4850 -0.0203  0.6667
  128OSM   H12A13608   0.916   0.386   2.628 -0.4639  0.0088  1.6808
  128OSM   H12B13609   0.822   0.274   2.533 -0.3275  0.7410 -3.3267
  128OSM    C1113610   0.706   0.421   2.626 -0.0612 -0.5361 -0.7575
  128OSM   H11A13611   0.722   0.531   2.636 -1.2879 -0.4005 -0.2043
  128OSM   H11B13612   0.700   0.391   2.733  0.4614  1.2113 -0.2095
  128OSM      P13613   0.466   0.496   2.543 -0.4054 -0.0666  0.3008
  128OSM    O1313614   0.501   0.631   2.499  0.5150  0.1533 -0.3559
  128OSM    O1413615   0.360   0.433   2.462 -0.0980 -0.0218  0.3881
  128OSM    O1113616   0.422   0.505   2.697 -0.2848  0.0988  0.5971
  128OSM    O1213617   0.595   0.400   2.542 -0.5298 -0.2195  0.0451
  128OSM    C1S13618   0.366   0.399   2.770  0.3299  0.0099  0.5822
  128OSM    H1S13619   0.442   0.318   2.773 -0.3390 -0.8755 -2.4586
  128OSM    H1T13620   0.280   0.360   2.711 -0.1197  1.3014  0.3645
  128OSM     NF13621   0.257   0.317   2.980  0.4434 -0.0351 -0.3588
  128OSM    HNF13622   0.158   0.319   2.981  0.3542 -1.1855  2.3297
  128OSM    C2S13623   0.327   0.433   2.916 -0.2317  0.1293 -0.4885
  128OSM    H2S13624   0.423   0.452   2.969  2.4831 -3.5322 -3.5097
  128OSM    C3S13625   0.242   0.559   2.926 -0.0364  0.1608  0.8123
  128OSM    H3S13626   0.142   0.541   2.882  0.3416 -2.0057  0.7405
  128OSM     O313627   0.294   0.670   2.854 -0.2111 -0.2370  0.4728
  128OSM    HO313628   0.353   0.628   2.792 -0.1603 -1.7199  1.4573
  128OSM    C4S13629   0.218   0.611   3.062 -0.2556  0.7924  0.0849
  128OSM    H4S13630   0.306   0.600   3.128  0.7824  2.2468 -0.9870
  128OSM    C5S13631   0.106   0.664   3.107 -0.7423 -0.0833 -0.2250
  128OSM    H5S13632   0.025   0.680   3.034  0.6285  0.8704 -1.6079
  128OSM    C6S13633   0.085   0.725   3.249  0.2721 -0.0100 -0.1635
  128OSM    H6S13634  -0.023   0.745   3.258  0.2354 -0.1826 -0.2202
  128OSM    H6T13635   0.141   0.818   3.270  0.2654 -0.4286  1.9054
  128OSM    C7S13636   0.120   0.627   3.363 -0.2989 -0.1010  0.2691
  128OSM    H7S13637   0.231   0.619   3.369 -0.0874 -1.3273 -3.1280
  128OSM    H7T13638   0.079   0.527   3.338  0.0174  0.0635 -0.9546
  128OSM    C8S13639   0.065   0.674   3.497  0.4803  0.9603  0.2567
  128OSM    H8S13640  -0.044   0.692   3.491  0.1323 -0.3806  1.6951
  128OSM    H8T13641   0.102   0.773   3.531 -0.3822  0.6764  2.1117
  128OSM    C9S13642   0.091   0.580   3.612  0.4070 -0.2142 -0.0789
  128OSM    H9S13643   0.088   0.474   3.581  1.1317 -1.0080  2.3683
  128OSM    H9T13644   0.025   0.600   3.700 -1.1745 -1.0802 -1.0184
  128OSM   C10S13645   0.235   0.602   3.658  0.1385 -0.5417  0.5431
  128OSM   H10S13646   0.248   0.706   3.694  0.1248 -0.2020 -0.4107
  128OSM   H10T13647   0.297   0.587   3.567 -1.4063 -0.6335 -0.5330
  128OSM   C11S13648   0.269   0.499   3.768 -0.1102 -0.2421  0.3300
  128OSM   H11S13649   0.272   0.398   3.721  0.7339 -0.2669  0.4336
  128OSM   H11T13650   0.176   0.512   3.828 -1.7129  3.5522 -2.5274
  128OSM   C12S13651   0.403   0.529   3.830  0.1016 -0.2521 -0.2521
  128OSM   H12S13652   0.379   0.592   3.919 -2.2045  1.1490 -1.7450
  128OSM   H12T13653   0.464   0.577   3.751 -0.4644 -0.2067 -0.6666
  128OSM   C13S13654   0.473   0.400   3.883 -0.3785  0.2528  0.0580
  128OSM   H13S13655   0.581   0.422   3.898 -0.0478 -1.6528  0.6618
  128OSM   H13T13656   0.457   0.336   3.794 -1.6844 -1.4808  1.4709
  128OSM   C14S13657   0.393   0.326   3.991  0.0449 -0.5232  0.2139
  128OSM   H14S13658   0.292   0.305   3.952  1.0481 -0.8189 -2.4384
  128OSM   H14T13659   0.392   0.380   4.089 -1.4592 -0.0200 -0.0657
  128OSM   C15S13660   0.461   0.185   4.022  0.0635  0.0922 -0.1690
  128OSM   H15S13661   0.555   0.174   4.079 -0.0632 -0.5483 -0.0699
  128OSM   H15T13662   0.474   0.133   3.924 -0.8740 -3.6617  1.5064
  128OSM   C16S13663   0.372   0.084   4.102 -0.5195  0.2496 -0.5415
  128OSM   H16S13664   0.274   0.072   4.052 -0.5205 -0.4213 -0.3869
  128OSM   H16T13665   0.353   0.135   4.198 -0.7280 -0.0642 -0.4164
  128OSM   C17S13666   0.440  -0.050   4.120 -0.3707 -0.0599 -0.3712
  128OSM   H17S13667   0.544  -0.033   4.157 -0.4361 -0.0530 -0.1892
  128OSM   H17T13668   0.450  -0.090   4.017  1.3272 -0.7891  0.0386
  128OSM   C18S13669   0.377  -0.157   4.210  0.0818 -0.2773  0.0487
  128OSM   H18S13670   0.268  -0.171   4.192  0.0586 -0.6680  0.4793
  128OSM   H18T13671   0.399  -0.129   4.316  0.7456  2.7987 -0.7941
  128OSM   H18U13672   0.415  -0.256   4.179  0.0516 -0.7662  1.4906
  128OSM    C1F13673   0.341   0.207   3.006 -0.0835  1.1432  0.1295
  128OSM     OF13674   0.462   0.221   3.001 -0.3148 -0.5167 -0.2109
  128OSM    C2F13675   0.276   0.070   3.028 -0.1845  0.3996 -0.0154
  128OSM    H2F13676   0.309   0.016   2.937 -2.3937  1.4040 -1.5206
  128OSM    H2G13677   0.167   0.092   3.033 -0.0787  1.1083 -0.6700
  128OSM    C3F13678   0.324   0.008   3.161  0.2345 -0.3636 -0.0472
  128OSM    H3F13679   0.435   0.008   3.151  0.4239 -1.4554  1.6235
  128OSM    H3G13680   0.289  -0.097   3.162 -0.1221 -0.2485  0.6776
  128OSM    C4F13681   0.281   0.082   3.291 -0.4918  0.4415  0.3842
  128OSM    H4F13682   0.348   0.170   3.301 -1.6192  1.0611  3.3540
  128OSM    H4G13683   0.312   0.021   3.378 -0.6769 -0.0038  0.1403
  128OSM    C5F13684   0.137   0.131   3.292  0.2973  0.4881 -0.0484
  128OSM    H5F13685   0.080   0.039   3.266  0.7693  0.6813 -1.9313
  128OSM    H5G13686   0.114   0.213   3.221  0.2473 -1.2975 -2.2408
  128OSM    C6F13687   0.085   0.171   3.429 -0.0117 -0.4262  0.5232
  128OSM    H6F13688   0.150   0.258   3.455 -1.2767  0.5746  0.4546
  128OSM    H6G13689   0.089   0.090   3.504  3.3119 -0.9268 -0.0244
  128OSM    C7F13690  -0.064   0.218   3.417  0.3378 -0.0074 -0.0035
  128OSM    H7F13691  -0.123   0.135   3.373  0.2132  0.4151 -0.6534
  128OSM    H7G13692  -0.061   0.309   3.353  0.8672  1.0095  1.3949
  128OSM    C8F13693  -0.125   0.261   3.553  0.6681 -0.1616 -1.1579
  128OSM    H8F13694  -0.215   0.323   3.534  0.3945  0.5735  1.9007
  128OSM    H8G13695  -0.048   0.321   3.607 -1.3649 -0.3027  2.1583
  128OSM    C9F13696  -0.156   0.141   3.638  0.1991 -0.5404 -0.3556
  128OSM    H9F13697  -0.230   0.074   3.591  0.7945 -0.6878 -1.1144
  128OSM   C10F13698  -0.100   0.103   3.757 -1.1008  0.4063  0.1953
  128OSM   H10F13699  -0.125   0.005   3.799  0.8415 -0.1242  0.2118
  128OSM   C11F13700   0.007   0.184   3.828  0.7600 -0.0211  0.1244
  128OSM   H11F13701   0.082   0.224   3.756  0.5602 -0.1789 -0.1735
  128OSM   H11G13702   0.063   0.100   3.876  0.8599 -0.0156  0.0168
  128OSM   C12F13703  -0.034   0.282   3.937 -0.0536 -0.0760 -0.6122
  128OSM   H12F13704  -0.086   0.369   3.891  0.9472  0.5973 -0.4804
  128OSM   H12G13705   0.064   0.319   3.974  0.3610 -1.2813 -0.4590
  128OSM   C13F13706  -0.102   0.219   4.060 -0.4016 -0.2203 -0.1596
  128OSM   H13F13707  -0.037   0.137   4.098  0.5347  0.6917  0.2306
  128OSM   H13G13708  -0.197   0.179   4.018 -0.9299  0.2687  0.5413
  128OSM   C14F13709  -0.125   0.329   4.169  0.3947 -0.6444 -0.1454
  128OSM   H14F13710  -0.234   0.322   4.189  0.0276  0.9287 -1.4212
  128OSM   H14G13711  -0.100   0.431   4.133 -1.4261 -0.4089 -0.8753
  128OSM   C15F13712  -0.049   0.306   4.304  0.4118  0.2719 -0.0310
  128OSM   H15F13713   0.053   0.327   4.266 -0.0176 -1.1162 -2.1129
  128OSM   H15G13714  -0.049   0.200   4.338  2.2205 -0.0154 -0.8081
  128OSM   C16F13715  -0.109   0.391   4.420 -0.0212 -0.5358 -0.0732
  128OSM   H16F13716  -0.218   0.381   4.440 -0.3850  3.2337  0.6441
  128OSM   H16G13717  -0.083   0.496   4.396 -2.1459  0.2213  0.6838
  128OSM   C17F13718  -0.042   0.362   4.547  0.2396 -0.1002  0.0120
  128OSM   H17F13719   0.065   0.372   4.520  0.5975 -1.4369  0.8431
  128OSM   H17G13720  -0.067   0.260   4.586  4.5059 -0.3553  2.8143
  128OSM   C18F13721  -0.081   0.456   4.663 -0.2095  0.2684 -0.3373
  128OSM   H18F13722  -0.084   0.563   4.632  0.2734  0.5318  0.4899
  128OSM   H18G13723   0.003   0.452   4.736  0.7858  0.3481 -1.4495
  128OSM   H18H13724  -0.168   0.420   4.722  0.6573 -1.6138 -0.1241
  129OSM      N13725   1.080   6.476   2.463 -0.1366  0.2854  0.3697
  129OSM    C1513726   0.947   6.547   2.434 -0.4923  0.3239  0.8601
  129OSM   H15A13727   0.901   6.591   2.521 -3.7255 -1.8157  0.3933
  129OSM   H15B13728   0.874   6.477   2.395 -1.0440  0.9643  0.7299
  129OSM   H15C13729   0.970   6.612   2.351  2.9976 -0.8293  0.7378
  129OSM    C1413730   1.058   6.351   2.550 -0.3532 -0.0194 -0.2144
  129OSM   H14A13731   1.138   6.286   2.583 -0.9620 -1.2294 -1.0508
  129OSM   H14B13732   0.998   6.283   2.490 -0.9447  0.8885 -0.6772
  129OSM   H14C13733   0.998   6.379   2.635  0.3316  1.2427 -0.1167
  129OSM    C1313734   1.143   6.431   2.332  0.5303 -0.1663  0.4635
  129OSM   H13A13735   1.077   6.362   2.281  0.6224  0.4376 -0.4981
  129OSM   H13B13736   1.234   6.376   2.351 -0.6750 -1.8567  1.6038
  129OSM   H13C13737   1.161   6.512   2.262 -0.2153 -1.0874 -0.8450
  129OSM    C1213738   1.177   6.574   2.525 -0.7136  0.4651  0.2703
  129OSM   H12A13739   1.216   6.643   2.452 -1.4058  1.6185  0.9527
  129OSM   H12B13740   1.266   6.516   2.543 -1.9826 -2.5541 -2.2188
  129OSM    C1113741   1.148   6.651   2.651  0.4624 -0.5948  0.5104
  129OSM   H11A13742   1.244   6.695   2.685 -0.8795  0.9036  2.6371
  129OSM   H11B13743   1.116   6.569   2.719 -1.7728 -1.1699 -1.1236
  129OSM      P13744   1.071   6.889   2.589  0.0854 -0.5189  0.0200
  129OSM    O1313745   1.210   6.896   2.541 -0.6237  0.4380  0.1576
  129OSM    O1413746   0.962   6.925   2.497  0.0066  0.1129  0.1052
  129OSM    O1113747   1.047   6.980   2.709  0.0899  0.1793 -0.2352
  129OSM    O1213748   1.041   6.748   2.644 -0.0937  0.2542  0.1816
  129OSM    C1S13749   0.938   6.969   2.801  0.1728 -0.5206 -0.6667
  129OSM    H1S13750   0.896   6.867   2.813 -0.9484  0.2389  3.2707
  129OSM    H1T13751   0.854   7.030   2.762  0.4777  0.2948 -0.0714
  129OSM     NF13752   0.887   7.000   3.052  0.4466  0.6479  0.3452
  129OSM    HNF13753   0.830   7.075   3.085 -0.5466  0.0982 -0.0717
  129OSM    C2S13754   0.970   7.039   2.937  0.1754 -0.1995 -0.0117
  129OSM    H2S13755   1.077   7.014   2.956  1.0988  3.6268  0.6779
  129OSM    C3S13756   0.983   7.194   2.926 -0.5256 -0.5856 -0.1819
  129OSM    H3S13757   0.887   7.249   2.927 -1.0956 -1.5002 -1.6356
  129OSM     O313758   1.041   7.227   2.804  0.6163 -0.3017 -0.2927
  129OSM    HO313759   1.070   7.148   2.758  1.5198  0.8637 -1.8494
  129OSM    C4S13760   1.074   7.247   3.035 -0.0379 -0.6980 -0.4599
  129OSM    H4S13761   1.181   7.229   3.023  0.2295  0.1228  0.5682
  129OSM    C5S13762   1.034   7.320   3.141  0.9391 -0.2248  0.7927
  129OSM    H5S13763   0.929   7.353   3.133  1.1442  0.1295 -0.8801
  129OSM    C6S13764   1.127   7.378   3.233 -0.6496  0.3097 -0.3220
  129OSM    H6S13765   1.227   7.350   3.193 -1.6024 -1.8787 -1.3491
  129OSM    H6T13766   1.116   7.331   3.333  1.6761 -1.0394 -0.6130
  129OSM    C7S13767   1.101   7.529   3.240 -0.8108  0.3841 -0.2307
  129OSM    H7S13768   0.995   7.556   3.262 -1.3620 -0.0751 -2.1592
  129OSM    H7T13769   1.120   7.563   3.136 -1.3826 -0.7329 -0.7229
  129OSM    C8S13770   1.196   7.597   3.349 -0.3688 -0.8450 -0.1639
  129OSM    H8S13771   1.168   7.704   3.358 -1.6706 -1.0923 -0.9819
  129OSM    H8T13772   1.293   7.605   3.294 -0.5256  2.5680 -0.1779
  129OSM    C9S13773   1.233   7.517   3.469  0.1410  0.0032 -0.1315
  129OSM    H9S13774   1.299   7.431   3.446  1.8820  0.7268  1.8931
  129OSM    H9T13775   1.144   7.465   3.510  0.1368 -0.3069 -0.5263
  129OSM   C10S13776   1.281   7.588   3.593 -0.2157 -0.3652  0.5904
  129OSM   H10S13777   1.202   7.659   3.625 -2.6122 -2.3997 -0.5026
  129OSM   H10T13778   1.374   7.645   3.570  0.8811 -2.1266  0.4367
  129OSM   C11S13779   1.312   7.494   3.706  0.3337 -0.1023  0.2187
  129OSM   H11S13780   1.407   7.437   3.690  0.1647 -0.2130 -0.4084
  129OSM   H11T13781   1.234   7.416   3.714  1.7220 -1.6484 -0.5469
  129OSM   C12S13782   1.325   7.558   3.845  0.4205  0.8153  0.4955
  129OSM   H12S13783   1.220   7.592   3.862 -0.0227  1.0029 -2.1915
  129OSM   H12T13784   1.381   7.654   3.838 -0.3521  1.1742 -1.3447
  129OSM   C13S13785   1.377   7.457   3.943 -0.2742  0.0881 -0.0811
  129OSM   H13S13786   1.480   7.418   3.924 -0.6924 -1.0270 -0.1304
  129OSM   H13T13787   1.318   7.366   3.920 -0.7211  0.6751 -1.3703
  129OSM   C14S13788   1.353   7.503   4.085  0.3316 -0.5485 -0.1585
  129OSM   H14S13789   1.248   7.537   4.094  0.1601 -1.1681  0.2086
  129OSM   H14T13790   1.420   7.591   4.099  1.4019 -1.4027  0.2537
  129OSM   C15S13791   1.403   7.405   4.195  0.1267 -0.0345 -0.5260
  129OSM   H15S13792   1.511   7.382   4.181  0.2381 -0.8280  1.3567
  129OSM   H15T13793   1.348   7.310   4.177 -1.7206  0.5192  1.7797
  129OSM   C16S13794   1.388   7.441   4.347 -0.4976 -0.1166  1.0073
  129OSM   H16S13795   1.445   7.533   4.369  0.2375 -0.4036  0.3419
  129OSM   H16T13796   1.423   7.358   4.412 -0.7617 -0.3554  0.8467
  129OSM   C17S13797   1.242   7.461   4.388 -0.1692  0.0054 -0.4376
  129OSM   H17S13798   1.180   7.375   4.355  1.7869 -2.1748  1.2302
  129OSM   H17T13799   1.217   7.559   4.342  1.2021  0.4393 -0.2927
  129OSM   C18S13800   1.241   7.463   4.540 -0.4163  0.3188  0.6183
  129OSM   H18S13801   1.286   7.373   4.588  0.6039  0.1062 -0.6811
  129OSM   H18T13802   1.138   7.478   4.579 -0.8111  1.0347 -0.6537
  129OSM   H18U13803   1.294   7.558   4.563 -0.6397  0.5600  0.1402
  129OSM    C1F13804   0.883   6.877   3.099 -0.1094 -0.2970 -0.1527
  129OSM     OF13805   0.951   6.788   3.055  0.0100  0.2074  0.2219
  129OSM    C2F13806   0.790   6.851   3.213  0.2939 -0.8366 -0.0051
  129OSM    H2F13807   0.740   6.940   3.258 -0.4963 -2.1796  1.9110
  129OSM    H2G13808   0.848   6.809   3.298  1.6584 -0.8742 -0.9189
  129OSM    C3F13809   0.689   6.748   3.173 -0.4046  0.3505 -0.6142
  129OSM    H3F13810   0.740   6.661   3.126  1.1772  2.1773 -2.4845
  129OSM    H3G13811   0.622   6.779   3.089 -2.2293  0.3436  0.7676
  129OSM    C4F13812   0.608   6.694   3.293 -0.8353  0.0251  0.1620
  129OSM    H4F13813   0.556   6.776   3.347 -2.7320  1.0151 -2.8794
  129OSM    H4G13814   0.678   6.649   3.366 -2.1801 -0.9518  0.9076
  129OSM    C5F13815   0.508   6.592   3.238  0.2569  0.3819 -0.1446
  129OSM    H5F13816   0.573   6.510   3.202 -0.9102  0.1361 -1.7956
  129OSM    H5G13817   0.463   6.637   3.147  0.7593  1.0266 -0.0856
  129OSM    C6F13818   0.407   6.543   3.339 -0.0385 -0.1651  0.2039
  129OSM    H6F13819   0.331   6.617   3.370 -0.8087  0.0352 -1.9850
  129OSM    H6G13820   0.456   6.485   3.420 -0.2362  1.0223  1.1878
  129OSM    C7F13821   0.304   6.449   3.267  0.3652 -0.1504  0.0582
  129OSM    H7F13822   0.353   6.369   3.208  0.5164  0.5145 -0.7534
  129OSM    H7G13823   0.252   6.513   3.192  1.2625 -0.7462 -1.0989
  129OSM    C8F13824   0.198   6.379   3.362 -0.1414  0.6459 -0.3634
  129OSM    H8F13825   0.101   6.364   3.310  0.2163 -0.2292 -0.7943
  129OSM    H8G13826   0.179   6.452   3.443  0.7416  0.2270  0.2398
  129OSM    C9F13827   0.243   6.240   3.412 -0.5016 -1.1223  1.0119
  129OSM    H9F13828   0.252   6.171   3.326  0.5807  2.0171 -1.6115
  129OSM   C10F13829   0.281   6.202   3.535  0.0572 -0.7069  0.0951
  129OSM   H10F13830   0.337   6.107   3.540  0.0984 -0.6198  2.3455
  129OSM   C11F13831   0.276   6.284   3.663  0.2329  0.4250  0.6018
  129OSM   H11F13832   0.171   6.302   3.693 -0.2459 -1.1790 -0.0107
  129OSM   H11G13833   0.331   6.377   3.638  0.9247 -0.1710 -0.1364
  129OSM   C12F13834   0.338   6.205   3.781 -0.0248 -0.1327 -0.1386
  129OSM   H12F13835   0.446   6.191   3.760 -0.0096  0.2787 -0.3416
  129OSM   H12G13836   0.287   6.107   3.780 -2.0102  0.8352  0.6586
  129OSM   C13F13837   0.318   6.272   3.924 -0.2496 -0.4754  0.5476
  129OSM   H13F13838   0.212   6.263   3.955 -0.1281 -0.9468  0.8273
  129OSM   H13G13839   0.328   6.380   3.900 -1.8426 -0.5432 -0.5621
  129OSM   C14F13840   0.405   6.217   4.045 -0.2487  0.1360  0.7189
  129OSM   H14F13841   0.510   6.213   4.008 -0.3369  1.0467  0.3454
  129OSM   H14G13842   0.378   6.112   4.071 -2.6142 -0.2425 -2.6176
  129OSM   C15F13843   0.383   6.280   4.174 -0.5915  0.5465 -0.2615
  129OSM   H15F13844   0.284   6.251   4.218  0.3434 -2.8658 -0.1500
  129OSM   H15G13845   0.387   6.391   4.174 -0.2673  0.5962  2.3057
  129OSM   C16F13846   0.485   6.240   4.283 -0.1832  0.9680  0.5691
  129OSM   H16F13847   0.583   6.255   4.232 -0.1932 -5.3440 -2.2697
  129OSM   H16G13848   0.471   6.133   4.312 -2.4078  1.1913  0.4182
  129OSM   C17F13849   0.472   6.331   4.400 -0.6690 -0.2249  0.2793
  129OSM   H17F13850   0.366   6.336   4.435 -0.9935 -2.4091 -0.2293
  129OSM   H17G13851   0.499   6.432   4.364  0.7720 -1.1589 -1.3757
  129OSM   C18F13852   0.556   6.279   4.517  0.5704 -0.3649  0.0226
  129OSM   H18F13853   0.664   6.276   4.491  0.3306  0.5433 -1.1402
  129OSM   H18G13854   0.511   6.186   4.559 -0.3233  0.4807  1.0199
  129OSM   H18H13855   0.543   6.334   4.613  0.4002 -0.1422 -0.1278
  130OSM      N13856   0.796   1.893   2.293 -0.1214  0.0992  0.3850
  130OSM    C1513857   0.944   1.866   2.299 -0.1906  0.3555  0.6523
  130OSM   H15A13858   1.006   1.892   2.214  0.9430  0.5454  1.5099
  130OSM   H15B13859   0.968   1.761   2.306  0.4781  0.2970 -1.5162
  130OSM   H15C13860   0.987   1.922   2.380  0.8821  1.0839 -0.3798
  130OSM    C1413861   0.767   2.038   2.288 -0.0139 -0.5938 -0.1940
  130OSM   H14A13862   0.823   2.093   2.213  1.3378 -0.5706  0.7890
  130OSM   H14B13863   0.784   2.083   2.385 -1.2574 -0.8121  0.1333
  130OSM   H14C13864   0.661   2.055   2.274 -0.3593 -0.0840  2.5455
  130OSM    C1313865   0.745   1.833   2.173 -0.0751 -0.1047  0.6293
  130OSM   H13A13866   0.800   1.882   2.094  0.8569 -1.8593  0.1434
  130OSM   H13B13867   0.638   1.848   2.171 -0.3685 -2.0437  0.6315
  130OSM   H13C13868   0.757   1.726   2.167 -2.3840 -0.5060  2.0010
  130OSM    C1213869   0.738   1.830   2.415  0.2688  0.2299  0.5546
  130OSM   H12A13870   0.800   1.849   2.501 -0.3086 -1.7613  1.4904
  130OSM   H12B13871   0.737   1.722   2.421 -0.2156  0.2016  0.0288
  130OSM    C1113872   0.593   1.869   2.455 -0.6355  0.5538  0.2639
  130OSM   H11A13873   0.617   1.970   2.495  0.7230  0.9064 -1.3797
  130OSM   H11B13874   0.559   1.805   2.539 -0.5076 -0.8368 -0.7247
  130OSM      P13875   0.392   1.982   2.330  0.1831 -0.0321  0.1265
  130OSM    O1313876   0.449   2.105   2.265  0.2314  0.6292  0.6628
  130OSM    O1413877   0.270   1.927   2.265  0.0325  0.0816 -0.1566
  130OSM    O1113878   0.358   1.999   2.482  0.5091  0.6724 -0.1769
  130OSM    O1213879   0.497   1.870   2.347 -0.0952  0.2406  0.2932
  130OSM    C1S13880   0.254   1.922   2.546  0.1081  0.6193  0.7843
  130OSM    H1S13881   0.245   1.824   2.495  2.9378 -0.1436  1.5423
  130OSM    H1T13882   0.162   1.979   2.525  0.5968  1.2209  0.2358
  130OSM     NF13883   0.194   1.806   2.755 -0.0110 -0.6414  0.0686
  130OSM    HNF13884   0.139   1.840   2.830  1.7067 -0.8675  1.5128
  130OSM    C2S13885   0.289   1.898   2.694 -0.1068 -0.7494  0.4609
  130OSM    H2S13886   0.387   1.846   2.690  2.1452  3.2242 -2.4742
  130OSM    C3S13887   0.325   2.028   2.772  0.0438 -0.1011 -0.1972
  130OSM    H3S13888   0.244   2.104   2.780 -0.2005  0.4136 -4.8734
  130OSM     O313889   0.425   2.110   2.711  0.2036 -0.5726  0.2573
  130OSM    HO313890   0.388   2.105   2.623 -2.0942  2.1937  0.8709
  130OSM    C4S13891   0.371   1.984   2.912  0.3135  0.4771 -0.3791
  130OSM    H4S13892   0.286   1.970   2.981  0.7936  0.9419  0.3026
  130OSM    C5S13893   0.498   1.949   2.945  0.2413  0.2069  0.1374
  130OSM    H5S13894   0.582   1.969   2.877 -0.3077  2.3116  0.0061
  130OSM    C6S13895   0.543   1.895   3.081  0.1024 -0.2145  0.4466
  130OSM    H6S13896   0.618   1.814   3.072 -0.3814 -0.5965 -0.2871
  130OSM    H6T13897   0.458   1.843   3.132  2.4223 -2.8311  1.9094
  130OSM    C7S13898   0.598   2.024   3.149 -0.5315  0.3519  0.6292
  130OSM    H7S13899   0.518   2.101   3.162 -0.6734  0.4868 -0.7809
  130OSM    H7T13900   0.673   2.080   3.088  2.2352 -1.6643  1.9807
  130OSM    C8S13901   0.647   1.996   3.295  0.4594 -0.1722  0.2575
  130OSM    H8S13902   0.667   2.089   3.353 -2.5057 -0.9089  2.7607
  130OSM    H8T13903   0.747   1.948   3.289  0.8596  0.8675 -2.3309
  130OSM    C9S13904   0.535   1.918   3.374 -0.5760  0.1689  0.4409
  130OSM    H9S13905   0.513   1.818   3.329 -1.1670  0.2636  0.5087
  130OSM    H9T13906   0.445   1.983   3.368  0.9943  2.3541 -0.4051
  130OSM   C10S13907   0.566   1.902   3.525  0.2250  0.1372 -0.2192
  130OSM   H10S13908   0.588   2.007   3.556  1.0020  0.3199 -1.3154
  130OSM   H10T13909   0.652   1.836   3.550  0.7153  0.9500  0.2826
  130OSM   C11S13910   0.445   1.860   3.606  0.2538 -0.1342  0.4979
  130OSM   H11S13911   0.426   1.750   3.606 -1.0947  0.0663  1.9931
  130OSM   H11T13912   0.356   1.916   3.571  1.3122  0.8318 -0.7336
  130OSM   C12S13913   0.469   1.885   3.754  0.4434 -0.0029 -0.4696
  130OSM   H12S13914   0.387   1.829   3.804  0.4261  2.2147  2.2447
  130OSM   H12T13915   0.436   1.986   3.786  0.2723 -0.3566  0.5096
  130OSM   C13S13916   0.604   1.847   3.815 -0.1850  0.0172  0.1112
  130OSM   H13S13917   0.686   1.902   3.764  1.4326 -0.6292  1.9062
  130OSM   H13T13918   0.623   1.738   3.802  2.6002 -0.1084  3.6311
  130OSM   C14S13919   0.624   1.889   3.962  0.0395 -0.1695 -0.2127
  130OSM   H14S13920   0.534   1.879   4.027 -0.0741 -1.5154 -0.5536
  130OSM   H14T13921   0.653   1.996   3.971 -0.5283  0.0376 -0.7348
  130OSM   C15S13922   0.735   1.807   4.030  0.0913 -0.2500  0.7488
  130OSM   H15S13923   0.818   1.803   3.957 -0.2109 -1.8375  0.4749
  130OSM   H15T13924   0.698   1.704   4.045 -0.2844 -0.3561 -0.7334
  130OSM   C16S13925   0.798   1.868   4.152  0.5133 -0.6316  0.4132
  130OSM   H16S13926   0.725   1.929   4.210  1.3886  0.8794 -0.0150
  130OSM   H16T13927   0.872   1.946   4.126 -1.0375  0.9487  0.5476
  130OSM   C17S13928   0.861   1.769   4.245  0.9819 -0.0764  0.2621
  130OSM   H17S13929   0.941   1.712   4.194  0.4152 -0.8747  0.2529
  130OSM   H17T13930   0.784   1.691   4.263 -0.6924  0.5176 -3.4861
  130OSM   C18S13931   0.906   1.835   4.383  0.4989  0.2469 -0.5008
  130OSM   H18S13932   0.816   1.882   4.427  0.4198 -0.3007 -0.0643
  130OSM   H18T13933   0.981   1.915   4.365 -0.5904  1.5893  0.7479
  130OSM   H18U13934   0.950   1.765   4.457  0.8361 -1.0971 -1.9001
  130OSM    C1F13935   0.171   1.684   2.711 -0.5651 -0.8129  0.7566
  130OSM     OF13936   0.061   1.644   2.732  0.1381 -0.0417 -0.0840
  130OSM    C2F13937   0.280   1.602   2.654 -0.5302 -0.2609  0.2628
  130OSM    H2F13938   0.379   1.650   2.640 -0.6247 -0.4449 -1.1554
  130OSM    H2G13939   0.243   1.559   2.559 -1.7871 -1.9344  1.4548
  130OSM    C3F13940   0.325   1.492   2.758  0.3447 -0.2107 -0.0785
  130OSM    H3F13941   0.403   1.430   2.709 -1.6362 -0.6111 -3.0157
  130OSM    H3G13942   0.252   1.415   2.792 -0.2459  0.7671  0.9395
  130OSM    C4F13943   0.376   1.553   2.891 -0.0720 -0.8362  0.1910
  130OSM    H4F13944   0.293   1.613   2.935 -0.9877 -1.2983 -0.8450
  130OSM    H4G13945   0.463   1.618   2.871  0.6906 -1.2538  1.9554
  130OSM    C5F13946   0.425   1.446   2.985 -0.7512  0.2663 -0.1523
  130OSM    H5F13947   0.489   1.381   2.922 -2.7239 -3.3068  1.2266
  130OSM    H5G13948   0.344   1.385   3.031 -0.2226 -1.1069 -0.9785
  130OSM    C6F13949   0.507   1.505   3.099  0.0030 -0.1825  0.0746
  130OSM    H6F13950   0.446   1.571   3.164 -0.3125 -0.5349  0.1412
  130OSM    H6G13951   0.601   1.555   3.067  1.2281 -0.1654  3.2947
  130OSM    C7F13952   0.575   1.396   3.188 -0.2256  0.2091  0.0790
  130OSM    H7F13953   0.647   1.346   3.120  0.3695  2.4035 -1.0010
  130OSM    H7G13954   0.502   1.326   3.234 -0.2227  0.5605  0.6355
  130OSM    C8F13955   0.665   1.472   3.294 -0.5941 -0.2253  1.3274
  130OSM    H8F13956   0.724   1.550   3.241 -0.7775 -0.3687  0.9048
  130OSM    H8G13957   0.736   1.398   3.336 -0.2584 -0.5063  0.2994
  130OSM    C9F13958   0.578   1.529   3.405  0.1333  0.0727  0.4371
  130OSM    H9F13959   0.491   1.585   3.368 -1.0397 -2.2120 -0.4018
  130OSM   C10F13960   0.583   1.496   3.537  0.3064 -0.3971  0.1635
  130OSM   H10F13961   0.513   1.555   3.599 -1.1305  0.6259 -2.2932
  130OSM   C11F13962   0.679   1.406   3.609 -0.0918  0.7928 -0.0109
  130OSM   H11F13963   0.740   1.337   3.548 -1.1118 -2.2372  2.1995
  130OSM   H11G13964   0.615   1.347   3.678  0.8455 -0.3673 -0.1196
  130OSM   C12F13965   0.781   1.492   3.689  0.4891  0.2916 -0.5411
  130OSM   H12F13966   0.720   1.546   3.765 -0.1227 -2.0135  0.7334
  130OSM   H12G13967   0.838   1.563   3.627 -0.4852  1.2013 -0.4254
  130OSM   C13F13968   0.897   1.415   3.757 -0.8343  0.0471 -0.0720
  130OSM   H13F13969   0.964   1.490   3.804 -2.1016  0.9358  0.3550
  130OSM   H13G13970   0.955   1.349   3.689  2.4704  0.9612  1.6292
  130OSM   C14F13971   0.847   1.328   3.877 -0.0212 -0.4460  0.4578
  130OSM   H14F13972   0.761   1.267   3.843  1.0235 -0.7186 -1.9455
  130OSM   H14G13973   0.818   1.399   3.957 -0.8081  0.0352 -0.2381
  130OSM   C15F13974   0.952   1.231   3.923  0.5322  0.1303  0.2513
  130OSM   H15F13975   1.042   1.290   3.948  1.1648 -0.3054 -0.9479
  130OSM   H15G13976   0.973   1.161   3.840 -2.5073 -0.4366 -0.1863
  130OSM   C16F13977   0.900   1.154   4.044  0.5154 -0.3574 -0.0899
  130OSM   H16F13978   0.972   1.076   4.074  0.4284 -0.2489  0.4065
  130OSM   H16G13979   0.798   1.113   4.026  0.6901 -0.3661 -1.1345
  130OSM   C17F13980   0.892   1.252   4.162  0.0431 -0.0637 -0.4835
  130OSM   H17F13981   0.812   1.326   4.141 -0.9259 -1.3476 -1.4576
  130OSM   H17G13982   0.988   1.308   4.167  0.6924 -1.1735 -0.0615
  130OSM   C18F13983   0.864   1.175   4.291 -0.9084 -0.6783  0.4255
  130OSM   H18F13984   0.882   1.239   4.380 -1.7260  0.9358 -0.5302
  130OSM   H18G13985   0.928   1.084   4.296 -0.0357 -0.2415 -1.9772
  130OSM   H18H13986   0.762   1.131   4.283 -1.8631  1.7590 -1.9916
  131OSM      N13987   0.226   0.870   1.811 -0.1095 -0.0598 -0.5575
  131OSM    C1513988   0.292   0.771   1.717  0.2903  0.2868 -0.3944
  131OSM   H15A13989   0.226   0.687   1.725 -0.0908  0.7923  3.3088
  131OSM   H15B13990   0.394   0.750   1.746 -0.5138 -1.6597  1.2001
  131OSM   H15C13991   0.296   0.797   1.612  1.4227 -2.1738 -1.0342
  131OSM    C1413992   0.310   0.993   1.806 -0.0408 -0.3403 -0.1999
  131OSM   H14A13993   0.293   1.063   1.726  0.8006  0.4626  0.3012
  131OSM   H14B13994   0.413   0.961   1.809  0.3188  0.7467 -0.2397
  131OSM   H14C13995   0.293   1.047   1.898 -1.2756 -0.6980 -0.2100
  131OSM    C1313996   0.092   0.899   1.761 -0.0967  0.3269 -0.1839
  131OSM   H13A13997   0.047   0.986   1.808  2.5282  2.4306 -1.2901
  131OSM   H13B13998   0.017   0.825   1.786 -0.1284  0.6192  0.5899
  131OSM   H13C13999   0.081   0.920   1.655 -3.9077 -0.1646 -0.0488
  131OSM    C1214000   0.217   0.802   1.950  0.8277  0.4063  0.3355
  131OSM   H12A14001   0.317   0.793   1.988  0.6640 -1.2192  0.4450
  131OSM   H12B14002   0.174   0.706   1.928  0.3240  0.5107  0.8380
  131OSM    C1114003   0.128   0.864   2.058 -0.1412 -0.9691  0.4973
  131OSM   H11A14004   0.116   0.793   2.142 -0.1244 -0.2858  1.0784
  131OSM   H11B14005   0.028   0.892   2.018  1.0933  0.0933 -2.1174
  131OSM      P14006   0.288   0.988   2.210  0.0926 -0.5938 -0.4146
  131OSM    O1314007   0.405   0.910   2.170 -0.5244 -0.4100 -0.4816
  131OSM    O1414008   0.321   1.126   2.243  0.1225 -0.1502  0.6893
  131OSM    O1114009   0.209   0.910   2.322 -0.6866 -0.0405 -0.5489
  131OSM    O1214010   0.187   0.987   2.084 -0.0403  0.6856 -0.1520
  131OSM    C1S14011   0.247   0.927   2.467  0.7616  0.2522 -0.2834
  131OSM    H1S14012   0.276   1.032   2.488  1.4609 -0.3755  2.2277
  131OSM    H1T14013   0.337   0.864   2.483  0.2307 -0.2483  0.8195
  131OSM     NF14014   0.192   0.898   2.714 -0.3563 -0.2773 -0.4702
  131OSM    HNF14015   0.230   0.816   2.756  2.9554  0.8107 -1.0028
  131OSM    C2S14016   0.149   0.875   2.573  0.1473 -0.3042 -0.8669
  131OSM    H2S14017   0.054   0.933   2.562 -0.1791 -0.6075  0.2188
  131OSM    C3S14018   0.101   0.729   2.548  0.1216 -0.0847 -0.7629
  131OSM    H3S14019   0.186   0.660   2.566 -1.2076 -1.7420 -0.5458
  131OSM     O314020   0.065   0.700   2.416  0.5058  0.3308  0.0127
  131OSM    HO314021   0.097   0.773   2.363 -2.6727 -0.3309 -3.2266
  131OSM    C4S14022  -0.004   0.691   2.649  0.4260  0.0835  0.3855
  131OSM    H4S14023   0.029   0.635   2.738  0.0072 -0.4924  0.1827
  131OSM    C5S14024  -0.139   0.717   2.636 -0.3531  0.0935  0.3945
  131OSM    H5S14025  -0.174   0.744   2.535 -1.4536  1.0355  0.9993
  131OSM    C6S14026  -0.247   0.696   2.739 -0.1764  0.7402  0.3584
  131OSM    H6S14027  -0.315   0.618   2.699 -0.3926  1.2283 -0.2405
  131OSM    H6T14028  -0.317   0.782   2.732 -0.9396  0.1204  0.1981
  131OSM    C7S14029  -0.203   0.687   2.883 -0.6991  0.1222 -0.2487
  131OSM    H7S14030  -0.153   0.783   2.910 -1.1487  0.2028  0.2944
  131OSM    H7T14031  -0.130   0.603   2.888  0.4055  0.9525 -1.3760
  131OSM    C8S14032  -0.316   0.651   2.964 -0.0807  0.1645  0.0039
  131OSM    H8S14033  -0.355   0.556   2.922 -0.1046  0.1222  0.1206
  131OSM    H8T14034  -0.400   0.721   2.945 -1.1620 -1.3849 -1.1563
  131OSM    C9S14035  -0.282   0.611   3.105  0.0032 -0.1313 -0.0470
  131OSM    H9S14036  -0.205   0.676   3.151 -0.2607  1.3391 -1.6092
  131OSM    H9T14037  -0.252   0.505   3.115  1.5355  0.4051  1.4539
  131OSM   C10S14038  -0.408   0.631   3.190 -1.2158 -0.4589 -0.1102
  131OSM   H10S14039  -0.497   0.583   3.143 -1.7734  0.4571 -0.0251
  131OSM   H10T14040  -0.433   0.739   3.186 -3.0554 -0.8623 -0.7108
  131OSM   C11S14041  -0.380   0.583   3.331 -0.1033  0.4849  0.6751
  131OSM   H11S14042  -0.315   0.494   3.333 -0.3683  0.2901  2.2104
  131OSM   H11T14043  -0.474   0.545   3.376 -0.7236 -0.0842 -1.0474
  131OSM   C12S14044  -0.319   0.686   3.418  0.2127  0.7075  0.1422
  131OSM   H12S14045  -0.389   0.772   3.424 -2.0617 -1.1147  1.2101
  131OSM   H12T14046  -0.224   0.729   3.378  1.3603 -1.6813  0.1343
  131OSM   C13S14047  -0.291   0.641   3.559  0.3476 -0.0118 -0.7461
  131OSM   H13S14048  -0.248   0.723   3.621 -0.1023 -0.0700 -0.3498
  131OSM   H13T14049  -0.210   0.566   3.551  1.5402  1.1096  0.3675
  131OSM   C14S14050  -0.410   0.575   3.633 -0.4016 -0.2429  0.5466
  131OSM   H14S14051  -0.465   0.513   3.559  2.3739 -2.5126  0.2494
  131OSM   H14T14052  -0.486   0.643   3.678  0.9521 -0.8429  4.0549
  131OSM   C15S14053  -0.379   0.493   3.760 -0.1539 -0.4125  0.6028
  131OSM   H15S14054  -0.337   0.575   3.821  0.6416 -0.2037 -0.1956
  131OSM   H15T14055  -0.285   0.436   3.745  1.5311  2.4617 -0.6241
  131OSM   C16S14056  -0.497   0.419   3.833 -0.2776 -0.6440 -0.0981
  131OSM   H16S14057  -0.540   0.328   3.787  2.1512 -3.0841  2.0671
  131OSM   H16T14058  -0.584   0.487   3.839 -1.2796 -1.8248 -0.7153
  131OSM   C17S14059  -0.454   0.354   3.963  0.7020 -0.0024 -0.6202
  131OSM   H17S14060  -0.393   0.430   4.015 -0.5109  0.7756 -0.3042
  131OSM   H17T14061  -0.394   0.262   3.947 -0.1639 -1.4624  3.3597
  131OSM   C18S14062  -0.576   0.319   4.060 -0.8638  0.0217  0.3646
  131OSM   H18S14063  -0.658   0.266   4.009  0.4639 -0.3912 -1.4356
  131OSM   H18T14064  -0.621   0.409   4.107  1.4319  0.9666  0.8898
  131OSM   H18U14065  -0.539   0.258   4.146  3.4652  1.5682 -0.1325
  131OSM    C1F14066   0.202   1.014   2.772  1.1335  0.1406  0.2267
  131OSM     OF14067   0.188   1.119   2.712 -0.0559 -0.2472 -0.1172
  131OSM    C2F14068   0.241   1.005   2.914 -0.7332 -0.0260 -0.8239
  131OSM    H2F14069   0.350   0.985   2.916 -0.8271 -0.5576  1.0534
  131OSM    H2G14070   0.187   0.918   2.956  1.0284 -1.7033 -1.8842
  131OSM    C3F14071   0.196   1.139   2.985 -0.4382 -0.3352  0.2978
  131OSM    H3F14072   0.097   1.175   2.952  0.3144  4.0528  2.1569
  131OSM    H3G14073   0.265   1.218   2.949 -0.4495 -0.0443  0.9077
  131OSM    C4F14074   0.208   1.142   3.140 -0.3859  1.0244  0.1912
  131OSM    H4F14075   0.118   1.089   3.179 -0.2129 -1.4455 -2.3933
  131OSM    H4G14076   0.200   1.251   3.158  2.1969  1.0833  1.5272
  131OSM    C5F14077   0.333   1.081   3.208 -0.6556 -0.5130 -0.9432
  131OSM    H5F14078   0.423   1.122   3.157 -1.3760 -0.4809 -2.2408
  131OSM    H5G14079   0.338   0.972   3.191  3.4636 -0.3444 -1.9162
  131OSM    C6F14080   0.330   1.117   3.363 -0.6698 -0.8117  0.8958
  131OSM    H6F14081   0.238   1.068   3.401 -1.4193 -0.0832  0.0703
  131OSM    H6G14082   0.308   1.225   3.378 -2.8044 -0.6603 -2.3535
  131OSM    C7F14083   0.448   1.077   3.448 -1.4567  0.7558 -0.3735
  131OSM    H7F14084   0.540   1.135   3.425 -1.0268 -0.0164 -0.6404
  131OSM    H7G14085   0.464   0.968   3.434  0.3505  1.0655 -0.9738
  131OSM    C8F14086   0.414   1.101   3.597 -0.1711  0.5941 -0.1594
  131OSM    H8F14087   0.337   1.027   3.629  1.7581 -2.1790 -1.5194
  131OSM    H8G14088   0.394   1.209   3.611  2.9076  1.2010  0.3865
  131OSM    C9F14089   0.540   1.069   3.680 -0.2617 -1.0276 -0.7760
  131OSM    H9F14090   0.627   1.127   3.645 -0.3885 -0.5266 -0.2754
  131OSM   C10F14091   0.547   0.994   3.791 -0.0329  0.8328 -0.4249
  131OSM   H10F14092   0.645   0.977   3.837 -0.0932  0.2260 -0.5082
  131OSM   C11F14093   0.431   0.929   3.849  0.3238 -0.3655 -0.2633
  131OSM   H11F14094   0.408   0.840   3.787 -0.7036  0.2480 -0.8056
  131OSM   H11G14095   0.338   0.990   3.844 -0.4952 -1.4868  0.7618
  131OSM   C12F14096   0.461   0.897   3.997  0.0269 -0.4895  0.3467
  131OSM   H12F14097   0.553   0.836   4.013 -1.0753 -2.0463  1.0014
  131OSM   H12G14098   0.372   0.839   4.030 -0.7248 -0.5847 -1.7170
  131OSM   C13F14099   0.468   1.031   4.078 -0.7036 -0.1897  0.1321
  131OSM   H13F14100   0.374   1.089   4.064 -1.5601 -1.7016 -0.7552
  131OSM   H13G14101   0.545   1.097   4.034  1.0792 -0.8558  2.0905
  131OSM   C14F14102   0.496   1.019   4.231 -0.0302  0.2853 -0.4969
  131OSM   H14F14103   0.593   0.971   4.256 -0.8446 -0.1042  2.3760
  131OSM   H14G14104   0.421   0.946   4.268 -0.1960  0.3778 -0.6490
  131OSM   C15F14105   0.482   1.150   4.316  1.0195 -0.3684 -0.3870
  131OSM   H15F14106   0.385   1.193   4.284  0.5693 -0.7620  0.4281
  131OSM   H15G14107   0.565   1.222   4.298  1.2876 -0.0543  1.8650
  131OSM   C16F14108   0.458   1.123   4.469  0.2191 -0.0769 -0.1358
  131OSM   H16F14109   0.549   1.069   4.504  0.4203 -0.5662 -1.3724
  131OSM   H16G14110   0.377   1.048   4.481 -0.0650  0.6337  3.5915
  131OSM   C17F14111   0.426   1.249   4.553 -0.2327  0.2254 -1.1675
  131OSM   H17F14112   0.327   1.284   4.518  0.2191  0.9271 -1.7678
  131OSM   H17G14113   0.498   1.331   4.530 -0.4404  0.1116 -2.2523
  131OSM   C18F14114   0.407   1.219   4.697 -0.3271  0.1225  0.4135
  131OSM   H18F14115   0.496   1.168   4.740 -0.5242 -2.4212 -2.0026
  131OSM   H18G14116   0.322   1.149   4.710  1.0986 -1.8149 -0.2580
  131OSM   H18H14117   0.384   1.311   4.756 -0.6843  0.9771 -1.0132
  132OSM      N14118   4.320   1.819   1.947 -0.7418 -0.4689 -0.3026
  132OSM    C1514119   4.226   1.901   1.862 -0.0120 -0.0734 -1.1995
  132OSM   H15A14120   4.237   1.871   1.759  1.0103 -1.4956 -0.6965
  132OSM   H15B14121   4.246   2.007   1.863 -1.6167  0.2768 -2.3543
  132OSM   H15C14122   4.121   1.885   1.883 -0.2771  0.9657 -1.6536
  132OSM    C1414123   4.277   1.679   1.931 -1.0501  0.1661 -0.3768
  132OSM   H14A14124   4.307   1.635   1.837 -1.5853  0.9296 -0.9211
  132OSM   H14B14125   4.171   1.657   1.928 -1.0491  0.2261 -1.6583
  132OSM   H14C14126   4.324   1.617   2.006  1.4309 -2.1394 -3.5467
  132OSM    C1314127   4.464   1.838   1.902 -0.0506 -0.3436  0.7106
  132OSM   H13A14128   4.475   1.869   1.799 -0.2939 -1.6924  0.2644
  132OSM   H13B14129   4.527   1.753   1.922  0.6188 -0.0613 -0.1553
  132OSM   H13C14130   4.509   1.918   1.960 -0.0211 -0.5922  1.0321
  132OSM    C1214131   4.315   1.874   2.090 -0.0108  1.0179  0.3533
  132OSM   H12A14132   4.212   1.881   2.121  0.1972  0.5293  1.1662
  132OSM   H12B14133   4.361   1.972   2.094  1.0798  0.5145  0.5977
  132OSM    C1114134   4.384   1.779   2.198  0.2006 -0.8124 -0.3668
  132OSM   H11A14135   4.404   1.824   2.298  0.1382 -3.1257  0.7653
  132OSM   H11B14136   4.482   1.756   2.152  0.3323  0.9812 -1.0642
  132OSM      P14137   4.165   1.656   2.286  0.1364 -0.3044  0.0611
  132OSM    O1314138   4.070   1.746   2.220 -0.2616  0.0299 -0.0491
  132OSM    O1414139   4.119   1.518   2.296  0.2237 -0.1061 -0.3375
  132OSM    O1114140   4.189   1.708   2.431  0.1675 -0.3339  0.0127
  132OSM    O1214141   4.310   1.652   2.220 -0.3210 -0.1520  0.1547
  132OSM    C1S14142   4.288   1.636   2.509  0.1884  0.1527  0.5775
  132OSM    H1S14143   4.393   1.665   2.489 -0.0694 -0.2055 -1.4937
  132OSM    H1T14144   4.280   1.525   2.500  2.5879 -0.0746  0.5167
  132OSM     NF14145   4.408   1.608   2.721  0.3178  0.0904 -0.3349
  132OSM    HNF14146   4.415   1.509   2.733  2.9945  0.2909  0.2613
  132OSM    C2S14147   4.281   1.649   2.661 -0.2130 -0.4600 -0.1775
  132OSM    H2S14148   4.270   1.759   2.675 -3.3831 -0.8034  0.8978
  132OSM    C3S14149   4.153   1.583   2.709  0.1904  0.1674 -0.3054
  132OSM    H3S14150   4.185   1.478   2.722 -0.4012 -0.1655 -1.3586
  132OSM     O314151   4.041   1.587   2.621  0.3243 -0.3241  0.3846
  132OSM    HO314152   4.072   1.635   2.544 -1.7166  2.4902  1.1355
  132OSM    C4S14153   4.120   1.621   2.849 -0.2641 -0.2707 -0.2848
  132OSM    H4S14154   4.163   1.548   2.920  2.2026  1.5823  0.2809
  132OSM    C5S14155   4.040   1.721   2.889  0.5910  0.3819  0.0500
  132OSM    H5S14156   4.010   1.798   2.815  0.5597  0.3369  0.0157
  132OSM    C6S14157   4.020   1.746   3.034 -0.3645  0.0122 -0.0133
  132OSM    H6S14158   3.918   1.773   3.067 -0.1798 -0.0104  0.5856
  132OSM    H6T14159   4.072   1.844   3.048 -2.4230  1.5741 -2.2736
  132OSM    C7S14160   4.068   1.639   3.138  0.5673 -0.1653  0.5774
  132OSM    H7S14161   4.162   1.583   3.117  0.3579 -1.1320  2.0633
  132OSM    H7T14162   3.994   1.556   3.140 -0.4231  0.6134 -1.0624
  132OSM    C8S14163   4.082   1.711   3.273  0.1317  0.1884 -0.0938
  132OSM    H8S14164   4.149   1.798   3.267  0.4389  0.1519  2.0438
  132OSM    H8T14165   4.117   1.641   3.353  1.0090  2.1633  1.3197
  132OSM    C9S14166   3.953   1.759   3.339  0.3774  0.1367  0.3585
  132OSM    H9S14167   3.879   1.676   3.340  1.3859 -0.8282 -1.1112
  132OSM    H9T14168   3.918   1.839   3.270  1.7481  1.8810  1.6042
  132OSM   C10S14169   3.980   1.815   3.475  0.3607  0.0693 -0.0255
  132OSM   H10S14170   4.052   1.898   3.460  0.1355 -0.0998 -2.5612
  132OSM   H10T14171   4.009   1.723   3.531 -1.6336 -0.1110  0.7734
  132OSM   C11S14172   3.865   1.870   3.547 -0.1919  0.4964 -0.8867
  132OSM   H11S14173   3.810   1.776   3.567  0.2500  0.6865  1.5248
  132OSM   H11T14174   3.800   1.937   3.487 -1.3323 -0.1679 -0.4144
  132OSM   C12S14175   3.913   1.929   3.683 -0.3552  0.1664  0.6715
  132OSM   H12S14176   3.950   2.032   3.665  0.1554 -0.1995 -0.5067
  132OSM   H12T14177   3.996   1.872   3.731 -0.5012 -0.3838  0.2804
  132OSM   C13S14178   3.791   1.922   3.772 -0.0799  1.0047 -0.1439
  132OSM   H13S14179   3.778   1.816   3.803 -3.8181  1.4477  0.2824
  132OSM   H13T14180   3.701   1.932   3.708 -1.4328 -1.4055  1.2120
  132OSM   C14S14181   3.802   2.010   3.892 -0.0776  0.3492 -0.7830
  132OSM   H14S14182   3.803   2.120   3.882  1.0744  0.6676  1.8473
  132OSM   H14T14183   3.897   1.978   3.940 -1.3086 -1.4210  0.5963
  132OSM   C15S14184   3.697   1.983   4.010  0.5217  0.4944  0.7481
  132OSM   H15S14185   3.730   1.883   4.043  0.6783 -0.4765 -2.0419
  132OSM   H15T14186   3.597   1.964   3.967  0.7098 -1.9082  1.2315
  132OSM   C16S14187   3.706   2.084   4.115  0.4784 -0.0884  0.7823
  132OSM   H16S14188   3.674   2.186   4.083 -2.4509 -1.1902 -0.0914
  132OSM   H16T14189   3.807   2.088   4.161  0.4468  2.8241  0.7830
  132OSM   C17S14190   3.616   2.055   4.235 -0.3463  0.5516 -0.5423
  132OSM   H17S14191   3.509   2.072   4.211 -0.1467 -1.1285 -2.8609
  132OSM   H17T14192   3.633   2.132   4.314 -0.0612 -0.8989  0.8734
  132OSM   C18S14193   3.630   1.910   4.289  0.4909 -0.8083 -0.1673
  132OSM   H18S14194   3.582   1.902   4.389 -1.4075  1.9659 -0.7262
  132OSM   H18T14195   3.736   1.883   4.307  0.5265  0.1098  1.0746
  132OSM   H18U14196   3.586   1.828   4.227  0.0811 -2.8551  2.6100
  132OSM    C1F14197   4.513   1.693   2.736  0.2438 -0.1046  1.0200
  132OSM     OF14198   4.497   1.805   2.683 -0.7632 -0.0827  0.5739
  132OSM    C2F14199   4.630   1.658   2.818 -0.0965 -0.1258  0.1152
  132OSM    H2F14200   4.617   1.555   2.858 -1.6672  0.0985  0.2119
  132OSM    H2G14201   4.637   1.730   2.903 -3.2113 -0.7002  0.9811
  132OSM    C3F14202   4.765   1.673   2.739 -0.7599 -0.1564  0.5691
  132OSM    H3F14203   4.787   1.766   2.681  0.7447 -0.7672  0.1173
  132OSM    H3G14204   4.756   1.592   2.664 -0.8826  1.2109 -0.9582
  132OSM    C4F14205   4.889   1.652   2.836 -0.4583 -0.1222  1.2666
  132OSM    H4F14206   4.985   1.632   2.784 -1.0034  0.8399 -0.1856
  132OSM    H4G14207   4.861   1.559   2.890  0.7231 -1.9819 -1.1467
  132OSM    C5F14208   4.911   1.767   2.930 -0.7021 -0.0337  0.3353
  132OSM    H5F14209   4.821   1.820   2.967  1.0088  2.3055  1.4320
  132OSM    H5G14210   4.966   1.844   2.871  0.0632 -2.3794 -2.1941
  132OSM    C6F14211   5.010   1.730   3.043  0.0154  0.4053  0.8720
  132OSM    H6F14212   5.100   1.693   2.991  1.0003  0.2377  2.6155
  132OSM    H6G14213   4.971   1.646   3.104 -0.0196 -0.2065  0.0158
  132OSM    C7F14214   5.030   1.847   3.143 -0.3915  0.0807  0.3341
  132OSM    H7F14215   5.009   1.942   3.089 -0.0686 -1.3416 -2.5120
  132OSM    H7G14216   5.135   1.844   3.178 -0.1592  0.6632 -0.2818
  132OSM    C8F14217   4.932   1.828   3.259 -0.6880  0.0036 -0.0411
  132OSM    H8F14218   4.949   1.734   3.316 -2.6346 -1.0631 -1.0755
  132OSM    H8G14219   4.827   1.814   3.224 -0.2889 -1.3339 -0.7860
  132OSM    C9F14220   4.953   1.944   3.351 -0.4502 -0.0795  0.0346
  132OSM    H9F14221   4.968   2.037   3.294 -1.1572  0.9084  1.4043
  132OSM   C10F14222   4.970   1.948   3.479 -0.5341  0.1069  0.4831
  132OSM   H10F14223   4.999   2.037   3.537  0.3667  1.2288 -1.5543
  132OSM   C11F14224   4.952   1.829   3.565  0.6917 -0.6275  0.1812
  132OSM   H11F14225   5.053   1.786   3.585  0.9092  1.0792  3.4258
  132OSM   H11G14226   4.878   1.761   3.517  2.0786 -0.5327 -2.2845
  132OSM   C12F14227   4.905   1.854   3.706  0.3145  0.5377 -0.7161
  132OSM   H12F14228   4.810   1.911   3.707 -1.4084 -2.1688 -0.6222
  132OSM   H12G14229   4.983   1.905   3.766 -0.7508 -0.0393  1.2508
  132OSM   C13F14230   4.883   1.717   3.777  0.3948 -0.3390 -0.4694
  132OSM   H13F14231   4.983   1.669   3.782  0.8182  0.6170  2.6741
  132OSM   H13G14232   4.815   1.648   3.724 -1.1913 -1.0328  2.2609
  132OSM   C14F14233   4.826   1.721   3.920 -0.4666 -0.1112  0.2874
  132OSM   H14F14234   4.773   1.627   3.944 -1.3679  1.1208  3.7073
  132OSM   H14G14235   4.746   1.797   3.935 -1.4188 -0.9761 -0.3427
  132OSM   C15F14236   4.942   1.744   4.021  0.5780  0.1393 -0.0407
  132OSM   H15F14237   4.974   1.849   4.008  1.9752 -0.2844 -0.1138
  132OSM   H15G14238   5.024   1.677   3.988  0.6287 -0.8810  1.9853
  132OSM   C16F14239   4.886   1.724   4.163  0.5722 -0.3710  0.1074
  132OSM   H16F14240   4.890   1.613   4.169  0.5306 -0.4858 -1.5624
  132OSM   H16G14241   4.786   1.768   4.186  0.4709 -1.4117  1.7951
  132OSM   C17F14242   4.984   1.786   4.262  0.0478  0.3765 -0.4115
  132OSM   H17F14243   4.989   1.897   4.257  0.7957  0.4586  1.5253
  132OSM   H17G14244   5.087   1.746   4.251  0.7249  1.0059  2.6324
  132OSM   C18F14245   4.931   1.739   4.402 -0.6962 -0.2718  0.1877
  132OSM   H18F14246   5.013   1.763   4.473  1.0937 -2.3775 -1.0198
  132OSM   H18G14247   4.919   1.629   4.411 -0.8366 -0.3145 -0.4675
  132OSM   H18H14248   4.832   1.780   4.429 -0.6975  0.0830 -0.3390
  133OSM      N14249   3.352   2.913   2.273 -0.1264 -0.5307 -0.5206
  133OSM    C1514250   3.312   2.883   2.413  0.0902  0.3775 -0.2731
  133OSM   H15A14251   3.206   2.902   2.423  0.1735  1.4088 -1.1303
  133OSM   H15B14252   3.366   2.938   2.488 -0.8347  0.6197  0.2339
  133OSM   H15C14253   3.325   2.779   2.436  0.8285  0.6171  0.4222
  133OSM    C1414254   3.491   2.878   2.261  0.3562  0.1033  0.0044
  133OSM   H14A14255   3.560   2.946   2.310  1.6873  0.4513 -2.2280
  133OSM   H14B14256   3.524   2.893   2.160 -0.6858  1.2155 -0.1861
  133OSM   H14C14257   3.515   2.777   2.292 -0.7722  0.2561  1.4865
  133OSM    C1314258   3.279   2.838   2.170 -0.1294  0.4066  0.7091
  133OSM   H13A14259   3.318   2.864   2.072  0.8586  0.7482  1.1767
  133OSM   H13B14260   3.172   2.845   2.174 -0.1215 -0.0632  2.0817
  133OSM   H13C14261   3.293   2.731   2.178 -0.5257  0.0282 -2.3764
  133OSM    C1214262   3.329   3.070   2.254  0.0444  0.2402 -0.6396
  133OSM   H12A14263   3.224   3.085   2.234  0.3429  1.6781 -1.2792
  133OSM   H12B14264   3.377   3.096   2.160  0.3375  2.9500  0.1872
  133OSM    C1114265   3.369   3.166   2.371 -0.5986  0.3790  0.5770
  133OSM   H11A14266   3.313   3.134   2.462  0.5246 -2.8515  0.2394
  133OSM   H11B14267   3.338   3.269   2.344 -1.7611 -0.1744 -0.2904
  133OSM      P14268   3.619   3.242   2.334 -0.2254 -0.1661 -0.2797
  133OSM    O1314269   3.751   3.178   2.359  0.2697 -0.5663  0.3200
  133OSM    O1414270   3.586   3.281   2.195  0.1726  0.3449  0.3832
  133OSM    O1114271   3.617   3.379   2.418 -0.4563  0.0789 -0.6897
  133OSM    O1214272   3.507   3.154   2.399 -0.3361 -0.1995 -0.4628
  133OSM    C1S14273   3.594   3.381   2.560  0.0816 -0.2601 -0.2576
  133OSM    H1S14274   3.560   3.281   2.594  2.3042 -0.7761  0.6218
  133OSM    H1T14275   3.518   3.458   2.585  1.7859  0.9984  1.4177
  133OSM     NF14276   3.719   3.397   2.771  0.2759  0.5261 -0.6943
  133OSM    HNF14277   3.722   3.466   2.843 -0.6557  0.2910 -0.4134
  133OSM    C2S14278   3.732   3.424   2.632  0.2199 -0.0944 -0.3885
  133OSM    H2S14279   3.808   3.354   2.592  1.9646  1.3685  0.2578
  133OSM    C3S14280   3.772   3.572   2.599  1.0417  0.2566 -0.0559
  133OSM    H3S14281   3.706   3.648   2.647  0.3755 -0.7569  0.6589
  133OSM     O314282   3.771   3.613   2.460 -0.2747 -0.6982  0.3527
  133OSM    HO314283   3.721   3.545   2.414 -1.8430  1.3522 -1.1979
  133OSM    C4S14284   3.906   3.609   2.652  0.5641 -0.1639  0.1714
  133OSM    H4S14285   3.979   3.526   2.648 -1.0101 -1.9205  3.6684
  133OSM    C5S14286   3.958   3.717   2.713  0.3746 -0.4730 -0.0704
  133OSM    H5S14287   3.894   3.806   2.715  1.2692  0.1678  0.3455
  133OSM    C6S14288   4.100   3.727   2.762  0.5473  0.1446  0.2413
  133OSM    H6S14289   4.089   3.786   2.856 -1.0010  0.0978  0.1267
  133OSM    H6T14290   4.162   3.781   2.688  0.4022 -1.6076 -1.2279
  133OSM    C7S14291   4.169   3.597   2.814  0.0417 -0.1064  0.2676
  133OSM    H7S14292   4.158   3.517   2.738  0.7103 -1.4314  1.5241
  133OSM    H7T14293   4.138   3.551   2.910  0.5391  2.0442  1.5245
  133OSM    C8S14294   4.320   3.632   2.828  0.1605 -0.2617  0.6302
  133OSM    H8S14295   4.339   3.710   2.905  1.1785 -0.5572  0.6993
  133OSM    H8T14296   4.353   3.672   2.730 -0.4564  2.7289  1.5325
  133OSM    C9S14297   4.419   3.525   2.879 -0.0677 -0.4712  0.0937
  133OSM    H9S14298   4.431   3.451   2.796  0.3776  1.1654 -1.3580
  133OSM    H9T14299   4.367   3.471   2.961 -0.3816 -0.3093  0.0026
  133OSM   C10S14300   4.557   3.580   2.928  0.1635 -0.0316 -0.1975
  133OSM   H10S14301   4.546   3.637   3.023  1.4430 -0.0091 -0.0427
  133OSM   H10T14302   4.590   3.654   2.851  1.7402  1.1311  1.5236
  133OSM   C11S14303   4.664   3.476   2.958  0.0716 -0.1734 -0.1643
  133OSM   H11S14304   4.764   3.520   2.978 -0.0842 -0.5230  1.5444
  133OSM   H11T14305   4.687   3.410   2.872  2.2410 -1.4238  1.2881
  133OSM   C12S14306   4.626   3.391   3.082 -0.3312  0.0860  0.0561
  133OSM   H12S14307   4.669   3.291   3.057  0.0527  0.0220  0.9307
  133OSM   H12T14308   4.516   3.392   3.094 -0.3148  2.1550  0.3020
  133OSM   C13S14309   4.696   3.435   3.212 -0.0938 -0.3354 -0.0290
  133OSM   H13S14310   4.653   3.527   3.258  2.6410  0.6974  0.6389
  133OSM   H13T14311   4.804   3.456   3.199 -0.0334 -1.7476 -2.3461
  133OSM   C14S14312   4.682   3.338   3.330  0.0481 -0.5907  1.5314
  133OSM   H14S14313   4.726   3.242   3.297  1.8259  1.1702 -1.8724
  133OSM   H14T14314   4.574   3.322   3.352  0.2057 -0.6575  2.2728
  133OSM   C15S14315   4.753   3.384   3.454 -0.7761 -0.5416 -0.5094
  133OSM   H15S14316   4.717   3.480   3.497  0.5666  0.6705 -1.9569
  133OSM   H15T14317   4.860   3.404   3.428 -1.3696  0.1877 -2.6035
  133OSM   C16S14318   4.754   3.280   3.573  0.0902  0.0168 -0.1200
  133OSM   H16S14319   4.823   3.198   3.546 -0.8509 -0.6135 -0.6703
  133OSM   H16T14320   4.646   3.251   3.570  0.2762 -0.6891 -2.8448
  133OSM   C17S14321   4.794   3.349   3.709 -0.1044  0.5313 -0.4629
  133OSM   H17S14322   4.712   3.423   3.715  1.1542  1.9332 -0.1201
  133OSM   H17T14323   4.896   3.392   3.713  0.1089 -0.0503  1.1124
  133OSM   C18S14324   4.794   3.257   3.827  0.3236  0.0334 -0.7687
  133OSM   H18S14325   4.827   3.315   3.917  2.9473 -1.6543 -0.5339
  133OSM   H18T14326   4.864   3.171   3.819 -0.3118 -0.4943 -0.7109
  133OSM   H18U14327   4.694   3.213   3.846  0.3000  0.9300  1.5787
  133OSM    C1F14328   3.726   3.269   2.817 -0.0818 -0.1510 -0.3504
  133OSM     OF14329   3.718   3.173   2.745 -0.1730  0.0025  0.1890
  133OSM    C2F14330   3.764   3.258   2.957 -0.7052  0.2619 -0.6531
  133OSM    H2F14331   3.674   3.283   3.017 -0.1578  2.3725 -0.6529
  133OSM    H2G14332   3.839   3.338   2.978  0.3471 -0.4763 -1.4804
  133OSM    C3F14333   3.796   3.114   3.007 -0.2680  0.3001  0.3026
  133OSM    H3F14334   3.889   3.076   2.960 -1.5644 -0.7715 -1.5048
  133OSM    H3G14335   3.710   3.047   2.985 -1.6934  2.3569 -0.6954
  133OSM    C4F14336   3.822   3.102   3.157 -0.1511 -0.2600  0.0701
  133OSM    H4F14337   3.745   3.153   3.218  1.1896  0.8203  0.9157
  133OSM    H4G14338   3.918   3.155   3.174 -0.6439 -0.2088  3.3464
  133OSM    C5F14339   3.835   2.955   3.207 -0.3528 -0.4706  0.2728
  133OSM    H5F14340   3.920   2.908   3.153 -0.0124  0.7286 -0.2746
  133OSM    H5G14341   3.742   2.898   3.187 -0.4188 -0.3106  0.1247
  133OSM    C6F14342   3.847   2.951   3.363  0.7940  0.2217 -0.3267
  133OSM    H6F14343   3.762   3.002   3.413  0.5773 -0.4371 -0.0028
  133OSM    H6G14344   3.929   3.003   3.415  0.8209 -0.7240  0.6080
  133OSM    C7F14345   3.874   2.809   3.420 -0.0279  0.7347 -0.0194
  133OSM    H7F14346   3.959   2.760   3.367 -0.0474  2.0141 -1.2604
  133OSM    H7G14347   3.788   2.748   3.385 -0.0253  0.0476  1.0958
  133OSM    C8F14348   3.883   2.798   3.574  0.6935  0.3691  0.0185
  133OSM    H8F14349   3.864   2.700   3.623 -0.0984  0.7154  0.4280
  133OSM    H8G14350   3.788   2.846   3.606  0.0077 -0.8020 -0.1834
  133OSM    C9F14351   4.009   2.849   3.634 -0.7177  0.4467 -0.1861
  133OSM    H9F14352   4.093   2.863   3.564 -0.9971  2.4054 -0.1910
  133OSM   C10F14353   4.018   2.908   3.754  0.0090  0.5557  0.4283
  133OSM   H10F14354   4.117   2.936   3.792 -0.3566  0.9608  1.1092
  133OSM   C11F14355   3.895   2.921   3.846  0.7531  0.1096  1.0846
  133OSM   H11F14356   3.856   2.825   3.885  0.2503 -0.3053 -0.3502
  133OSM   H11G14357   3.810   2.975   3.800  0.5561 -1.8279 -1.0298
  133OSM   C12F14358   3.929   3.005   3.967  0.1793 -0.0120 -0.5121
  133OSM   H12F14359   3.834   3.039   4.014  1.0991  0.2625  1.2523
  133OSM   H12G14360   3.978   3.103   3.947  1.2947 -0.4300  0.0687
  133OSM   C13F14361   3.992   2.933   4.087 -0.5297 -0.0704 -0.0052
  133OSM   H13F14362   4.094   2.899   4.062  0.8027  1.5637  2.7691
  133OSM   H13G14363   3.934   2.843   4.118  1.9858 -0.9768  2.4816
  133OSM   C14F14364   4.002   3.022   4.213  0.6194 -1.4716  0.5305
  133OSM   H14F14365   4.052   3.118   4.189 -1.3547 -0.5572 -0.2161
  133OSM   H14G14366   4.060   2.971   4.293  3.3784 -0.8467 -0.9434
  133OSM   C15F14367   3.859   3.067   4.257  0.1187  0.5570 -0.4918
  133OSM   H15F14368   3.786   2.984   4.248  0.0702  0.6935 -1.4339
  133OSM   H15G14369   3.824   3.142   4.183 -1.2380  1.3857  0.9177
  133OSM   C16F14370   3.868   3.131   4.388 -0.3301  0.2581 -0.0543
  133OSM   H16F14371   3.942   3.211   4.366 -0.3714 -0.0885 -1.5531
  133OSM   H16G14372   3.916   3.071   4.469  1.0808  0.5080 -0.6780
  133OSM   C17F14373   3.734   3.181   4.435 -0.0723 -0.0362 -0.1915
  133OSM   H17F14374   3.687   3.110   4.507  0.0878 -1.7039 -1.6606
  133OSM   H17G14375   3.659   3.209   4.358 -1.2181 -0.2888  0.7939
  133OSM   C18F14376   3.749   3.315   4.514  0.8252 -0.5925  0.0796
  133OSM   H18F14377   3.653   3.347   4.559  0.5762 -0.2708 -0.6661
  133OSM   H18G14378   3.777   3.395   4.443 -0.0829 -0.3099  0.0229
  133OSM   H18H14379   3.829   3.309   4.591 -0.2687 -1.6865  1.1896
  134OSM      N14380   3.549   3.956   2.526 -0.1701 -0.4045  0.7352
  134OSM    C1514381   3.606   3.892   2.403  0.2270 -0.0019 -0.5177
  134OSM   H15A14382   3.710   3.915   2.387  0.0246  0.3764 -1.3759
  134OSM   H15B14383   3.551   3.929   2.318  1.0554 -0.9994 -1.5214
  134OSM   H15C14384   3.586   3.786   2.395  0.7335 -0.2306  0.9899
  134OSM    C1414385   3.636   3.911   2.638  0.6774 -0.5116  0.5646
  134OSM   H14A14386   3.609   3.959   2.732  0.2753 -0.4186  0.4045
  134OSM   H14B14387   3.738   3.939   2.619  0.5396 -0.1742  0.3120
  134OSM   H14C14388   3.632   3.807   2.665 -0.6088  0.3482  4.4965
  134OSM    C1314389   3.575   4.106   2.506  0.5784 -0.2637  0.3075
  134OSM   H13A14390   3.557   4.160   2.598 -2.2784 -1.7043  0.6946
  134OSM   H13B14391   3.498   4.154   2.447 -0.0569 -1.6034  0.0206
  134OSM   H13C14392   3.675   4.121   2.469 -0.2018  0.2297 -1.7298
  134OSM    C1214393   3.403   3.916   2.535  0.2658  0.9786 -0.1702
  134OSM   H12A14394   3.352   3.957   2.621  0.8258 -0.4820  0.9065
  134OSM   H12B14395   3.404   3.809   2.551 -2.3150  1.0076  0.6120
  134OSM    C1114396   3.310   3.947   2.416 -0.2096 -0.3949  0.2393
  134OSM   H11A14397   3.208   3.907   2.437  0.3802 -0.8148  2.4819
  134OSM   H11B14398   3.353   3.891   2.330  2.4417 -0.5525  1.5734
  134OSM      P14399   3.193   4.177   2.468  0.1013 -0.0577 -0.2052
  134OSM    O1314400   3.252   4.310   2.486 -0.1626  0.1398  0.6211
  134OSM    O1414401   3.057   4.170   2.406  0.2306  0.7616  0.0053
  134OSM    O1114402   3.188   4.106   2.616 -0.0956  0.7483 -0.3802
  134OSM    O1214403   3.299   4.087   2.387 -0.5897 -0.2698  0.1930
  134OSM    C1S14404   3.073   4.119   2.699 -0.0770  0.5242 -0.0197
  134OSM    H1S14405   3.002   4.036   2.682 -1.3782  1.3222  1.2482
  134OSM    H1T14406   3.011   4.209   2.678 -1.9710 -0.3753  1.4421
  134OSM     NF14407   2.994   4.113   2.935 -0.2787  0.0362  0.3838
  134OSM    HNF14408   2.993   4.196   2.990  0.9860  0.6223 -0.4181
  134OSM    C2S14409   3.112   4.095   2.842 -0.1408  0.3442 -0.6664
  134OSM    H2S14410   3.149   3.990   2.846  1.0770  0.6921 -2.0195
  134OSM    C3S14411   3.231   4.178   2.882 -0.5674 -0.9442  0.1896
  134OSM    H3S14412   3.219   4.289   2.877  0.5888 -0.7465  1.2093
  134OSM     O314413   3.349   4.169   2.797 -0.3479 -0.1956  0.2759
  134OSM    HO314414   3.319   4.135   2.713 -0.5404  1.5616 -0.4108
  134OSM    C4S14415   3.277   4.161   3.029 -0.3085  0.3526 -0.6009
  134OSM    H4S14416   3.193   4.162   3.100  0.3747 -1.3468  0.3001
  134OSM    C5S14417   3.399   4.133   3.089  0.4401 -0.2832  0.8565
  134OSM    H5S14418   3.492   4.133   3.030  0.9188  2.4120  1.4882
  134OSM    C6S14419   3.431   4.111   3.227  0.2642  0.3867 -0.5502
  134OSM    H6S14420   3.447   4.001   3.231  0.0710  0.3653 -0.3799
  134OSM    H6T14421   3.345   4.133   3.294 -0.5674 -1.5136 -0.9146
  134OSM    C7S14422   3.557   4.198   3.264  0.7906  0.3785 -0.6417
  134OSM    H7S14423   3.515   4.301   3.273 -2.0336 -0.8556  2.3214
  134OSM    H7T14424   3.640   4.195   3.191  0.7234  0.6239 -0.7312
  134OSM    C8S14425   3.620   4.165   3.405  0.0253 -0.7903 -0.1755
  134OSM    H8S14426   3.687   4.253   3.411 -1.8624  0.6354  1.0461
  134OSM    H8T14427   3.677   4.070   3.392 -0.6830 -1.0409 -1.6758
  134OSM    C9S14428   3.524   4.163   3.521  0.2256 -0.5925  0.5513
  134OSM    H9S14429   3.463   4.072   3.503 -0.6774  0.3542 -1.5621
  134OSM    H9T14430   3.460   4.254   3.526 -0.5793 -1.2137  2.4813
  134OSM   C10S14431   3.592   4.139   3.659 -0.2108 -0.3197  0.0147
  134OSM   H10S14432   3.667   4.219   3.677 -0.6572 -0.2909  1.9774
  134OSM   H10T14433   3.645   4.044   3.639  0.1662  0.0622 -0.8723
  134OSM   C11S14434   3.501   4.126   3.780 -0.1193 -1.0374  0.3912
  134OSM   H11S14435   3.475   4.019   3.790  2.5998 -1.8519 -0.3904
  134OSM   H11T14436   3.410   4.186   3.758 -0.5746 -1.3364  1.3930
  134OSM   C12S14437   3.563   4.176   3.912 -0.6709  0.0269 -0.4363
  134OSM   H12S14438   3.598   4.281   3.905 -0.9842  0.0949 -1.1358
  134OSM   H12T14439   3.648   4.106   3.928 -0.1612  1.1106  1.9011
  134OSM   C13S14440   3.460   4.176   4.023  0.5497  0.0753  0.1218
  134OSM   H13S14441   3.403   4.082   4.009  2.2065 -0.8346 -0.6606
  134OSM   H13T14442   3.393   4.264   4.010 -0.0090 -0.0690  1.7787
  134OSM   C14S14443   3.523   4.172   4.158 -0.4197 -0.5374 -0.1738
  134OSM   H14S14444   3.614   4.236   4.153  0.3637 -1.5990  0.1263
  134OSM   H14T14445   3.573   4.077   4.185  0.7917 -0.0900 -0.7615
  134OSM   C15S14446   3.434   4.219   4.273  0.3445  0.3573  0.7089
  134OSM   H15S14447   3.431   4.329   4.292  3.3836  0.5029  0.7381
  134OSM   H15T14448   3.472   4.178   4.368 -2.3711 -1.8946  0.9620
  134OSM   C16S14449   3.283   4.169   4.271 -0.4909  0.9205  0.6599
  134OSM   H16S14450   3.282   4.058   4.278  1.6798  0.8510  0.3998
  134OSM   H16T14451   3.233   4.201   4.178 -0.9005 -2.9461 -0.6325
  134OSM   C17S14452   3.210   4.238   4.389 -0.8032  0.3607 -0.1024
  134OSM   H17S14453   3.238   4.345   4.397 -3.2035  1.1450 -1.1130
  134OSM   H17T14454   3.250   4.180   4.475 -0.8924  1.2608  0.5653
  134OSM   C18S14455   3.062   4.217   4.370 -0.6136 -0.6322 -0.4125
  134OSM   H18S14456   3.016   4.282   4.447  0.9573 -1.0628  0.9599
  134OSM   H18T14457   3.038   4.111   4.396  1.3375 -1.2382 -0.9030
  134OSM   H18U14458   3.015   4.246   4.273 -0.6598  1.9579  0.3298
  134OSM    C1F14459   2.897   4.025   2.948  0.4798  0.1941 -0.6690
  134OSM     OF14460   2.875   3.932   2.872 -0.5282 -0.0453  0.0456
  134OSM    C2F14461   2.812   4.037   3.076 -0.1230  0.3788 -0.1682
  134OSM    H2F14462   2.724   4.101   3.051 -0.5190 -0.3004 -0.5323
  134OSM    H2G14463   2.864   4.094   3.156  1.1122 -0.8168 -0.1047
  134OSM    C3F14464   2.761   3.902   3.119  0.1448  0.1190 -0.1773
  134OSM    H3F14465   2.855   3.844   3.130 -0.7958 -1.0771  2.2584
  134OSM    H3G14466   2.691   3.860   3.044  0.0677  0.5307 -0.3396
  134OSM    C4F14467   2.674   3.911   3.253  0.6565  0.5475 -0.2955
  134OSM    H4F14468   2.647   3.808   3.283  2.6499 -0.4188 -1.5810
  134OSM    H4G14469   2.582   3.970   3.233  0.1359  1.0918  3.0927
  134OSM    C5F14470   2.747   3.985   3.363 -0.6445 -0.7222 -0.2521
  134OSM    H5F14471   2.727   4.091   3.338 -1.5056 -0.9995 -0.8199
  134OSM    H5G14472   2.856   3.962   3.363 -0.1563  1.3951 -0.3848
  134OSM    C6F14473   2.686   3.951   3.498  0.7509  0.1690 -0.5539
  134OSM    H6F14474   2.701   3.846   3.530  1.6313  0.0322 -1.3359
  134OSM    H6G14475   2.577   3.964   3.487 -0.2364 -2.2451  4.0504
  134OSM    C7F14476   2.734   4.040   3.612  0.0229 -0.3367 -0.6840
  134OSM    H7F14477   2.736   4.148   3.586  4.2047  0.5567  2.2152
  134OSM    H7G14478   2.842   4.016   3.620  0.0376  0.3642  1.9981
  134OSM    C8F14479   2.673   4.017   3.752 -0.1912 -0.5271 -0.1853
  134OSM    H8F14480   2.676   3.908   3.772 -1.1847 -0.8476 -1.6391
  134OSM    H8G14481   2.571   4.061   3.749 -0.1005 -0.3297 -2.9273
  134OSM    C9F14482   2.751   4.084   3.860  0.5809  0.1185 -0.1890
  134OSM    H9F14483   2.706   4.175   3.902  0.9278 -0.5497  1.7130
  134OSM   C10F14484   2.859   4.046   3.922  0.0595 -0.2768  0.7831
  134OSM   H10F14485   2.913   4.114   3.989  0.7868 -0.0654 -0.0074
  134OSM   C11F14486   2.943   3.922   3.892  0.4662 -0.3021 -0.2007
  134OSM   H11F14487   2.891   3.864   3.812 -0.4255 -0.9309  0.8171
  134OSM   H11G14488   2.946   3.858   3.983  0.2786 -0.5118 -0.3414
  134OSM   C12F14489   3.096   3.936   3.858 -0.1062 -0.2691  0.0982
  134OSM   H12F14490   3.139   3.835   3.875  2.0199  0.4014 -0.9206
  134OSM   H12G14491   3.127   4.010   3.935 -0.6984 -0.2408  0.3121
  134OSM   C13F14492   3.137   3.968   3.707 -0.1785 -0.5799 -0.1566
  134OSM   H13F14493   3.247   3.980   3.717 -0.3093  1.8781 -1.1324
  134OSM   H13G14494   3.103   4.068   3.673  0.1499 -0.2856  0.3590
  134OSM   C14F14495   3.100   3.863   3.596  0.1546 -0.7237 -0.0204
  134OSM   H14F14496   2.990   3.850   3.588 -0.1747 -1.4199  4.0020
  134OSM   H14G14497   3.153   3.767   3.614 -2.2168 -2.6703 -2.4966
  134OSM   C15F14498   3.131   3.914   3.454  0.4192  0.8496  0.8040
  134OSM   H15F14499   3.232   3.959   3.468  0.9250 -0.5571  1.7798
  134OSM   H15G14500   3.063   3.999   3.429 -1.7265  0.0894  3.5432
  134OSM   C16F14501   3.136   3.805   3.346 -0.0501 -0.0510 -0.2002
  134OSM   H16F14502   3.037   3.755   3.348  0.2883 -0.7494  2.7793
  134OSM   H16G14503   3.216   3.733   3.373  0.3446  0.5964  0.3730
  134OSM   C17F14504   3.160   3.862   3.201  0.8674 -0.3020  0.4194
  134OSM   H17F14505   3.259   3.912   3.195  0.3205  0.6529 -1.2410
  134OSM   H17G14506   3.094   3.948   3.178  1.6848  0.5250  1.0724
  134OSM   C18F14507   3.140   3.762   3.085 -0.1988  0.0348 -0.2575
  134OSM   H18F14508   3.186   3.802   2.992 -2.6194  1.8733 -0.7557
  134OSM   H18G14509   3.033   3.743   3.062 -0.6334  1.2391  0.6560
  134OSM   H18H14510   3.197   3.675   3.125 -0.1490  0.9025  1.6803
  135OSM      N14511   5.685   6.690   2.502 -0.6933  0.3125 -0.7913
  135OSM    C1514512   5.666   6.749   2.368  0.1942 -0.4820  0.5342
  135OSM   H15A14513   5.565   6.774   2.336 -0.1403 -1.9396  0.3659
  135OSM   H15B14514   5.706   6.683   2.292 -1.5804  1.7443 -2.5765
  135OSM   H15C14515   5.716   6.845   2.367 -0.0607 -0.3042  2.0113
  135OSM    C1414516   5.617   6.550   2.511 -0.0787  0.2272  0.6312
  135OSM   H14A14517   5.644   6.483   2.430 -0.6844 -1.8417  2.0542
  135OSM   H14B14518   5.510   6.562   2.515 -0.1415 -0.5666  1.9503
  135OSM   H14C14519   5.645   6.501   2.603  0.7163 -0.9801 -0.2195
  135OSM    C1314520   5.832   6.674   2.523 -0.0546  0.4010  0.1072
  135OSM   H13A14521   5.870   6.593   2.462 -0.1163 -2.0996  3.1318
  135OSM   H13B14522   5.858   6.647   2.624 -1.3016  2.6334  1.1013
  135OSM   H13C14523   5.887   6.764   2.500  0.3738 -0.1932 -1.2712
  135OSM    C1214524   5.627   6.784   2.608  0.3576 -0.9759  0.5920
  135OSM   H12A14525   5.631   6.724   2.698 -3.0852  0.7167  2.0678
  135OSM   H12B14526   5.519   6.788   2.602  0.4594 -0.3043 -1.5180
  135OSM    C1114527   5.685   6.922   2.632  0.2133 -0.3115  0.0863
  135OSM   H11A14528   5.794   6.902   2.635  0.1421 -0.5936  1.5081
  135OSM   H11B14529   5.657   6.964   2.731 -0.1309 -0.5285  0.0831
  135OSM      P14530   5.726   7.140   2.521 -0.0230 -0.1337 -0.2658
  135OSM    O1314531   5.867   7.097   2.522  0.6821  0.1258  0.0076
  135OSM    O1414532   5.668   7.215   2.408 -0.2824  0.0724 -0.2387
  135OSM    O1114533   5.701   7.215   2.652  0.4439  0.1829  0.2807
  135OSM    O1214534   5.644   7.012   2.534 -0.2248 -0.1737  0.0804
  135OSM    C1S14535   5.578   7.225   2.725 -0.4407 -0.6991 -0.8458
  135OSM    H1S14536   5.511   7.149   2.679  1.3409 -2.3487 -0.8573
  135OSM    H1T14537   5.526   7.321   2.703 -0.9472 -0.8337 -0.2769
  135OSM     NF14538   5.460   7.161   2.926  0.2787  0.1713 -0.4514
  135OSM    HNF14539   5.412   7.237   2.970 -0.0555 -0.3412  0.0948
  135OSM    C2S14540   5.589   7.194   2.875 -0.4679  0.0992 -0.2463
  135OSM    H2S14541   5.652   7.103   2.881  0.4546  0.5279 -2.2772
  135OSM    C3S14542   5.665   7.311   2.943 -0.5038 -0.0471  0.3779
  135OSM    H3S14543   5.611   7.407   2.925 -1.9189 -0.6664  1.2048
  135OSM     O314544   5.788   7.345   2.884  0.2645 -0.6256 -0.8007
  135OSM    HO314545   5.791   7.278   2.815  0.4219 -1.3354 -0.1302
  135OSM    C4S14546   5.685   7.287   3.090 -0.0263 -0.5149 -0.3783
  135OSM    H4S14547   5.751   7.200   3.105  3.0271  2.1100  3.1207
  135OSM    C5S14548   5.614   7.337   3.194 -0.0193 -0.2739  0.5192
  135OSM    H5S14549   5.533   7.404   3.159  1.1616 -0.3587 -2.7030
  135OSM    C6S14550   5.619   7.279   3.325  0.2469  0.6913  0.0855
  135OSM    H6S14551   5.720   7.235   3.341 -0.9676 -3.1220 -1.5861
  135OSM    H6T14552   5.545   7.198   3.342  2.0125 -0.8495  0.8062
  135OSM    C7S14553   5.608   7.386   3.438 -0.2528 -0.2723 -0.1132
  135OSM    H7S14554   5.512   7.439   3.421  0.9965  1.6177 -1.8117
  135OSM    H7T14555   5.691   7.459   3.422 -1.4693  1.5311  1.3022
  135OSM    C8S14556   5.611   7.348   3.582 -0.0291  0.0524  0.4926
  135OSM    H8S14557   5.684   7.267   3.605 -1.6200 -1.8541 -0.8103
  135OSM    H8T14558   5.510   7.313   3.612  0.1249 -0.4434  0.4455
  135OSM    C9S14559   5.635   7.466   3.677 -0.1806  0.3990  0.4151
  135OSM    H9S14560   5.567   7.549   3.649 -0.4479 -0.3084 -1.1450
  135OSM    H9T14561   5.737   7.502   3.648 -0.7122  1.3399 -0.3455
  135OSM   C10S14562   5.626   7.430   3.825 -0.2450 -0.1765  0.5201
  135OSM   H10S14563   5.652   7.514   3.892  2.7980  0.8231 -1.7213
  135OSM   H10T14564   5.691   7.342   3.844  0.3449  0.3360  0.9078
  135OSM   C11S14565   5.491   7.377   3.874  0.7888 -0.0245 -0.1055
  135OSM   H11S14566   5.479   7.273   3.837 -0.5098 -0.5081  1.5420
  135OSM   H11T14567   5.404   7.434   3.834  0.5232 -1.0030 -0.9829
  135OSM   C12S14568   5.471   7.377   4.027 -0.3603  0.2725  0.6998
  135OSM   H12S14569   5.535   7.464   4.053  0.0499  0.4435 -0.7678
  135OSM   H12T14570   5.528   7.287   4.059 -0.0201  0.1922 -0.0795
  135OSM   C13S14571   5.335   7.362   4.088  1.2026 -0.4629 -0.2377
  135OSM   H13S14572   5.303   7.259   4.062  0.7606 -0.2053 -0.7398
  135OSM   H13T14573   5.268   7.441   4.047  0.7077  0.2670  1.8465
  135OSM   C14S14574   5.336   7.380   4.245  0.1065 -0.2999  0.7846
  135OSM   H14S14575   5.390   7.475   4.260 -0.5832 -0.2968  3.9458
  135OSM   H14T14576   5.392   7.292   4.284 -0.4519 -0.5547  1.0296
  135OSM   C15S14577   5.203   7.379   4.319 -0.4568 -0.9549  0.3480
  135OSM   H15S14578   5.146   7.290   4.285  0.5871 -1.1431 -0.9769
  135OSM   H15T14579   5.137   7.467   4.308 -0.3020 -0.0236  4.7742
  135OSM   C16S14580   5.217   7.353   4.471 -0.1197 -0.7053 -0.8576
  135OSM   H16S14581   5.264   7.438   4.524 -2.1670 -0.2949  0.4315
  135OSM   H16T14582   5.287   7.268   4.484  0.4862  0.1661  2.4283
  135OSM   C17S14583   5.082   7.332   4.537  0.3125  0.1794  0.1208
  135OSM   H17S14584   5.028   7.251   4.483  0.0441 -0.8959  1.8918
  135OSM   H17T14585   5.018   7.421   4.519 -1.5995 -1.5228 -2.1967
  135OSM   C18S14586   5.092   7.287   4.680  0.2846  0.5634  0.3579
  135OSM   H18S14587   5.178   7.217   4.692  1.1873  1.3088 -1.3850
  135OSM   H18T14588   5.003   7.223   4.703  0.9513 -1.7322 -2.7375
  135OSM   H18U14589   5.088   7.372   4.751 -1.0895 -1.0872  2.3902
  135OSM    C1F14590   5.393   7.050   2.891  0.1963  0.2027 -0.4067
  135OSM     OF14591   5.435   6.957   2.824 -0.3442 -0.0764  0.0414
  135OSM    C2F14592   5.254   7.039   2.950  0.1696  0.2424  0.5875
  135OSM    H2F14593   5.184   6.982   2.885  0.9010 -0.2739  0.2354
  135OSM    H2G14594   5.216   7.142   2.961 -0.6467  0.5789 -3.6995
  135OSM    C3F14595   5.259   6.956   3.079  0.1780 -0.3502 -0.2216
  135OSM    H3F14596   5.324   6.997   3.159  0.3372  1.9365 -1.4358
  135OSM    H3G14597   5.303   6.858   3.053  1.1986 -0.4064  1.5311
  135OSM    C4F14598   5.111   6.931   3.137 -0.2972 -0.1838  0.0613
  135OSM    H4F14599   5.071   6.877   3.049  0.9241  2.2065 -2.0846
  135OSM    H4G14600   5.060   7.028   3.158  0.0467  0.1713 -0.6974
  135OSM    C5F14601   5.106   6.864   3.271 -0.0265  0.9251  0.7161
  135OSM    H5F14602   5.118   6.754   3.265 -0.5940  0.8777  0.4464
  135OSM    H5G14603   5.001   6.872   3.305 -0.8250 -1.5256 -0.9237
  135OSM    C6F14604   5.199   6.922   3.377 -0.0045 -0.0396  0.5046
  135OSM    H6F14605   5.308   6.923   3.354  0.3333  0.7243  1.9709
  135OSM    H6G14606   5.185   6.850   3.461 -1.7786  0.7164  0.9065
  135OSM    C7F14607   5.153   7.063   3.422  0.0919 -0.9574  0.0658
  135OSM    H7F14608   5.044   7.055   3.442  0.1747  0.1653  1.0099
  135OSM    H7G14609   5.165   7.141   3.344 -0.8328 -2.0854 -1.2620
  135OSM    C8F14610   5.217   7.106   3.556  0.2048 -0.5585 -0.3228
  135OSM    H8F14611   5.310   7.157   3.524 -0.7278  0.5912 -1.3072
  135OSM    H8G14612   5.245   7.015   3.615 -1.6531 -0.7942  0.2501
  135OSM    C9F14613   5.140   7.208   3.629  0.1766  0.5358 -0.9492
  135OSM    H9F14614   5.171   7.308   3.596 -0.5369  0.6623 -1.2702
  135OSM   C10F14615   5.051   7.174   3.725 -0.2858 -0.2171  0.8890
  135OSM   H10F14616   4.989   7.258   3.760 -3.9679 -2.5161  0.5308
  135OSM   C11F14617   5.001   7.030   3.763 -0.4864 -0.3765 -0.1831
  135OSM   H11F14618   4.985   6.978   3.666  2.2940  0.2193 -1.0690
  135OSM   H11G14619   4.902   7.030   3.813 -1.5523  2.9045 -1.9894
  135OSM   C12F14620   5.084   6.943   3.860  0.3597 -0.2941  0.2463
  135OSM   H12F14621   5.188   6.930   3.822  1.2061  1.4897  1.7574
  135OSM   H12G14622   5.041   6.841   3.852  1.2964 -0.6763 -0.0971
  135OSM   C13F14623   5.082   6.986   4.009 -0.0961 -0.0751 -0.0988
  135OSM   H13F14624   4.978   6.982   4.049 -0.6085  3.7514 -0.7202
  135OSM   H13G14625   5.103   7.095   4.017 -0.0091 -0.0505 -0.6534
  135OSM   C14F14626   5.190   6.917   4.096 -0.7013 -0.4779 -0.8899
  135OSM   H14F14627   5.292   6.934   4.055 -0.3672 -0.1036  0.0747
  135OSM   H14G14628   5.172   6.807   4.097  0.2168 -0.6420  0.3744
  135OSM   C15F14629   5.191   6.969   4.244 -0.5106  0.6530 -0.1651
  135OSM   H15F14630   5.102   6.935   4.302 -1.4539 -1.2444 -2.5591
  135OSM   H15G14631   5.212   7.078   4.250 -0.2391  0.8539 -3.2999
  135OSM   C16F14632   5.314   6.904   4.314 -0.3300 -0.3295 -0.2516
  135OSM   H16F14633   5.413   6.908   4.264  0.4523 -3.6695  0.7629
  135OSM   H16G14634   5.288   6.796   4.324  0.5339 -0.7161 -1.7808
  135OSM   C17F14635   5.333   6.962   4.463 -0.0346  0.7457  0.0311
  135OSM   H17F14636   5.374   7.062   4.440  2.7980 -0.5489 -1.0946
  135OSM   H17G14637   5.418   6.907   4.510 -1.4073  0.0209  1.7926
  135OSM   C18F14638   5.210   6.951   4.545 -0.3673 -0.4494  0.3493
  135OSM   H18F14639   5.174   6.845   4.542 -1.1450 -0.2161  0.9487
  135OSM   H18G14640   5.134   7.021   4.506  0.0935 -0.5149 -0.6852
  135OSM   H18H14641   5.217   6.980   4.652 -2.1131 -1.4127  0.7667
  136OSM      N14642   0.674   3.778   2.495 -0.4476 -0.4309  0.3114
  136OSM    C1514643   0.816   3.734   2.471  0.1989 -0.5303 -0.1192
  136OSM   H15A14644   0.840   3.730   2.366 -0.9784  1.7399 -0.5393
  136OSM   H15B14645   0.826   3.638   2.520 -0.7131 -1.7720 -2.2002
  136OSM   H15C14646   0.867   3.812   2.524  0.8991 -1.7478  1.0361
  136OSM    C1414647   0.670   3.803   2.644  0.1246 -0.5164 -1.3111
  136OSM   H14A14648   0.729   3.888   2.674 -4.8274  2.0911  2.6581
  136OSM   H14B14649   0.703   3.717   2.701 -2.7884 -1.9181 -1.5076
  136OSM   H14C14650   0.571   3.831   2.677  0.2649 -0.0180 -1.3061
  136OSM    C1314651   0.650   3.902   2.420  0.1819 -0.1647  0.6519
  136OSM   H13A14652   0.697   3.992   2.458 -2.0985  1.8036 -0.8233
  136OSM   H13B14653   0.545   3.929   2.428 -0.2391 -0.9509 -1.4947
  136OSM   H13C14654   0.669   3.904   2.314 -1.1846  1.6766  0.3855
  136OSM    C1214655   0.578   3.667   2.455 -0.2529 -1.1914 -0.5337
  136OSM   H12A14656   0.600   3.570   2.498  0.1261 -1.0115 -0.3256
  136OSM   H12B14657   0.590   3.666   2.347  0.6799  0.3134 -0.4711
  136OSM    C1114658   0.431   3.699   2.488 -0.4650  0.1083  0.0200
  136OSM   H11A14659   0.396   3.803   2.467  3.3290  1.7094  0.8356
  136OSM   H11B14660   0.426   3.693   2.599  2.9802  3.3221  0.5594
  136OSM      P14661   0.250   3.510   2.460 -0.1511  0.0349 -0.0397
  136OSM    O1314662   0.176   3.592   2.566  1.0832  0.2321 -0.0614
  136OSM    O1414663   0.181   3.462   2.338  0.5479 -0.0570 -0.5338
  136OSM    O1114664   0.328   3.391   2.533 -0.3022 -0.3707 -0.2304
  136OSM    O1214665   0.369   3.599   2.410  0.2224 -0.0191 -0.2787
  136OSM    C1S14666   0.299   3.377   2.675 -0.6460 -0.0291  0.2783
  136OSM    H1S14667   0.196   3.338   2.695 -0.5331 -0.5040 -0.0375
  136OSM    H1T14668   0.308   3.471   2.732 -1.6207 -0.3730  1.0390
  136OSM     NF14669   0.359   3.262   2.878  0.4136 -0.0831  0.5246
  136OSM    HNF14670   0.407   3.304   2.955  1.4924 -1.2371  0.5111
  136OSM    C2S14671   0.404   3.291   2.744  0.7442  0.9059  0.3210
  136OSM    H2S14672   0.416   3.192   2.694  1.1951 -0.1000  2.3131
  136OSM    C3S14673   0.541   3.350   2.741  1.0136  0.1888 -0.0910
  136OSM    H3S14674   0.527   3.441   2.802  3.3186  0.6551 -0.1526
  136OSM     O314675   0.582   3.400   2.616 -0.1722  0.6040  0.1397
  136OSM    HO314676   0.498   3.398   2.569 -0.7566  0.1540  1.1681
  136OSM    C4S14677   0.647   3.265   2.806  0.6979  0.8380  0.8288
  136OSM    H4S14678   0.676   3.177   2.747  0.3355  1.1568  0.1640
  136OSM    C5S14679   0.719   3.310   2.907  0.1829 -0.2939 -0.4667
  136OSM    H5S14680   0.710   3.419   2.922 -0.7999 -0.1168 -2.1255
  136OSM    C6S14681   0.844   3.247   2.957 -0.0292  0.2837  0.2715
  136OSM    H6S14682   0.921   3.327   2.963 -0.5765  1.0481 -1.8967
  136OSM    H6T14683   0.882   3.174   2.883 -1.2928 -0.8924  0.7501
  136OSM    C7S14684   0.823   3.161   3.076  1.0508 -0.2912 -0.0599
  136OSM    H7S14685   0.787   3.218   3.164  1.2909 -1.2056  0.6475
  136OSM    H7T14686   0.927   3.132   3.103  0.5830 -2.0508 -0.0046
  136OSM    C8S14687   0.733   3.041   3.058 -0.0388 -0.5187 -0.0639
  136OSM    H8S14688   0.776   2.983   2.974 -1.7718 -0.3817 -1.0929
  136OSM    H8T14689   0.634   3.072   3.019  0.9493  3.7994  0.3686
  136OSM    C9S14690   0.729   2.959   3.190  0.1423  0.5017 -0.6742
  136OSM    H9S14691   0.632   2.906   3.202 -0.5940  1.6321 -1.4511
  136OSM    H9T14692   0.744   3.027   3.277  0.5109 -1.1564  0.6117
  136OSM   C10S14693   0.836   2.850   3.190 -0.1120  0.4173  0.1987
  136OSM   H10S14694   0.936   2.899   3.189  1.2646 -2.2139 -0.6514
  136OSM   H10T14695   0.818   2.800   3.092  1.5504 -0.3944  0.2736
  136OSM   C11S14696   0.827   2.753   3.310 -0.3025 -0.0329  0.4315
  136OSM   H11S14697   0.917   2.687   3.307 -0.0490  0.2875  0.8513
  136OSM   H11T14698   0.737   2.691   3.292 -1.7491  2.0063  0.3982
  136OSM   C12S14699   0.823   2.820   3.444 -0.2126 -0.8420  0.1294
  136OSM   H12S14700   0.725   2.871   3.453 -0.0752 -0.6728  0.7188
  136OSM   H12T14701   0.903   2.896   3.457 -0.2191 -0.7548 -0.3452
  136OSM   C13S14702   0.830   2.727   3.566  0.3749  0.4982  0.1610
  136OSM   H13S14703   0.931   2.680   3.564  1.0525  1.9152 -1.8129
  136OSM   H13T14704   0.766   2.637   3.553 -0.0260  0.9836 -1.4888
  136OSM   C14S14705   0.797   2.802   3.694 -0.1887 -0.1963 -0.1751
  136OSM   H14S14706   0.692   2.837   3.702  0.0581  0.2809  1.2795
  136OSM   H14T14707   0.871   2.884   3.692  0.3617 -0.6861 -0.2710
  136OSM   C15S14708   0.828   2.724   3.824 -0.1598  0.1498  0.1772
  136OSM   H15S14709   0.931   2.687   3.806 -0.0433  0.6003 -0.0981
  136OSM   H15T14710   0.762   2.637   3.846  0.0411  0.0910  0.5516
  136OSM   C16S14711   0.831   2.810   3.948  0.5879 -0.4299  0.1337
  136OSM   H16S14712   0.725   2.819   3.982  0.6027 -0.4234  0.1784
  136OSM   H16T14713   0.863   2.914   3.927 -3.7109  1.0000 -0.3209
  136OSM   C17S14714   0.902   2.746   4.057 -0.6339 -0.1169 -0.4634
  136OSM   H17S14715   1.013   2.747   4.051 -0.4860 -0.2724  1.5722
  136OSM   H17T14716   0.886   2.637   4.050  2.6804 -0.9445  2.0289
  136OSM   C18S14717   0.854   2.793   4.189 -0.2811 -0.0042  0.1473
  136OSM   H18S14718   0.877   2.899   4.212  0.7935  0.1255 -1.3134
  136OSM   H18T14719   0.903   2.728   4.265 -1.5383 -1.4742 -0.2549
  136OSM   H18U14720   0.746   2.774   4.201 -0.0642 -2.6018 -1.2714
  136OSM    C1F14721   0.255   3.191   2.915  0.2511 -0.0298 -0.0154
  136OSM     OF14722   0.180   3.150   2.827 -0.1306 -0.1730  0.0825
  136OSM    C2F14723   0.233   3.175   3.060 -0.3525  0.2036 -0.2837
  136OSM    H2F14724   0.207   3.068   3.078 -3.4276  0.9038 -0.0452
  136OSM    H2G14725   0.136   3.220   3.092 -1.1238 -1.3933 -0.2522
  136OSM    C3F14726   0.361   3.193   3.150  0.2570  0.7447  0.5488
  136OSM    H3F14727   0.390   3.300   3.151  1.3824  0.4550  0.9883
  136OSM    H3G14728   0.437   3.132   3.097 -0.0622  0.1022  0.8291
  136OSM    C4F14729   0.325   3.136   3.294 -0.0776 -0.0416 -0.1042
  136OSM    H4F14730   0.280   3.035   3.284  0.9336 -0.4453 -0.7062
  136OSM    H4G14731   0.254   3.211   3.335  0.5010  0.0993  0.6742
  136OSM    C5F14732   0.447   3.139   3.390  0.1143  0.2287  0.2574
  136OSM    H5F14733   0.499   3.237   3.383  0.6662 -0.0738  0.1018
  136OSM    H5G14734   0.522   3.065   3.356  0.9523 -0.3322  3.0839
  136OSM    C6F14735   0.416   3.106   3.538 -0.0450  0.4764  0.6615
  136OSM    H6F14736   0.384   3.000   3.551  2.1064 -0.2963  0.0225
  136OSM    H6G14737   0.322   3.154   3.573 -1.3915 -1.1886 -0.4998
  136OSM    C7F14738   0.526   3.145   3.640  0.3338 -0.0719  0.2698
  136OSM    H7F14739   0.531   3.255   3.649 -1.4188  0.1483 -1.0688
  136OSM    H7G14740   0.629   3.118   3.607  0.2532 -0.1002  0.0392
  136OSM    C8F14741   0.504   3.081   3.775 -0.2087  0.3578  0.0131
  136OSM    H8F14742   0.489   2.973   3.750 -1.4673  0.8703 -1.7167
  136OSM    H8G14743   0.407   3.113   3.820 -0.9684 -2.6840  0.7980
  136OSM    C9F14744   0.612   3.098   3.878 -0.0032  0.4743  0.2330
  136OSM    H9F14745   0.708   3.051   3.853 -0.2372  0.0004  0.2068
  136OSM   C10F14746   0.604   3.156   4.003  0.3046  0.3210 -0.5874
  136OSM   H10F14747   0.688   3.144   4.073  0.6120 -2.6258 -1.3040
  136OSM   C11F14748   0.480   3.219   4.062  0.2850 -0.3989 -0.0487
  136OSM   H11F14749   0.385   3.202   4.006 -0.4988  1.0565  0.7521
  136OSM   H11G14750   0.491   3.328   4.081 -4.6910  0.6399 -1.6413
  136OSM   C12F14751   0.440   3.171   4.211  0.1749 -0.0429  0.1642
  136OSM   H12F14752   0.339   3.199   4.250  0.9157  0.2577  2.0044
  136OSM   H12G14753   0.510   3.215   4.286 -0.6460 -0.8132  1.4267
  136OSM   C13F14754   0.437   3.015   4.236  0.0788  0.2307 -1.1640
  136OSM   H13F14755   0.537   2.973   4.212 -0.0468  0.5218 -2.2883
  136OSM   H13G14756   0.366   2.979   4.157  0.3558  0.4790 -1.5279
  136OSM   C14F14757   0.380   2.971   4.367 -0.1519  0.2148  0.2402
  136OSM   H14F14758   0.276   3.010   4.378 -0.1344 -0.3258  3.0349
  136OSM   H14G14759   0.448   2.996   4.451 -2.3260  0.7463  1.9409
  136OSM   C15F14760   0.372   2.815   4.372  0.6388  0.9093 -0.4193
  136OSM   H15F14761   0.472   2.770   4.385 -0.1054 -0.5728  0.4775
  136OSM   H15G14762   0.336   2.774   4.275 -2.9802 -0.0782  1.1563
  136OSM   C16F14763   0.270   2.776   4.478 -0.6841 -0.2826  0.6601
  136OSM   H16F14764   0.189   2.852   4.471  0.4233  0.9726  0.9097
  136OSM   H16G14765   0.325   2.784   4.574  2.2628  1.6924 -1.0051
  136OSM   C17F14766   0.218   2.631   4.454  1.0789 -0.9919 -0.1204
  136OSM   H17F14767   0.184   2.634   4.348  0.3706 -0.3860  0.1125
  136OSM   H17G14768   0.130   2.616   4.519  2.1526  0.2557  1.7155
  136OSM   C18F14769   0.314   2.514   4.469 -0.2487  0.4524 -0.3753
  136OSM   H18F14770   0.405   2.519   4.406  0.1168  0.0411  0.1049
  136OSM   H18G14771   0.260   2.419   4.450  1.2732 -0.3345 -0.9829
  136OSM   H18H14772   0.352   2.507   4.574 -2.4051  1.5005  0.5275
  137OSM      N14773   5.508   1.159   2.474 -0.9544 -0.0343 -0.0568
  137OSM    C1514774   5.587   1.044   2.424  0.3085 -0.3669  1.1226
  137OSM   H15A14775   5.559   1.016   2.324  0.7014 -0.5199  1.0529
  137OSM   H15B14776   5.544   0.960   2.477 -0.6697 -0.8837 -0.4342
  137OSM   H15C14777   5.693   1.052   2.444  0.3130 -0.8690  1.3360
  137OSM    C1414778   5.555   1.186   2.604 -0.0674  0.5392 -0.5128
  137OSM   H14A14779   5.504   1.267   2.654 -1.6339 -0.6717 -0.0337
  137OSM   H14B14780   5.662   1.201   2.607  0.0092  0.0309 -0.5958
  137OSM   H14C14781   5.526   1.102   2.667 -1.3303 -1.2509 -3.2870
  137OSM    C1314782   5.535   1.282   2.386  0.0216  0.2780 -0.7448
  137OSM   H13A14783   5.521   1.371   2.445 -0.0418  0.5224 -1.1220
  137OSM   H13B14784   5.476   1.289   2.296 -1.7331  0.4655  0.3655
  137OSM   H13C14785   5.640   1.270   2.365 -0.3569 -0.1811 -2.6240
  137OSM    C1214786   5.369   1.123   2.469 -0.1343  0.0143  0.2106
  137OSM   H12A14787   5.348   1.123   2.363 -0.5518 -2.9404  0.2081
  137OSM   H12B14788   5.312   1.207   2.505 -0.3847 -0.1837  0.2801
  137OSM    C1114789   5.327   0.989   2.544 -0.0955 -0.4102  0.2171
  137OSM   H11A14790   5.217   0.998   2.528  0.0281  1.9978  0.4559
  137OSM   H11B14791   5.350   1.012   2.650 -0.9861  1.8947 -0.0235
  137OSM      P14792   5.414   0.729   2.565  0.1530  0.3874  0.1443
  137OSM    O1314793   5.300   0.634   2.569  0.7991 -0.5738  0.2669
  137OSM    O1414794   5.537   0.685   2.503  0.1138  0.5700 -0.2449
  137OSM    O1114795   5.448   0.778   2.712  0.3820 -0.6953 -0.8193
  137OSM    O1214796   5.373   0.863   2.487 -0.2081 -0.4803 -0.2353
  137OSM    C1S14797   5.353   0.778   2.822  0.7248  0.5202 -0.0317
  137OSM    H1S14798   5.283   0.693   2.809  0.0175  1.1688 -0.5582
  137OSM    H1T14799   5.277   0.858   2.811 -0.8042 -0.9108 -0.3582
  137OSM     NF14800   5.327   0.745   3.053 -0.0627 -0.2457 -0.3898
  137OSM    HNF14801   5.268   0.821   3.081 -0.6066 -0.8126  0.0217
  137OSM    C2S14802   5.426   0.778   2.957 -0.7383 -0.7863 -0.1495
  137OSM    H2S14803   5.509   0.704   2.960 -1.9636 -2.2130 -0.1910
  137OSM    C3S14804   5.499   0.915   2.972  0.2919 -1.1025 -0.0799
  137OSM    H3S14805   5.409   0.979   2.974 -0.8024 -2.5257  2.9455
  137OSM     O314806   5.579   0.946   2.861 -0.5562 -0.1013 -0.0579
  137OSM    HO314807   5.548   0.883   2.795 -1.6454 -0.2003  0.5360
  137OSM    C4S14808   5.578   0.923   3.105  0.7625 -0.3638 -0.4270
  137OSM    H4S14809   5.520   0.963   3.189  1.9404 -0.0560  0.2642
  137OSM    C5S14810   5.702   0.892   3.137 -0.0114  0.2594 -0.1628
  137OSM    H5S14811   5.758   0.856   3.050 -0.6970  1.3937 -1.0972
  137OSM    C6S14812   5.779   0.888   3.263  0.2599 -0.6471 -0.1181
  137OSM    H6S14813   5.874   0.943   3.245 -0.2016  0.0711 -0.4122
  137OSM    H6T14814   5.803   0.781   3.283 -1.1973 -0.7829  1.0214
  137OSM    C7S14815   5.698   0.940   3.381 -0.2386  0.1852 -0.5824
  137OSM    H7S14816   5.624   0.868   3.420 -0.1571  1.3758  2.0120
  137OSM    H7T14817   5.660   1.044   3.373  2.2590  1.2289 -0.1063
  137OSM    C8S14818   5.798   0.945   3.507 -0.4223  0.5754  0.5130
  137OSM    H8S14819   5.876   1.022   3.487 -1.0156  1.2784  0.8308
  137OSM    H8T14820   5.856   0.851   3.499  1.6063  1.8903 -1.4840
  137OSM    C9S14821   5.733   0.959   3.649  0.3654 -0.4800  0.0936
  137OSM    H9S14822   5.666   0.876   3.681  0.9720 -0.2440  2.1663
  137OSM    H9T14823   5.671   1.050   3.645 -0.9226 -1.3888 -2.0104
  137OSM   C10S14824   5.831   0.963   3.757 -0.0584  0.2814 -0.0114
  137OSM   H10S14825   5.897   1.048   3.731 -0.2225  1.1880  2.3328
  137OSM   H10T14826   5.888   0.870   3.779 -0.6318  0.1588  0.9793
  137OSM   C11S14827   5.766   1.006   3.883 -0.2517  0.2990  0.0773
  137OSM   H11S14828   5.694   0.930   3.921  0.2303 -1.0221 -1.5314
  137OSM   H11T14829   5.705   1.095   3.858  0.8635  0.7716 -1.0521
  137OSM   C12S14830   5.869   1.038   3.998  0.3570  0.0901  0.2057
  137OSM   H12S14831   5.932   1.126   3.971  0.7899 -0.3636 -0.2699
  137OSM   H12T14832   5.925   0.943   4.009 -0.8326 -0.6791 -0.1478
  137OSM   C13S14833   5.813   1.069   4.140  0.2539  0.5698  0.1915
  137OSM   H13S14834   5.723   1.005   4.150 -0.7979  1.9192 -0.2934
  137OSM   H13T14835   5.768   1.169   4.156  0.1739  0.0445  4.4985
  137OSM   C14S14836   5.915   1.052   4.254  0.5832 -0.1769 -0.2406
  137OSM   H14S14837   6.001   1.116   4.226  0.4334 -1.2444 -3.5403
  137OSM   H14T14838   5.945   0.945   4.262 -1.6004 -0.8660 -0.6147
  137OSM   C15S14839   5.857   1.104   4.392 -0.4841  0.1951  0.1908
  137OSM   H15S14840   5.773   1.045   4.432 -0.6207  1.7869  2.4765
  137OSM   H15T14841   5.807   1.201   4.369 -0.0936 -0.3310 -3.5352
  137OSM   C16S14842   5.960   1.114   4.503 -0.8099 -0.0457 -0.1475
  137OSM   H16S14843   6.041   1.184   4.477  0.0799 -1.3102 -0.8568
  137OSM   H16T14844   6.009   1.016   4.521 -2.0991 -0.9055 -1.1661
  137OSM   C17S14845   5.899   1.167   4.634  0.2410  0.1696 -0.1265
  137OSM   H17S14846   5.852   1.081   4.685  0.5610 -1.1415 -1.9374
  137OSM   H17T14847   5.815   1.238   4.615 -1.1968 -1.1159  1.1848
  137OSM   C18S14848   6.009   1.244   4.713  0.0607  0.3400 -1.0838
  137OSM   H18S14849   5.974   1.262   4.817 -0.3774  0.2302 -1.2082
  137OSM   H18T14850   6.042   1.339   4.665  1.1174  0.3187 -0.4468
  137OSM   H18U14851   6.102   1.186   4.733 -0.5872 -0.2228  0.4288
  137OSM    C1F14852   5.292   0.621   3.077 -0.3638  0.0074  0.3535
  137OSM     OF14853   5.348   0.527   3.020 -0.5073  0.1705 -0.1567
  137OSM    C2F14854   5.189   0.591   3.183 -0.0837 -0.2124 -0.5443
  137OSM    H2F14855   5.210   0.496   3.237 -0.1392  1.8322  3.4677
  137OSM    H2G14856   5.095   0.578   3.127  1.2155  0.9482 -3.1730
  137OSM    C3F14857   5.167   0.696   3.296 -0.1971 -0.0525  0.1704
  137OSM    H3F14858   5.090   0.650   3.361  0.9920  1.0559  2.4756
  137OSM    H3G14859   5.117   0.786   3.252  1.9234  1.4088  0.5720
  137OSM    C4F14860   5.284   0.735   3.382 -0.3479  0.1573 -0.1736
  137OSM    H4F14861   5.375   0.761   3.323 -0.6143  0.6920 -0.3530
  137OSM    H4G14862   5.321   0.650   3.443  0.6451 -0.5799 -1.7345
  137OSM    C5F14863   5.257   0.856   3.480 -0.2489 -0.1396  0.6561
  137OSM    H5F14864   5.227   0.949   3.427 -0.7120 -0.3723  0.4977
  137OSM    H5G14865   5.352   0.882   3.531 -0.8091  0.9581  1.1720
  137OSM    C6F14866   5.152   0.822   3.583 -0.2510  0.1037 -1.3325
  137OSM    H6F14867   5.193   0.734   3.638 -0.1046 -0.2753 -2.0361
  137OSM    H6G14868   5.063   0.796   3.522  2.5695 -0.9296 -5.4663
  137OSM    C7F14869   5.132   0.940   3.672 -0.1154 -0.2863  0.5209
  137OSM    H7F14870   5.046   0.907   3.734 -2.5201 -2.1657 -3.4630
  137OSM    H7G14871   5.099   1.027   3.613  0.0704  0.6729  1.7909
  137OSM    C8F14872   5.252   0.982   3.760  0.3123  0.4254  0.3223
  137OSM    H8F14873   5.222   1.062   3.831 -0.7596 -0.0193  0.3880
  137OSM    H8G14874   5.332   1.027   3.697 -0.9099  0.9328 -0.9408
  137OSM    C9F14875   5.307   0.864   3.841 -0.5673 -0.2039 -0.1382
  137OSM    H9F14876   5.347   0.777   3.786 -0.3347 -0.4897  0.4754
  137OSM   C10F14877   5.320   0.855   3.977  0.7061  0.4613 -0.3113
  137OSM   H10F14878   5.359   0.760   4.017  1.9558  0.1116 -2.2063
  137OSM   C11F14879   5.256   0.951   4.075 -0.6405 -0.6014 -0.2910
  137OSM   H11F14880   5.165   1.005   4.041 -0.6187 -0.0607  0.4918
  137OSM   H11G14881   5.327   1.035   4.089 -3.2403  1.7312 -0.3432
  137OSM   C12F14882   5.212   0.866   4.191 -0.2015  0.0568 -0.0782
  137OSM   H12F14883   5.289   0.789   4.212 -0.4601 -0.2227 -0.1567
  137OSM   H12G14884   5.113   0.819   4.172 -1.9000  2.8595  1.2393
  137OSM   C13F14885   5.188   0.955   4.309 -0.1570  0.4929 -0.1595
  137OSM   H13F14886   5.095   1.012   4.289 -0.7041 -0.0274  0.8402
  137OSM   H13G14887   5.274   1.025   4.318 -0.1142  0.2908  1.2037
  137OSM   C14F14888   5.176   0.868   4.433 -0.0677  0.3071 -0.2358
  137OSM   H14F14889   5.262   0.798   4.429 -0.3231 -0.0467  0.4117
  137OSM   H14G14890   5.080   0.813   4.421 -0.2333  0.1896  1.3537
  137OSM   C15F14891   5.169   0.947   4.568  0.1041  0.3125 -0.2944
  137OSM   H15F14892   5.090   1.024   4.561 -0.0313  0.2971  0.8744
  137OSM   H15G14893   5.265   1.003   4.569 -0.0607  0.6263 -1.1514
  137OSM   C16F14894   5.150   0.842   4.683 -0.2240 -0.0033  0.6304
  137OSM   H16F14895   5.247   0.788   4.686  0.0673  0.3765 -1.1696
  137OSM   H16G14896   5.074   0.766   4.656  1.3882 -0.9402 -1.5783
  137OSM   C17F14897   5.123   0.902   4.820 -1.0219  0.3577 -0.2083
  137OSM   H17F14898   5.099   0.822   4.893  0.8648 -0.0173  0.0524
  137OSM   H17G14899   5.028   0.958   4.805 -0.5094  1.2795 -0.1364
  137OSM   C18F14900   5.220   1.009   4.860 -0.1049 -0.5403  0.1759
  137OSM   H18F14901   5.241   1.087   4.784  2.3362 -0.8082  0.4733
  137OSM   H18G14902   5.314   0.956   4.887  0.7088  1.0654  0.6141
  137OSM   H18H14903   5.189   1.061   4.952  0.8323 -2.0723  1.4182
  138OSM      N14904   5.304   5.092   2.576 -0.1306 -0.1126  0.2700
  138OSM    C1514905   5.276   4.952   2.534 -0.3941  0.2666 -0.1955
  138OSM   H15A14906   5.216   4.952   2.445  2.6209  0.8456 -2.3813
  138OSM   H15B14907   5.221   4.891   2.605 -0.3112 -0.7602 -0.9906
  138OSM   H15C14908   5.368   4.899   2.516 -0.8950 -1.5460  2.1237
  138OSM    C1414909   5.368   5.164   2.463 -0.2494 -0.6971 -0.0596
  138OSM   H14A14910   5.467   5.128   2.439  2.3557  5.0776  0.3017
  138OSM   H14B14911   5.392   5.264   2.495 -0.2829 -0.7437  0.1156
  138OSM   H14C14912   5.308   5.167   2.374  1.5498 -1.9399 -1.3922
  138OSM    C1314913   5.178   5.172   2.599 -0.0801 -0.0335  0.0957
  138OSM   H13A14914   5.137   5.196   2.502  0.0819  0.0274  0.0409
  138OSM   H13B14915   5.209   5.267   2.640 -2.0366  1.5283 -1.8207
  138OSM   H13C14916   5.106   5.131   2.668 -1.7937  2.6283  0.0573
  138OSM    C1214917   5.392   5.104   2.697 -0.7537 -0.2035  0.4651
  138OSM   H12A14918   5.494   5.091   2.663 -0.8126  0.0426  0.1905
  138OSM   H12B14919   5.375   5.019   2.762 -1.0306  0.4490  1.2567
  138OSM    C1114920   5.406   5.240   2.784  0.1538 -0.4632  0.0341
  138OSM   H11A14921   5.479   5.230   2.868  1.3827  2.2436 -0.5896
  138OSM   H11B14922   5.307   5.265   2.829  0.8872  2.9081  0.0789
  138OSM      P14923   5.585   5.387   2.657  0.3435 -0.0590 -0.3437
  138OSM    O1314924   5.665   5.261   2.645 -0.2061  0.3038  0.4161
  138OSM    O1414925   5.566   5.465   2.535  0.0157 -0.3385 -0.2581
  138OSM    O1114926   5.634   5.477   2.778  0.0372 -0.4261  0.5161
  138OSM    O1214927   5.440   5.351   2.699  0.1373 -0.2262  0.5081
  138OSM    C1S14928   5.584   5.609   2.800  0.4111  0.4617 -0.2773
  138OSM    H1S14929   5.518   5.650   2.721 -1.2666 -0.8890  0.3800
  138OSM    H1T14930   5.669   5.680   2.814  0.6661 -0.4444  4.5010
  138OSM     NF14931   5.435   5.745   2.938  0.3846 -0.0163  0.9557
  138OSM    HNF14932   5.479   5.830   2.964 -1.6655  1.5359 -0.2791
  138OSM    C2S14933   5.506   5.621   2.931  1.6553 -0.0746  0.4137
  138OSM    H2S14934   5.438   5.533   2.931  0.6167  0.6812 -1.0170
  138OSM    C3S14935   5.605   5.607   3.051  0.6050  0.0536 -0.5317
  138OSM    H3S14936   5.663   5.701   3.058 -0.0145  0.3732  0.3179
  138OSM     O314937   5.706   5.508   3.033 -0.2736 -0.4259 -0.6024
  138OSM    HO314938   5.711   5.505   2.938  1.9641  4.1569 -0.9016
  138OSM    C4S14939   5.535   5.592   3.189  0.2469  0.6395 -0.1166
  138OSM    H4S14940   5.554   5.678   3.254  3.0032  1.0307 -1.2731
  138OSM    C5S14941   5.486   5.481   3.245  0.7866  0.2706  0.1943
  138OSM    H5S14942   5.496   5.384   3.194 -1.8521  0.3100 -0.5721
  138OSM    C6S14943   5.429   5.489   3.389  0.1728 -0.0305  0.5364
  138OSM    H6S14944   5.354   5.407   3.390  0.3931 -0.2342  0.4382
  138OSM    H6T14945   5.374   5.583   3.407 -1.9468 -1.0534 -0.2584
  138OSM    C7S14946   5.534   5.472   3.503  0.1000 -0.0384 -0.2317
  138OSM    H7S14947   5.603   5.558   3.516  0.3767 -0.1772 -0.7385
  138OSM    H7T14948   5.585   5.374   3.490  1.0036  0.4559 -0.4214
  138OSM    C8S14949   5.465   5.489   3.645 -0.0259  0.1131  0.1066
  138OSM    H8S14950   5.377   5.423   3.660  1.2950 -1.4345  1.6026
  138OSM    H8T14951   5.443   5.597   3.656 -1.5756 -0.1846  0.0745
  138OSM    C9S14952   5.568   5.462   3.757  0.0307  0.1878  0.4467
  138OSM    H9S14953   5.660   5.523   3.741 -0.2142 -0.0374 -2.2827
  138OSM    H9T14954   5.594   5.354   3.751  1.0135  0.4776 -1.4684
  138OSM   C10S14955   5.508   5.492   3.903  0.1965  0.1730 -0.0998
  138OSM   H10S14956   5.450   5.402   3.930  2.9008 -1.1177  1.7794
  138OSM   H10T14957   5.444   5.583   3.901 -0.3326 -0.1760  0.7501
  138OSM   C11S14958   5.617   5.496   4.013  0.0615  0.0523 -0.7348
  138OSM   H11S14959   5.686   5.582   3.996 -0.0923 -0.1316 -2.4436
  138OSM   H11T14960   5.680   5.406   3.997 -1.1366 -1.4471  2.2637
  138OSM   C12S14961   5.553   5.506   4.152 -0.3528 -0.3975  0.1682
  138OSM   H12S14962   5.478   5.427   4.174 -0.3030  0.1768  2.7156
  138OSM   H12T14963   5.502   5.604   4.160 -0.2409 -0.3559  0.3722
  138OSM   C13S14964   5.663   5.504   4.255  0.1083  0.1489 -0.2066
  138OSM   H13S14965   5.740   5.581   4.231 -0.7272  0.4968 -1.9455
  138OSM   H13T14966   5.704   5.401   4.250 -0.2571 -0.0535  0.7501
  138OSM   C14S14967   5.615   5.531   4.397  0.3204 -0.1119 -0.1214
  138OSM   H14S14968   5.584   5.638   4.400  0.7753  0.1113 -2.1029
  138OSM   H14T14969   5.693   5.518   4.475 -0.4594  1.1332  0.9091
  138OSM   C15S14970   5.492   5.443   4.436 -0.5157  0.4671  0.2447
  138OSM   H15S14971   5.503   5.339   4.398  0.3439  0.8415 -0.5758
  138OSM   H15T14972   5.407   5.494   4.386 -0.8972  0.6753  1.1001
  138OSM   C16S14973   5.448   5.450   4.583  0.1678  0.0416 -0.1507
  138OSM   H16S14974   5.465   5.550   4.627 -3.1007  0.1881  1.0522
  138OSM   H16T14975   5.498   5.372   4.645 -0.6941 -0.3094  0.1309
  138OSM   C17S14976   5.288   5.433   4.594 -0.5157  0.1673  0.3219
  138OSM   H17S14977   5.268   5.328   4.566  2.6731 -0.2313 -0.8203
  138OSM   H17T14978   5.253   5.510   4.522 -1.5855 -0.5339  0.0804
  138OSM   C18S14979   5.221   5.442   4.735 -0.2641  0.3128 -0.0931
  138OSM   H18S14980   5.228   5.346   4.791 -2.0094  0.2929  0.1384
  138OSM   H18T14981   5.111   5.450   4.731 -0.7552 -2.0591  3.7032
  138OSM   H18U14982   5.260   5.531   4.791 -1.5775  2.2300 -2.0980
  138OSM    C1F14983   5.318   5.766   2.877 -0.8206  0.5890  0.1797
  138OSM     OF14984   5.260   5.674   2.822  0.3808 -0.8654  1.5118
  138OSM    C2F14985   5.274   5.904   2.873  1.1860  0.0105 -0.7610
  138OSM    H2F14986   5.223   5.911   2.775  1.2065  0.4080 -0.7419
  138OSM    H2G14987   5.362   5.972   2.881  1.3343 -0.2858  0.2971
  138OSM    C3F14988   5.173   5.946   2.988 -0.0037 -0.1829 -0.4452
  138OSM    H3F14989   5.073   5.898   2.985  0.5062 -1.2423 -0.9982
  138OSM    H3G14990   5.144   6.052   2.977 -2.2195 -0.7581 -0.4677
  138OSM    C4F14991   5.233   5.932   3.130 -0.2983 -0.0867  0.2973
  138OSM    H4F14992   5.302   6.018   3.134  0.4912 -0.6877 -0.0532
  138OSM    H4G14993   5.295   5.842   3.148 -0.0654 -0.2718 -1.2295
  138OSM    C5F14994   5.124   5.969   3.232  0.0682 -0.6709  0.2309
  138OSM    H5F14995   5.053   5.884   3.227  1.5673 -2.0111  0.7810
  138OSM    H5G14996   5.079   6.063   3.195 -0.1014 -1.2135 -0.9899
  138OSM    C6F14997   5.174   5.992   3.375  0.3702 -0.3058  0.5701
  138OSM    H6F14998   5.243   6.079   3.374 -2.4324  2.2737  3.9809
  138OSM    H6G14999   5.233   5.904   3.407  0.8085  0.3337  1.5788
  138OSM    C7F15000   5.051   6.013   3.478 -0.0868  0.1249 -0.0588
  138OSM    H7F15001   4.980   5.930   3.459 -0.8555  0.0205  2.8513
  138OSM    H7G15002   5.007   6.111   3.450  1.1052  0.5761 -0.4505
  138OSM    C8F15003   5.092   5.999   3.629  0.6491 -0.2673  0.2013
  138OSM    H8F15004   5.170   6.071   3.659  0.9502 -0.3811 -0.3062
  138OSM    H8G15005   5.143   5.902   3.643  0.8984  0.0106  1.3046
  138OSM    C9F15006   4.963   6.001   3.709 -0.2174 -0.0053 -0.3305
  138OSM    H9F15007   4.865   5.969   3.671  0.1970 -0.5231 -0.9711
  138OSM   C10F15008   4.968   6.055   3.833 -0.0222  0.4372 -0.5363
  138OSM   H10F15009   4.877   6.052   3.896  1.1619  0.2370  1.2455
  138OSM   C11F15010   5.086   6.123   3.911 -0.4260  0.6159 -0.4714
  138OSM   H11F15011   5.045   6.224   3.931  0.0369  0.7879 -0.3772
  138OSM   H11G15012   5.180   6.140   3.853 -1.0576  1.0508 -1.3939
  138OSM   C12F15013   5.114   6.051   4.050 -0.3635 -0.3516 -0.5717
  138OSM   H12F15014   5.159   5.951   4.035  1.9410  0.5556 -0.0973
  138OSM   H12G15015   5.013   6.030   4.091  0.0703 -1.4875 -0.0423
  138OSM   C13F15016   5.196   6.129   4.150  0.7079 -0.0004  0.4453
  138OSM   H13F15017   5.129   6.212   4.184 -0.8879 -0.4438 -1.4462
  138OSM   H13G15018   5.287   6.173   4.104  0.3210 -1.0834 -1.4351
  138OSM   C14F15019   5.231   6.052   4.278  0.3327 -0.3449  0.9531
  138OSM   H14F15020   5.289   6.127   4.336 -2.4162  1.1523  1.9442
  138OSM   H14G15021   5.291   5.963   4.249 -0.7348 -0.5377 -0.8182
  138OSM   C15F15022   5.113   6.004   4.362  0.4757 -1.0833 -0.5323
  138OSM   H15F15023   5.073   5.907   4.323 -3.1463 -0.5483  1.4239
  138OSM   H15G15024   5.047   6.093   4.368  2.1535  0.1993 -0.3572
  138OSM   C16F15025   5.162   5.987   4.506  0.1144  0.2590 -0.1087
  138OSM   H16F15026   5.082   5.949   4.572  0.6093  1.6723  1.3596
  138OSM   H16G15027   5.198   6.078   4.558 -1.2756 -0.2787  1.8948
  138OSM   C17F15028   5.280   5.873   4.506  0.4110  0.0636 -0.0393
  138OSM   H17F15029   5.368   5.918   4.454 -1.2373 -0.4544 -3.5706
  138OSM   H17G15030   5.257   5.783   4.445 -1.5799 -0.0717  0.8427
  138OSM   C18F15031   5.327   5.835   4.646  0.7490 -0.3530 -0.4297
  138OSM   H18F15032   5.333   5.917   4.720 -1.0376 -0.6433  0.1012
  138OSM   H18G15033   5.417   5.770   4.653  1.3654  0.7005  3.3413
  138OSM   H18H15034   5.242   5.774   4.683  1.1506  0.0995  1.3192
  139OSM      N15035   6.384   2.026   2.364 -0.4994  0.2305 -0.1332
  139OSM    C1515036   6.513   1.952   2.333 -0.2205  0.3570 -0.0012
  139OSM   H15A15037   6.557   1.983   2.239 -0.4667 -0.4984 -0.4083
  139OSM   H15B15038   6.494   1.846   2.321  1.5316 -0.0459  0.4364
  139OSM   H15C15039   6.575   1.958   2.421 -1.2021 -0.2512  0.7546
  139OSM    C1415040   6.419   2.172   2.334 -0.2380 -0.6423 -0.4075
  139OSM   H14A15041   6.513   2.196   2.381  0.2123 -0.5083 -1.3492
  139OSM   H14B15042   6.343   2.237   2.375 -0.2686  0.2645 -1.8347
  139OSM   H14C15043   6.435   2.188   2.228 -1.2271  2.4660 -0.1806
  139OSM    C1315044   6.289   1.980   2.268 -0.1089  0.1156  0.2642
  139OSM   H13A15045   6.329   1.974   2.168 -1.8711 -1.8644 -0.4126
  139OSM   H13B15046   6.205   2.048   2.272  0.2269  0.5102  0.6695
  139OSM   H13C15047   6.255   1.881   2.294  2.2415 -0.7616  0.2005
  139OSM    C1215048   6.346   2.003   2.507 -0.6956 -0.0982  0.7572
  139OSM   H12A15049   6.246   2.038   2.527 -1.0516 -0.3132 -0.5637
  139OSM   H12B15050   6.400   2.063   2.579 -2.7615  0.1431  2.1815
  139OSM    C1115051   6.349   1.860   2.548  0.2656  0.6712  0.0805
  139OSM   H11A15052   6.453   1.822   2.549 -1.0797 -3.5067  0.7283
  139OSM   H11B15053   6.292   1.800   2.474  2.1406  0.6827 -1.4458
  139OSM      P15054   6.156   1.844   2.726 -0.2008  0.1036  0.0638
  139OSM    O1315055   6.092   1.979   2.730 -0.0045  0.0361  0.3850
  139OSM    O1415056   6.097   1.747   2.630 -0.2381 -0.4493 -0.5164
  139OSM    O1115057   6.142   1.777   2.867  0.0502 -0.2717 -0.3633
  139OSM    O1215058   6.306   1.854   2.688  0.1502 -0.3025 -0.1473
  139OSM    C1S15059   6.231   1.669   2.908 -0.3083 -0.2933  0.3773
  139OSM    H1S15060   6.335   1.702   2.887 -1.1351  3.7128  1.6862
  139OSM    H1T15061   6.208   1.575   2.853  2.8318  0.6915 -3.0443
  139OSM     NF15062   6.322   1.539   3.099  0.0616 -0.7224 -0.2221
  139OSM    HNF15063   6.291   1.444   3.099 -3.1559  0.1659  1.4605
  139OSM    C2S15064   6.228   1.645   3.060 -0.0179 -0.5161  0.2592
  139OSM    H2S15065   6.269   1.734   3.112  2.6232 -1.0506 -0.7111
  139OSM    C3S15066   6.085   1.635   3.108  0.2782 -0.0135  0.7332
  139OSM    H3S15067   6.033   1.551   3.057  1.0154 -0.5439  0.8400
  139OSM     O315068   6.014   1.757   3.079 -0.1811 -0.8811 -0.7728
  139OSM    HO315069   6.081   1.814   3.040  0.6598 -0.2464  1.4297
  139OSM    C4S15070   6.070   1.605   3.257 -0.3384  0.0858  0.0215
  139OSM    H4S15071   6.065   1.496   3.269  0.3841 -0.1245 -1.4027
  139OSM    C5S15072   6.048   1.688   3.361  0.3984 -0.1907  0.2968
  139OSM    H5S15073   6.023   1.791   3.331  0.8858 -0.1101  0.1685
  139OSM    C6S15074   6.038   1.646   3.510  0.1664  0.0788 -0.0885
  139OSM    H6S15075   5.934   1.634   3.546 -0.1983 -0.8451 -1.3630
  139OSM    H6T15076   6.085   1.720   3.578 -2.1087  1.6948 -0.1718
  139OSM    C7S15077   6.119   1.513   3.534  0.1288  0.2064 -0.5868
  139OSM    H7S15078   6.227   1.530   3.515  0.4609  0.4354  1.2495
  139OSM    H7T15079   6.092   1.427   3.470 -0.3452 -1.3068  1.5382
  139OSM    C8S15080   6.098   1.471   3.681  0.1967 -0.1398 -0.6759
  139OSM    H8S15081   6.000   1.421   3.701 -0.0354  0.6732  0.3101
  139OSM    H8T15082   6.109   1.561   3.745 -0.1920 -0.9154  0.5381
  139OSM    C9S15083   6.201   1.372   3.719  0.1732 -0.0964  0.1067
  139OSM    H9S15084   6.294   1.433   3.725 -1.5259  2.5919  1.2278
  139OSM    H9T15085   6.205   1.300   3.635  0.9095 -1.2679  1.0962
  139OSM   C10S15086   6.173   1.297   3.846 -0.5126 -0.5121  0.4247
  139OSM   H10S15087   6.261   1.236   3.874 -0.1528  0.0052  0.4347
  139OSM   H10T15088   6.086   1.229   3.835  0.9669 -2.7332  1.8008
  139OSM   C11S15089   6.121   1.391   3.967 -0.0914 -0.2853 -0.3070
  139OSM   H11S15090   6.014   1.421   3.963 -0.4421 -0.8699  2.5206
  139OSM   H11T15091   6.185   1.482   3.966 -0.2287 -0.1212 -3.2771
  139OSM   C12S15092   6.128   1.313   4.102  0.6557  0.2909 -0.8175
  139OSM   H12S15093   6.080   1.215   4.083 -1.5627  1.2517 -0.4603
  139OSM   H12T15094   6.066   1.359   4.183  0.9447 -1.3737  0.3890
  139OSM   C13S15095   6.269   1.312   4.158  0.6361 -0.0921  0.6951
  139OSM   H13S15096   6.292   1.417   4.189  0.0310  0.5658 -0.9676
  139OSM   H13T15097   6.335   1.272   4.078 -2.7873 -2.5705 -1.1476
  139OSM   C14S15098   6.274   1.246   4.295 -0.2356  0.0939  0.4598
  139OSM   H14S15099   6.250   1.138   4.290 -0.5737 -0.0666  3.7540
  139OSM   H14T15100   6.200   1.287   4.367 -2.7361 -2.3402 -0.5470
  139OSM   C15S15101   6.421   1.260   4.339 -0.0656 -0.1039  0.5923
  139OSM   H15S15102   6.494   1.236   4.258 -0.6420 -1.2516  0.3828
  139OSM   H15T15103   6.456   1.181   4.409 -0.4122 -0.6695  0.1356
  139OSM   C16S15104   6.475   1.398   4.394 -0.6277  0.3456 -0.8022
  139OSM   H16S15105   6.482   1.480   4.320  0.3280  0.6646 -0.3750
  139OSM   H16T15106   6.579   1.390   4.433 -1.3747  3.4064  2.3115
  139OSM   C17S15107   6.402   1.443   4.521 -0.1717  0.3897  0.2844
  139OSM   H17S15108   6.416   1.362   4.595 -0.7391 -0.2399 -0.2916
  139OSM   H17T15109   6.296   1.467   4.502  0.2749  0.7505 -2.0747
  139OSM   C18S15110   6.461   1.580   4.573 -0.2996 -0.8600 -0.4981
  139OSM   H18S15111   6.412   1.665   4.521  0.7284 -1.7897 -3.1503
  139OSM   H18T15112   6.568   1.578   4.544 -0.0844  0.8986  0.0458
  139OSM   H18U15113   6.445   1.587   4.683 -2.5351  0.9371 -0.8513
  139OSM    C1F15114   6.453   1.571   3.105  0.4612  0.6767 -0.2235
  139OSM     OF15115   6.502   1.675   3.073  0.3841 -0.0443 -0.1336
  139OSM    C2F15116   6.551   1.460   3.140 -0.3070 -1.0895  0.1054
  139OSM    H2F15117   6.631   1.452   3.064 -0.7531 -4.5513 -0.1772
  139OSM    H2G15118   6.498   1.363   3.124  0.5049 -2.1250  3.0785
  139OSM    C3F15119   6.592   1.449   3.292 -0.9013 -0.1028 -0.3061
  139OSM    H3F15120   6.616   1.551   3.330  0.0801 -1.1424  2.0674
  139OSM    H3G15121   6.675   1.378   3.312  2.5714  3.2380 -1.7593
  139OSM    C4F15122   6.475   1.415   3.387 -0.0304  0.0219 -0.3576
  139OSM    H4F15123   6.410   1.338   3.340  0.9131 -1.5279  0.7951
  139OSM    H4G15124   6.412   1.504   3.407  1.7589  0.6855  2.9879
  139OSM    C5F15125   6.515   1.356   3.524 -0.4972 -0.2785  0.2760
  139OSM    H5F15126   6.587   1.273   3.512  0.5076  0.3887  1.4038
  139OSM    H5G15127   6.423   1.323   3.576  0.0050  1.9720  2.8382
  139OSM    C6F15128   6.587   1.455   3.612 -0.5907 -0.0687  0.3002
  139OSM    H6F15129   6.504   1.523   3.642 -1.4925 -1.4948  1.1907
  139OSM    H6G15130   6.667   1.495   3.546 -0.8224 -0.0309  0.0373
  139OSM    C7F15131   6.656   1.401   3.733  0.2498 -0.6005 -0.6398
  139OSM    H7F15132   6.716   1.491   3.757 -0.4323 -0.3423  0.1479
  139OSM    H7G15133   6.720   1.319   3.694  2.2133 -0.2275  1.5582
  139OSM    C8F15134   6.557   1.364   3.845 -0.3742  0.1929 -0.0951
  139OSM    H8F15135   6.490   1.292   3.792  1.9839 -1.2636 -1.2634
  139OSM    H8G15136   6.482   1.441   3.870 -0.7525 -0.1375 -0.1975
  139OSM    C9F15137   6.618   1.291   3.961 -1.1262 -0.2313 -0.0182
  139OSM    H9F15138   6.603   1.183   3.968  0.9040 -0.4321  3.9455
  139OSM   C10F15139   6.699   1.352   4.056 -0.5109  0.1571 -0.0291
  139OSM   H10F15140   6.728   1.293   4.145  1.4269  0.0005 -0.7054
  139OSM   C11F15141   6.754   1.496   4.051  0.8280  1.3241  0.1744
  139OSM   H11F15142   6.680   1.569   4.012  0.3110  0.6576 -0.1106
  139OSM   H11G15143   6.846   1.516   3.992  0.8203  1.6419  0.2662
  139OSM   C12F15144   6.794   1.551   4.193  0.6869 -0.3124 -0.2036
  139OSM   H12F15145   6.711   1.534   4.264  1.1912 -1.3307  0.1746
  139OSM   H12G15146   6.812   1.660   4.188  1.3782 -0.3132  1.5165
  139OSM   C13F15147   6.892   1.471   4.273 -0.2312 -0.1271 -0.6297
  139OSM   H13F15148   6.985   1.453   4.215 -0.0712  0.4812 -0.5633
  139OSM   H13G15149   6.859   1.368   4.298 -0.1725 -0.2354 -0.9870
  139OSM   C14F15150   6.928   1.563   4.393  0.1744  0.3482 -0.3230
  139OSM   H14F15151   6.833   1.593   4.443 -1.9866 -3.5443 -1.6939
  139OSM   H14G15152   6.965   1.659   4.352  0.8816  0.0736 -0.3523
  139OSM   C15F15153   7.027   1.507   4.487 -0.3350  0.1868 -0.1664
  139OSM   H15F15154   7.130   1.520   4.446  0.5024 -0.1200  1.7282
  139OSM   H15G15155   7.012   1.402   4.520 -1.1204  0.7051  1.2195
  139OSM   C16F15156   7.021   1.568   4.630 -0.5045  0.4032  0.3740
  139OSM   H16F15157   7.020   1.679   4.623 -1.6268  0.5166  1.8548
  139OSM   H16G15158   7.112   1.547   4.690  0.2370 -0.6176 -1.0471
  139OSM   C17F15159   6.894   1.529   4.705  0.2921 -0.0391 -0.0182
  139OSM   H17F15160   6.902   1.419   4.718  0.8958  0.2357  2.5707
  139OSM   H17G15161   6.798   1.553   4.655  1.3849  1.8128 -1.3457
  139OSM   C18F15162   6.895   1.591   4.844  0.1599 -0.2782 -0.2128
  139OSM   H18F15163   6.802   1.565   4.899  0.1543 -1.4652 -0.7405
  139OSM   H18G15164   6.905   1.702   4.846  0.5706 -0.2523 -1.8531
  139OSM   H18H15165   6.979   1.540   4.896  0.9833  2.1574  0.9942
  140OSM      N15166   4.536   1.136   2.294  0.0102 -0.0530  0.0619
  140OSM    C1515167   4.649   1.108   2.380 -0.1338 -0.1202  0.0407
  140OSM   H15A15168   4.616   1.064   2.473  1.1800 -3.9875 -1.1311
  140OSM   H15B15169   4.709   1.196   2.398 -1.0806  0.3251  1.1419
  140OSM   H15C15170   4.709   1.029   2.337 -0.7028 -1.7999  2.1649
  140OSM    C1415171   4.606   1.194   2.170  0.3329  0.0150 -0.6646
  140OSM   H14A15172   4.667   1.277   2.201  0.9810  0.2654 -2.5095
  140OSM   H14B15173   4.531   1.231   2.101 -0.3611  1.1642  0.6555
  140OSM   H14C15174   4.670   1.127   2.115  1.5955 -1.1431  2.0200
  140OSM    C1315175   4.471   1.007   2.267 -0.2974  0.3101  0.4436
  140OSM   H13A15176   4.435   0.962   2.359 -1.3053  1.0096  0.4097
  140OSM   H13B15177   4.532   0.939   2.210 -1.3352 -0.3029  0.0313
  140OSM   H13C15178   4.387   1.027   2.202 -0.3715  1.4744  0.8658
  140OSM    C1215179   4.441   1.241   2.351 -0.0980  0.4274 -0.2104
  140OSM   H12A15180   4.375   1.256   2.267  0.2706 -2.5518 -1.1718
  140OSM   H12B15181   4.497   1.331   2.366  0.8449 -0.2322  0.2822
  140OSM    C1115182   4.358   1.209   2.480 -0.5397 -0.3361  0.1285
  140OSM   H11A15183   4.283   1.129   2.462  0.8062 -1.2919 -1.5378
  140OSM   H11B15184   4.305   1.299   2.519  1.0875  0.8059 -0.1758
  140OSM      P15185   4.518   1.239   2.693  0.1691  0.4110 -0.3206
  140OSM    O1315186   4.596   1.139   2.766  0.2357  0.2069 -0.0487
  140OSM    O1415187   4.593   1.357   2.643 -0.2924  0.1494  0.0488
  140OSM    O1115188   4.398   1.298   2.789  0.3668 -0.3930 -0.0755
  140OSM    O1215189   4.437   1.156   2.581 -0.1113  0.1733 -0.1956
  140OSM    C1S15190   4.307   1.210   2.857 -0.4296 -0.0419 -0.3413
  140OSM    H1S15191   4.294   1.114   2.804  0.0802 -2.5908  3.6888
  140OSM    H1T15192   4.206   1.257   2.860  0.3590  1.7790  3.1300
  140OSM     NF15193   4.255   1.089   3.045  0.0838 -0.0091 -0.1132
  140OSM    HNF15194   4.168   1.124   3.079 -0.6555 -2.0679  0.2810
  140OSM    C2S15195   4.342   1.195   3.002  0.4461 -0.0058  0.4880
  140OSM    H2S15196   4.446   1.160   3.015  0.2764 -0.4449  0.6775
  140OSM    C3S15197   4.340   1.330   3.075 -0.0176  0.6916  0.0981
  140OSM    H3S15198   4.239   1.370   3.055 -0.6176 -0.1244  1.3836
  140OSM     O315199   4.430   1.430   3.019  0.5691  0.4704  0.0106
  140OSM    HO315200   4.451   1.395   2.932  1.9109 -0.9492  0.8617
  140OSM    C4S15201   4.359   1.338   3.228 -0.1661 -0.1071  0.6849
  140OSM    H4S15202   4.462   1.331   3.266  0.0422 -1.9601 -0.0921
  140OSM    C5S15203   4.258   1.364   3.312 -0.2823  0.7503  0.0930
  140OSM    H5S15204   4.160   1.368   3.264 -1.5412  0.6556  2.4917
  140OSM    C6S15205   4.279   1.361   3.461  0.1420 -0.4278  0.3190
  140OSM    H6S15206   4.388   1.366   3.481  0.2324 -2.3643  0.5501
  140OSM    H6T15207   4.240   1.263   3.497 -1.4005  0.1953  0.4316
  140OSM    C7S15208   4.200   1.468   3.536 -0.1511 -0.9832 -0.4814
  140OSM    H7S15209   4.095   1.472   3.501  0.3463  0.7777 -1.9231
  140OSM    H7T15210   4.249   1.565   3.511 -0.5385 -0.6165  0.1616
  140OSM    C8S15211   4.199   1.447   3.690 -0.0647  0.7084  0.0087
  140OSM    H8S15212   4.305   1.445   3.720  0.1276  2.0790 -0.5101
  140OSM    H8T15213   4.146   1.351   3.710  1.0610 -0.1722 -1.0587
  140OSM    C9S15214   4.118   1.555   3.760 -0.2750  0.6119  0.1567
  140OSM    H9S15215   4.009   1.546   3.741  0.0252 -2.4230 -0.6075
  140OSM    H9T15216   4.165   1.651   3.730  0.9641 -0.0624 -0.1034
  140OSM   C10S15217   4.137   1.550   3.914  0.5898  0.0017  1.0389
  140OSM   H10S15218   4.242   1.574   3.940  0.6315  2.3275 -0.9087
  140OSM   H10T15219   4.107   1.448   3.948 -0.4644  0.2490  0.9028
  140OSM   C11S15220   4.041   1.649   3.984 -0.2318  0.2382 -0.3864
  140OSM   H11S15221   3.942   1.602   3.999  0.3427 -0.6550  0.8084
  140OSM   H11T15222   4.023   1.735   3.916 -1.0009 -0.1767 -0.7223
  140OSM   C12S15223   4.104   1.698   4.111  0.5770  0.4318  0.5855
  140OSM   H12S15224   4.205   1.735   4.083  1.6124 -2.0654  0.7935
  140OSM   H12T15225   4.117   1.616   4.185  0.7373 -1.4691 -1.4493
  140OSM   C13S15226   4.018   1.811   4.170 -0.0414 -0.0044 -0.4158
  140OSM   H13S15227   3.910   1.786   4.172 -0.1514  0.4615 -0.2830
  140OSM   H13T15228   4.032   1.898   4.101  1.9156  0.9072  1.0396
  140OSM   C14S15229   4.070   1.861   4.305  1.0786  0.3999  0.2577
  140OSM   H14S15230   4.027   1.960   4.330  0.8370  0.6583 -1.1073
  140OSM   H14T15231   4.180   1.872   4.293  0.9499  0.2522 -1.3505
  140OSM   C15S15232   4.033   1.763   4.422 -0.6174  0.0057  1.2799
  140OSM   H15S15233   4.087   1.670   4.397 -2.8209 -0.8616 -0.6181
  140OSM   H15T15234   3.925   1.743   4.436 -0.5995  0.4604  2.1901
  140OSM   C16S15235   4.082   1.822   4.565 -0.7577  0.4155 -0.0774
  140OSM   H16S15236   4.163   1.896   4.548 -0.5343  0.3533  0.6918
  140OSM   H16T15237   4.128   1.735   4.617  0.8908  1.1315 -0.2593
  140OSM   C17S15238   3.978   1.880   4.655  0.3503 -0.2260  0.1506
  140OSM   H17S15239   4.027   1.925   4.744 -0.5925 -0.6406  0.8875
  140OSM   H17T15240   3.919   1.804   4.711 -1.0041  2.3298  2.4529
  140OSM   C18S15241   3.889   2.000   4.610 -0.6921  0.4808 -0.2281
  140OSM   H18S15242   3.819   1.970   4.530  1.3751 -1.2216 -1.5019
  140OSM   H18T15243   3.963   2.068   4.563 -0.3252  1.1869  1.3049
  140OSM   H18U15244   3.838   2.034   4.703 -0.8939 -0.2479 -0.0646
  140OSM    C1F15245   4.295   0.960   3.027  0.2016  0.3182 -0.3718
  140OSM     OF15246   4.407   0.935   2.988 -0.4159  0.1129 -0.8846
  140OSM    C2F15247   4.191   0.850   3.049  0.1725 -0.2123  0.3289
  140OSM    H2F15248   4.188   0.787   2.958  0.3249  1.3139 -0.7535
  140OSM    H2G15249   4.091   0.897   3.045 -0.7288 -2.1263 -1.2119
  140OSM    C3F15250   4.208   0.785   3.193  0.5741  0.2008 -0.2773
  140OSM    H3F15251   4.297   0.718   3.195  1.0420  0.8245  0.4564
  140OSM    H3G15252   4.116   0.725   3.208  1.3927 -0.7395  1.2359
  140OSM    C4F15253   4.209   0.889   3.308 -0.6689  0.3812 -0.2950
  140OSM    H4F15254   4.121   0.955   3.288 -1.4300 -0.6260 -0.3639
  140OSM    H4G15255   4.301   0.949   3.293 -0.1127 -1.1043 -3.5025
  140OSM    C5F15256   4.194   0.830   3.450  0.8016  0.1953 -1.1800
  140OSM    H5F15257   4.271   0.761   3.491  0.4552  0.1289 -0.6239
  140OSM    H5G15258   4.103   0.766   3.445  0.2110  0.8042  0.7025
  140OSM    C6F15259   4.178   0.938   3.553 -0.3978  0.1665  0.6648
  140OSM    H6F15260   4.093   0.991   3.505  1.0126 -0.2570 -2.5354
  140OSM    H6G15261   4.264   1.007   3.563 -0.9425  1.0891 -0.8349
  140OSM    C7F15262   4.141   0.890   3.690 -0.4454  0.6593  0.8874
  140OSM    H7F15263   4.219   0.830   3.741  0.2803  1.3618  0.6066
  140OSM    H7G15264   4.060   0.814   3.675  0.2761 -0.0192  0.3675
  140OSM    C8F15265   4.103   1.007   3.785  0.0753 -0.3273  0.5782
  140OSM    H8F15266   4.023   1.072   3.745  1.3837 -0.1116 -1.8439
  140OSM    H8G15267   4.196   1.066   3.803  0.2338 -0.7163  1.0827
  140OSM    C9F15268   4.064   0.956   3.921 -0.0374 -0.4839  0.5698
  140OSM    H9F15269   4.138   0.964   4.002  0.3682 -1.0865  0.2690
  140OSM   C10F15270   3.940   0.931   3.964  0.0259  0.4415  0.4918
  140OSM   H10F15271   3.932   0.891   4.066 -0.9391 -0.4241  0.1005
  140OSM   C11F15272   3.811   0.932   3.878  0.5279  0.2453  0.1813
  140OSM   H11F15273   3.820   0.994   3.786  0.5764  1.8635  1.2472
  140OSM   H11G15274   3.735   0.975   3.946 -1.9296 -3.2349 -0.0459
  140OSM   C12F15275   3.766   0.789   3.848 -0.3352 -0.1757 -0.1550
  140OSM   H12F15276   3.682   0.769   3.918  0.0612  0.7995  0.6261
  140OSM   H12G15277   3.839   0.706   3.860  0.0670  0.2153  0.1392
  140OSM   C13F15278   3.729   0.789   3.700  0.1940  0.3579 -0.2932
  140OSM   H13F15279   3.812   0.827   3.637  1.4760  1.1588  1.7627
  140OSM   H13G15280   3.652   0.869   3.691 -0.4856 -0.3808 -1.3410
  140OSM   C14F15281   3.695   0.657   3.636  0.1855 -0.2641  0.3009
  140OSM   H14F15282   3.592   0.628   3.665 -0.2989 -0.8087 -1.8037
  140OSM   H14G15283   3.774   0.588   3.673  1.1385  0.7930  0.2967
  140OSM   C15F15284   3.686   0.649   3.484  0.5670  0.2465 -0.3092
  140OSM   H15F15285   3.645   0.750   3.459  2.2076  0.5269 -2.1090
  140OSM   H15G15286   3.620   0.562   3.464  0.1627  0.3270  0.6199
  140OSM   C16F15287   3.814   0.623   3.411  0.3448 -0.5385  0.4089
  140OSM   H16F15288   3.854   0.536   3.466 -2.3960 -1.3674  1.2291
  140OSM   H16G15289   3.887   0.706   3.426 -2.6095  2.5175 -0.7274
  140OSM   C17F15290   3.811   0.624   3.258 -0.3936  1.0534  0.0499
  140OSM   H17F15291   3.716   0.574   3.227 -0.7623  2.4524 -1.1992
  140OSM   H17G15292   3.900   0.569   3.221 -2.5898 -2.1258 -0.9702
  140OSM   C18F15293   3.818   0.762   3.204  0.3124  0.4396 -0.4255
  140OSM   H18F15294   3.913   0.811   3.232 -1.0759  2.3236  1.3185
  140OSM   H18G15295   3.736   0.817   3.256 -1.2217 -3.0850  1.2700
  140OSM   H18H15296   3.806   0.771   3.094  0.3369  2.3951 -0.2956
  141OSM      N15297   4.731   4.294   2.235  0.4966 -0.3999  0.0366
  141OSM    C1515298   4.878   4.332   2.210 -0.2335  0.1682 -0.2170
  141OSM   H15A15299   4.896   4.434   2.238  0.3355 -0.3868  1.5417
  141OSM   H15B15300   4.907   4.324   2.106  1.2896 -3.2356  0.3239
  141OSM   H15C15301   4.952   4.264   2.250 -0.2122  0.0997 -0.3711
  141OSM    C1415302   4.701   4.173   2.163  0.4363  1.4716  0.2621
  141OSM   H14A15303   4.595   4.149   2.166  0.8778 -0.6316  2.2889
  141OSM   H14B15304   4.753   4.087   2.202 -0.0400 -0.7635 -3.5100
  141OSM   H14C15305   4.729   4.173   2.059 -0.0730  0.4496  0.1121
  141OSM    C1315306   4.716   4.274   2.380 -0.1151 -0.1422  0.4774
  141OSM   H13A15307   4.748   4.358   2.439 -3.0871  0.8767  0.7806
  141OSM   H13B15308   4.759   4.182   2.417  0.2892 -0.3934 -0.5741
  141OSM   H13C15309   4.611   4.261   2.401 -0.7885  1.1673 -1.7308
  141OSM    C1215310   4.639   4.404   2.184  0.0039  0.1920  0.2149
  141OSM   H12A15311   4.643   4.406   2.076 -0.9942  0.7708  0.1786
  141OSM   H12B15312   4.681   4.495   2.224 -1.6800  1.7174 -1.3466
  141OSM    C1115313   4.489   4.400   2.233  0.6308  0.1735 -0.4919
  141OSM   H11A15314   4.442   4.499   2.212  0.8313  0.0010 -1.8667
  141OSM   H11B15315   4.490   4.401   2.344 -1.5152  1.6226 -0.4395
  141OSM      P15316   4.260   4.297   2.191 -0.1125  0.5132  0.0810
  141OSM    O1315317   4.212   4.392   2.088  0.0438  0.3506  0.0001
  141OSM    O1415318   4.200   4.164   2.203 -0.3751 -0.7105 -0.1691
  141OSM    O1115319   4.244   4.384   2.327 -0.0373 -0.0361 -0.3032
  141OSM    O1215320   4.413   4.285   2.185  0.4054  0.2396 -0.0183
  141OSM    C1S15321   4.142   4.341   2.426 -0.3574 -0.2380  0.7684
  141OSM    H1S15322   4.156   4.233   2.449  2.2178  0.3190  2.0700
  141OSM    H1T15323   4.036   4.360   2.396  0.3467 -0.6222 -2.3888
  141OSM     NF15324   4.057   4.392   2.648 -0.0783 -0.2870 -0.3628
  141OSM    HNF15325   3.992   4.464   2.672 -2.1806 -1.5177 -1.9262
  141OSM    C2S15326   4.153   4.431   2.553 -0.5838  0.2013  0.5551
  141OSM    H2S15327   4.248   4.415   2.608 -1.7192 -3.5907  1.6597
  141OSM    C3S15328   4.145   4.581   2.517  0.4390  0.4670  0.1686
  141OSM    H3S15329   4.045   4.603   2.473  0.4360  1.2127  0.5449
  141OSM     O315330   4.234   4.620   2.415 -0.4316  0.4413 -0.2136
  141OSM    HO315331   4.271   4.534   2.392  1.7130  1.6458 -1.5682
  141OSM    C4S15332   4.154   4.665   2.639  0.5725 -0.3868  0.0748
  141OSM    H4S15333   4.063   4.662   2.700  0.0380 -0.6504 -0.7277
  141OSM    C5S15334   4.270   4.704   2.691  0.2027 -0.3284  1.1048
  141OSM    H5S15335   4.364   4.673   2.642 -0.5223 -1.2723  0.2756
  141OSM    C6S15336   4.279   4.752   2.833  0.5241 -1.0301  0.6883
  141OSM    H6S15337   4.265   4.668   2.905 -1.5173  0.3780  2.0297
  141OSM    H6T15338   4.198   4.825   2.852  2.1564  1.7840 -2.1493
  141OSM    C7S15339   4.419   4.815   2.864  0.5020  0.2436 -0.3287
  141OSM    H7S15340   4.433   4.917   2.823 -0.2439 -0.7520 -3.3286
  141OSM    H7T15341   4.500   4.750   2.824  0.3821 -0.4599  0.5427
  141OSM    C8S15342   4.430   4.818   3.019 -0.6583  0.1809  0.1124
  141OSM    H8S15343   4.396   4.723   3.065  0.7781 -1.0475 -1.2552
  141OSM    H8T15344   4.370   4.905   3.054 -0.8761  0.5474 -1.1264
  141OSM    C9S15345   4.581   4.822   3.067 -0.5389 -0.1168  0.1758
  141OSM    H9S15346   4.621   4.925   3.052 -1.3905  0.3219  0.8544
  141OSM    H9T15347   4.637   4.742   3.014 -0.5608  0.4319 -0.6778
  141OSM   C10S15348   4.591   4.798   3.213  0.1358 -0.3172 -0.4746
  141OSM   H10S15349   4.558   4.694   3.236 -1.8249  0.3866  0.1181
  141OSM   H10T15350   4.536   4.874   3.273 -0.5638 -1.0790 -0.1333
  141OSM   C11S15351   4.735   4.812   3.255 -0.8408  0.0532 -0.0066
  141OSM   H11S15352   4.774   4.915   3.236 -2.5549  1.0707  1.7091
  141OSM   H11T15353   4.805   4.741   3.205  1.7714  1.8082  0.9118
  141OSM   C12S15354   4.749   4.805   3.406 -0.5917 -0.3288  0.2882
  141OSM   H12S15355   4.679   4.735   3.456 -1.1731  0.8952  1.2650
  141OSM   H12T15356   4.717   4.900   3.455 -1.0073 -0.2053 -0.2089
  141OSM   C13S15357   4.887   4.770   3.474 -0.2486  0.2432  0.4834
  141OSM   H13S15358   4.961   4.828   3.415 -2.2292  1.5590 -0.8595
  141OSM   H13T15359   4.913   4.663   3.459 -0.1368  0.4053 -0.5685
  141OSM   C14S15360   4.889   4.823   3.620  0.4945  0.4150 -0.6419
  141OSM   H14S15361   4.864   4.931   3.624  0.1583  0.3137  0.3046
  141OSM   H14T15362   4.997   4.827   3.646  0.4273  1.2572 -0.4404
  141OSM   C15S15363   4.828   4.731   3.733  0.3960  0.2518  0.6820
  141OSM   H15S15364   4.885   4.637   3.746 -0.6161 -0.3256  1.0177
  141OSM   H15T15365   4.727   4.708   3.693  0.1866  0.0589  1.3113
  141OSM   C16S15366   4.824   4.807   3.863 -0.0405  0.1833  0.2088
  141OSM   H16S15367   4.741   4.881   3.855 -1.6068 -1.5063  0.1239
  141OSM   H16T15368   4.926   4.849   3.871  1.2332 -2.4718 -0.9208
  141OSM   C17S15369   4.792   4.732   3.982 -0.0468 -0.6099 -0.0866
  141OSM   H17S15370   4.820   4.625   3.966 -2.3007 -0.9238 -2.7744
  141OSM   H17T15371   4.682   4.731   3.994 -0.1131  1.4264 -0.2141
  141OSM   C18S15372   4.855   4.784   4.115  0.1542 -0.3379  0.8186
  141OSM   H18S15373   4.966   4.788   4.113  0.1205  2.3158 -0.4442
  141OSM   H18T15374   4.823   4.716   4.197  2.3038 -6.0398 -2.4586
  141OSM   H18U15375   4.824   4.889   4.136 -0.4734 -0.6303  1.3784
  141OSM    C1F15376   4.066   4.278   2.719  0.1322  0.9455 -0.7505
  141OSM     OF15377   4.164   4.203   2.697  0.5459 -0.4359 -0.0031
  141OSM    C2F15378   3.966   4.247   2.829 -0.3926 -0.6518  0.0701
  141OSM    H2F15379   3.875   4.207   2.780 -0.6696 -0.2749  0.2728
  141OSM    H2G15380   3.953   4.337   2.894  2.0640 -0.8913  1.0224
  141OSM    C3F15381   4.036   4.151   2.924  0.6720 -0.0633 -1.0755
  141OSM    H3F15382   4.104   4.214   2.985 -0.6979 -0.1835  0.6707
  141OSM    H3G15383   4.090   4.064   2.881  0.2123 -2.1840  2.2249
  141OSM    C4F15384   3.926   4.084   3.008  0.0024  0.5380  0.8897
  141OSM    H4F15385   3.859   4.032   2.936 -1.0302  1.7143  0.9866
  141OSM    H4G15386   3.858   4.163   3.047  1.2974  3.9050 -2.9976
  141OSM    C5F15387   3.974   3.979   3.114  0.6971  0.2672 -0.5221
  141OSM    H5F15388   4.007   3.888   3.060 -0.6421 -1.4789  1.4332
  141OSM    H5G15389   3.887   3.943   3.174  0.3093 -1.3749 -1.9884
  141OSM    C6F15390   4.083   4.038   3.207 -1.0565  0.3102  0.5710
  141OSM    H6F15391   4.177   4.053   3.149 -1.8520  1.7275 -0.4187
  141OSM    H6G15392   4.106   3.963   3.286  1.2815  0.1470 -0.1804
  141OSM    C7F15393   4.039   4.168   3.282  0.3039 -0.2020  0.9927
  141OSM    H7F15394   3.937   4.154   3.323 -0.7635  1.1662 -1.0551
  141OSM    H7G15395   4.040   4.247   3.204  1.6034 -1.9445 -0.8371
  141OSM    C8F15396   4.131   4.204   3.402  0.7739  0.0525 -0.2283
  141OSM    H8F15397   4.233   4.214   3.357  0.5391  1.1799 -0.5469
  141OSM    H8G15398   4.136   4.109   3.458 -1.8256  0.3821  0.6695
  141OSM    C9F15399   4.106   4.322   3.491 -0.0326 -0.7985  0.0855
  141OSM    H9F15400   4.156   4.411   3.449 -1.4150 -0.6187 -1.2840
  141OSM   C10F15401   4.039   4.323   3.601 -0.8856 -0.3613 -0.2541
  141OSM   H10F15402   4.028   4.419   3.653  0.1642  0.7414 -1.9623
  141OSM   C11F15403   3.971   4.205   3.671 -0.6795 -0.4740 -0.2163
  141OSM   H11F15404   3.979   4.111   3.613 -0.9281 -0.2389 -0.6338
  141OSM   H11G15405   3.865   4.236   3.683 -0.1323  2.0842 -1.3744
  141OSM   C12F15406   4.027   4.177   3.810  1.0182  0.0843  0.2047
  141OSM   H12F15407   3.963   4.095   3.849  2.1338  0.4052  2.8745
  141OSM   H12G15408   4.003   4.260   3.880  0.2499 -1.1898  1.4887
  141OSM   C13F15409   4.174   4.134   3.815  0.8779  0.6064 -0.3892
  141OSM   H13F15410   4.242   4.213   3.779  3.2402 -0.7344  0.8760
  141OSM   H13G15411   4.194   4.041   3.757 -1.0764 -1.0934  1.4651
  141OSM   C14F15412   4.213   4.098   3.961  0.4142 -0.1715  0.1093
  141OSM   H14F15413   4.314   4.053   3.955  0.1481 -0.6261 -1.2455
  141OSM   H14G15414   4.147   4.016   3.997  2.6541 -1.2082  2.1097
  141OSM   C15F15415   4.189   4.220   4.050  0.4158 -0.6383 -1.3022
  141OSM   H15F15416   4.084   4.254   4.062  0.1919 -1.7248  0.1246
  141OSM   H15G15417   4.238   4.297   3.986  0.2871  0.2901 -0.3030
  141OSM   C16F15418   4.271   4.215   4.187  0.2239 -0.3236  0.0098
  141OSM   H16F15419   4.262   4.307   4.250  0.5444 -0.7070  0.6204
  141OSM   H16G15420   4.378   4.227   4.158  0.1153 -0.7529 -0.5816
  141OSM   C17F15421   4.256   4.085   4.271  0.3676 -0.1228  0.1446
  141OSM   H17F15422   4.300   3.992   4.229  0.8533 -0.9221  2.3233
  141OSM   H17G15423   4.148   4.071   4.294 -0.1364  3.6614  0.6862
  141OSM   C18F15424   4.331   4.099   4.408  0.1585 -0.4751 -1.1932
  141OSM   H18F15425   4.337   4.203   4.446 -1.9315 -0.7564  0.0444
  141OSM   H18G15426   4.432   4.052   4.410 -0.3402 -1.5845 -1.5059
  141OSM   H18H15427   4.270   4.063   4.493  2.9780 -2.6245  0.0699
  142OSM      N15428   5.364   5.923   2.393 -0.6404  0.1531  0.4080
  142OSM    C1515429   5.360   5.894   2.244 -0.5940 -0.0849  0.7536
  142OSM   H15A15430   5.412   5.965   2.182 -0.6476 -0.2027  0.5731
  142OSM   H15B15431   5.258   5.901   2.209 -0.7837  0.9049  1.4605
  142OSM   H15C15432   5.408   5.798   2.230 -0.1045 -0.0227  1.9173
  142OSM    C1415433   5.300   6.059   2.416  1.0165 -0.2884  0.4690
  142OSM   H14A15434   5.353   6.130   2.354 -1.0539 -0.7937 -2.0922
  142OSM   H14B15435   5.308   6.094   2.518  0.3499 -0.7007  0.6714
  142OSM   H14C15436   5.196   6.052   2.388  1.1337  0.7686 -0.2969
  142OSM    C1315437   5.290   5.814   2.454 -0.1524  0.2128 -0.3306
  142OSM   H13A15438   5.271   5.826   2.560  1.7583 -0.7500  0.1546
  142OSM   H13B15439   5.347   5.724   2.439  3.1407  1.8508  1.3164
  142OSM   H13C15440   5.190   5.804   2.414 -0.3032 -1.0142  0.3091
  142OSM    C1215441   5.504   5.925   2.444 -0.0272  0.5995 -0.4042
  142OSM   H12A15442   5.549   6.014   2.404  0.4319  0.7598  0.4405
  142OSM   H12B15443   5.559   5.844   2.399  2.5377  1.1632  1.4871
  142OSM    C1115444   5.525   5.921   2.600 -0.3625 -0.1177 -0.4830
  142OSM   H11A15445   5.630   5.889   2.613 -0.4465  0.1584  1.1304
  142OSM   H11B15446   5.464   5.836   2.637  0.7618 -0.9501 -0.4946
  142OSM      P15447   5.597   6.166   2.622 -0.3098 -0.2461 -0.1217
  142OSM    O1315448   5.631   6.174   2.478  0.2960  0.2043 -0.5082
  142OSM    O1415449   5.538   6.288   2.684  0.0979  0.3707 -0.0478
  142OSM    O1115450   5.730   6.134   2.701 -0.3264  0.1497 -0.3717
  142OSM    O1215451   5.499   6.051   2.650 -0.3278 -0.5469 -0.1288
  142OSM    C1S15452   5.739   6.140   2.848  0.5490 -0.5473 -0.2408
  142OSM    H1S15453   5.638   6.150   2.894  1.3643 -1.9611  1.9636
  142OSM    H1T15454   5.793   6.232   2.879 -1.3764  1.2512 -1.8558
  142OSM     NF15455   5.762   6.012   3.050 -0.0532 -0.0345 -0.2708
  142OSM    HNF15456   5.826   6.047   3.118  0.1187  0.1611 -0.5349
  142OSM    C2S15457   5.793   6.010   2.907 -0.7656  0.1203  0.3826
  142OSM    H2S15458   5.735   5.930   2.857 -0.6571  0.8743 -1.0070
  142OSM    C3S15459   5.944   5.989   2.863  0.9422 -0.6246  0.1373
  142OSM    H3S15460   6.002   6.076   2.898  1.5422 -1.4780  1.3189
  142OSM     O315461   5.958   5.988   2.727 -0.0889 -0.2765  0.0778
  142OSM    HO315462   5.871   6.014   2.696  1.3748  0.6626 -3.8151
  142OSM    C4S15463   5.993   5.864   2.919 -0.0903  0.3318 -0.0399
  142OSM    H4S15464   5.990   5.772   2.859  0.5366  0.8618 -0.9062
  142OSM    C5S15465   6.046   5.842   3.046  0.1047 -0.1061 -0.1207
  142OSM    H5S15466   6.073   5.931   3.105  0.5918  0.6409 -1.4293
  142OSM    C6S15467   6.088   5.710   3.112  0.0698  0.5892  0.2937
  142OSM    H6S15468   6.183   5.724   3.167  0.1946 -1.1779  0.5978
  142OSM    H6T15469   6.111   5.630   3.038  0.4983  2.1577 -1.3357
  142OSM    C7S15470   5.974   5.665   3.206 -0.0789  0.2984  0.3227
  142OSM    H7S15471   5.882   5.634   3.152 -0.1876  0.1224  0.6102
  142OSM    H7T15472   5.953   5.746   3.280  1.7745 -1.0505  2.4379
  142OSM    C8S15473   6.017   5.538   3.282 -0.1979  0.2546 -0.0104
  142OSM    H8S15474   6.120   5.554   3.318  0.6538 -2.9062 -0.7341
  142OSM    H8T15475   6.023   5.461   3.203  3.3465  0.6845 -0.3002
  142OSM    C9S15476   5.915   5.499   3.394 -0.0166  1.2701  1.0469
  142OSM    H9S15477   5.825   5.467   3.338 -0.9136  0.5548  2.8125
  142OSM    H9T15478   5.868   5.579   3.455 -1.8230  0.6063  0.5970
  142OSM   C10S15479   5.975   5.392   3.479  0.3053 -0.8551  0.6758
  142OSM   H10S15480   6.074   5.426   3.515  0.5839 -3.1212  2.2778
  142OSM   H10T15481   5.992   5.295   3.427 -2.9627 -1.5762  0.7197
  142OSM   C11S15482   5.897   5.359   3.606 -0.1184 -0.0246  0.4490
  142OSM   H11S15483   5.804   5.305   3.576  0.1897 -1.2207  1.5238
  142OSM   H11T15484   5.871   5.456   3.654 -0.9803 -0.0823  0.1334
  142OSM   C12S15485   5.973   5.256   3.696  0.1632 -1.2694  0.1399
  142OSM   H12S15486   6.082   5.276   3.682 -0.3528  0.6739 -1.6369
  142OSM   H12T15487   5.964   5.157   3.646  1.8475 -0.5056 -1.8415
  142OSM   C13S15488   5.928   5.264   3.845  0.7179 -0.3506 -0.3997
  142OSM   H13S15489   5.819   5.281   3.839  0.8686  0.9047  0.1580
  142OSM   H13T15490   5.977   5.352   3.892  0.9310 -0.1965 -0.9051
  142OSM   C14S15491   5.969   5.146   3.932 -0.5784 -0.2356  0.0911
  142OSM   H14S15492   6.079   5.143   3.926 -0.6280 -1.7808 -0.7185
  142OSM   H14T15493   5.927   5.050   3.893  0.1426 -0.1452 -0.9284
  142OSM   C15S15494   5.929   5.184   4.072  0.3807 -0.3012  0.4642
  142OSM   H15S15495   5.823   5.214   4.063  0.6642  0.4074 -0.7334
  142OSM   H15T15496   5.981   5.270   4.119  2.0911 -0.5677 -0.8563
  142OSM   C16S15497   5.937   5.070   4.173  0.1963 -0.9675  0.1372
  142OSM   H16S15498   6.039   5.030   4.188  0.5687  0.8088  3.4331
  142OSM   H16T15499   5.873   4.985   4.143  0.0427 -0.5792 -0.6654
  142OSM   C17S15500   5.883   5.125   4.305  0.1625  0.6377 -0.1013
  142OSM   H17S15501   5.780   5.157   4.279  0.6324  0.8822 -1.7694
  142OSM   H17T15502   5.946   5.213   4.332  2.7890 -0.9759 -0.5765
  142OSM   C18S15503   5.881   5.023   4.424 -0.4738 -0.6236 -0.4659
  142OSM   H18S15504   5.828   5.065   4.512  0.6552  2.5377 -1.1496
  142OSM   H18T15505   5.983   5.009   4.464 -0.8284  1.9613  1.6064
  142OSM   H18U15506   5.842   4.922   4.398  1.2810 -1.9964  1.8824
  142OSM    C1F15507   5.635   6.009   3.090 -0.4934  0.0821 -0.3721
  142OSM     OF15508   5.547   5.976   3.015  0.2464  0.2814 -0.2600
  142OSM    C2F15509   5.603   6.052   3.233  0.0198  0.1419 -0.1018
  142OSM    H2F15510   5.503   6.101   3.231 -0.8711 -1.6067  0.1524
  142OSM    H2G15511   5.677   6.130   3.261  0.5753  0.4799 -2.3016
  142OSM    C3F15512   5.601   5.947   3.344 -0.1959 -0.1819  0.0144
  142OSM    H3F15513   5.704   5.906   3.355 -0.2869 -0.3333  0.2892
  142OSM    H3G15514   5.524   5.869   3.329  0.8039 -1.6619  2.1364
  142OSM    C4F15515   5.566   6.013   3.483  0.6938 -0.0986  0.0120
  142OSM    H4F15516   5.481   6.083   3.470  1.1587  0.8047  1.5742
  142OSM    H4G15517   5.650   6.075   3.521  1.8328 -0.5551 -1.6935
  142OSM    C5F15518   5.524   5.897   3.579  0.3317 -0.2215  0.0582
  142OSM    H5F15519   5.604   5.821   3.585  1.0782  0.5118 -0.4167
  142OSM    H5G15520   5.434   5.849   3.535 -1.1604  0.2305  2.4251
  142OSM    C6F15521   5.494   5.953   3.714  0.2506 -0.2773 -0.5750
  142OSM    H6F15522   5.407   6.023   3.722  0.5479 -0.0280  0.6875
  142OSM    H6G15523   5.583   6.015   3.738 -0.1062  0.0220  0.0148
  142OSM    C7F15524   5.486   5.854   3.831 -0.2109  0.1607 -0.0775
  142OSM    H7F15525   5.583   5.800   3.829  0.5973  1.5745 -0.2857
  142OSM    H7G15526   5.401   5.786   3.810  2.1603 -2.8770 -0.4699
  142OSM    C8F15527   5.468   5.928   3.973 -0.6376 -0.4515 -0.0354
  142OSM    H8F15528   5.463   5.857   4.058 -0.9769  0.3911  0.6653
  142OSM    H8G15529   5.365   5.970   3.966  0.0526  1.5543  0.8341
  142OSM    C9F15530   5.556   6.045   4.005  0.2563  0.2200  0.7729
  142OSM    H9F15531   5.566   6.121   3.926  1.2042 -1.3017 -0.6375
  142OSM   C10F15532   5.609   6.080   4.125 -0.5477 -0.0926  0.7888
  142OSM   H10F15533   5.652   6.181   4.137 -1.6895  0.4876  0.1747
  142OSM   C11F15534   5.576   6.001   4.254  0.3546 -0.0191  0.2977
  142OSM   H11F15535   5.542   5.898   4.227 -0.3573  0.5567 -1.1532
  142OSM   H11G15536   5.495   6.049   4.313 -0.4286  0.5473 -1.1851
  142OSM   C12F15537   5.692   5.990   4.356 -0.0699  0.0775  0.1098
  142OSM   H12F15538   5.751   6.083   4.369  1.0603 -0.5988 -0.0714
  142OSM   H12G15539   5.768   5.926   4.306 -0.0409  0.4135 -0.2765
  142OSM   C13F15540   5.659   5.918   4.489 -0.1845  0.6147  0.1285
  142OSM   H13F15541   5.748   5.856   4.513  1.5774  2.8716 -0.2377
  142OSM   H13G15542   5.569   5.856   4.471  0.0451  0.5253 -0.7771
  142OSM   C14F15543   5.638   6.003   4.618 -0.4210  0.3254  0.7206
  142OSM   H14F15544   5.607   5.937   4.702 -1.3887 -1.0533 -0.6488
  142OSM   H14G15545   5.564   6.082   4.592  0.6346  0.4991 -2.0941
  142OSM   C15F15546   5.762   6.085   4.648  0.5544  0.6473 -0.1265
  142OSM   H15F15547   5.799   6.144   4.561 -0.6396 -0.1979 -1.2554
  142OSM   H15G15548   5.845   6.016   4.676 -0.5675 -0.2858  1.0395
  142OSM   C16F15549   5.730   6.186   4.760 -0.0749  0.9396 -0.0174
  142OSM   H16F15550   5.744   6.132   4.856 -0.8222 -2.1205 -1.5224
  142OSM   H16G15551   5.623   6.215   4.756 -0.6929 -1.1711  0.1890
  142OSM   C17F15552   5.832   6.307   4.767  0.9817  0.1892 -0.1283
  142OSM   H17F15553   5.820   6.355   4.668 -0.2896  0.7829  0.2858
  142OSM   H17G15554   5.937   6.271   4.767  1.5512  1.7945  0.2099
  142OSM   C18F15555   5.803   6.400   4.886  0.8317 -0.5526 -0.8973
  142OSM   H18F15556   5.886   6.469   4.914 -0.4118  0.7063 -0.1601
  142OSM   H18G15557   5.787   6.329   4.969  1.0799  0.0802 -0.2932
  142OSM   H18H15558   5.713   6.460   4.859  0.9287 -0.1406 -0.3272
  143OSM      N15559   6.215   5.270   2.484  0.2512 -0.7765 -0.2618
  143OSM    C1515560   6.223   5.367   2.596 -0.5715  0.0154  0.4021
  143OSM   H15A15561   6.136   5.364   2.660 -2.2045  0.4425 -1.6614
  143OSM   H15B15562   6.235   5.467   2.557  2.1434 -0.7373 -1.0005
  143OSM   H15C15563   6.305   5.336   2.659  0.5332 -1.3522 -1.6052
  143OSM    C1415564   6.086   5.295   2.402 -0.1131  0.7126 -0.4080
  143OSM   H14A15565   6.079   5.399   2.373 -1.6147  0.6816 -0.2109
  143OSM   H14B15566   5.989   5.277   2.445 -0.0522  1.4635  0.0555
  143OSM   H14C15567   6.098   5.240   2.309  1.5360  2.9567 -1.6283
  143OSM    C1315568   6.331   5.302   2.398  0.7341 -0.0056 -0.2461
  143OSM   H13A15569   6.315   5.235   2.315 -0.8669 -0.1722  0.1629
  143OSM   H13B15570   6.427   5.264   2.430  0.2777 -1.5696 -0.6746
  143OSM   H13C15571   6.330   5.403   2.358 -0.7335  0.0764 -0.0555
  143OSM    C1215572   6.222   5.124   2.532  0.2626 -0.4256  0.6980
  143OSM   H12A15573   6.217   5.065   2.442  1.1065 -2.2518  1.7877
  143OSM   H12B15574   6.139   5.103   2.599  0.0783  0.8519  0.9101
  143OSM    C1115575   6.352   5.072   2.594 -0.1802  0.1030  0.7192
  143OSM   H11A15576   6.325   4.978   2.647  1.8606 -0.7181  0.3832
  143OSM   H11B15577   6.386   5.137   2.677  1.7493 -1.2383  1.0314
  143OSM      P15578   6.503   4.926   2.436  0.1205 -0.0735  0.1095
  143OSM    O1315579   6.390   4.869   2.360 -0.2432  0.1264 -0.1973
  143OSM    O1415580   6.635   4.937   2.373  0.0799  0.6208 -0.2582
  143OSM    O1115581   6.512   4.845   2.573 -0.0007 -0.6193  0.2706
  143OSM    O1215582   6.459   5.070   2.493 -0.9592 -0.0189 -0.5352
  143OSM    C1S15583   6.618   4.856   2.671 -0.4205 -0.6813  0.3357
  143OSM    H1S15584   6.647   4.963   2.670  0.3598 -0.8880  0.1042
  143OSM    H1T15585   6.711   4.803   2.639 -1.0865 -1.8245  0.2458
  143OSM     NF15586   6.719   4.824   2.895 -0.2556  0.2565 -0.0675
  143OSM    HNF15587   6.777   4.743   2.891 -2.1095 -1.1743  0.3964
  143OSM    C2S15588   6.597   4.805   2.815  0.1096  0.8030 -0.6030
  143OSM    H2S15589   6.523   4.873   2.862 -2.5058 -2.3282  0.1106
  143OSM    C3S15590   6.555   4.654   2.812 -0.0689 -0.7084 -0.0642
  143OSM    H3S15591   6.651   4.601   2.796 -0.7747 -2.1183  0.2163
  143OSM     O315592   6.473   4.621   2.699  0.3361 -0.0832  0.2307
  143OSM    HO315593   6.490   4.699   2.646  2.0392  0.0418  0.8817
  143OSM    C4S15594   6.481   4.610   2.930  0.9713  0.5817 -0.4109
  143OSM    H4S15595   6.394   4.674   2.950 -0.8142 -1.2876 -1.7397
  143OSM    C5S15596   6.521   4.502   3.018 -0.3076  0.0308  0.4136
  143OSM    H5S15597   6.615   4.451   2.989  0.5114  1.1860  0.9386
  143OSM    C6S15598   6.446   4.450   3.139 -0.8350 -0.0326  0.2506
  143OSM    H6S15599   6.518   4.450   3.224  1.0421 -0.8319 -1.2644
  143OSM    H6T15600   6.434   4.340   3.124  3.6796 -0.8098  0.7592
  143OSM    C7S15601   6.315   4.515   3.172  0.2978 -0.3449 -0.2877
  143OSM    H7S15602   6.239   4.515   3.091  0.3952 -0.8835 -0.3880
  143OSM    H7T15603   6.333   4.621   3.200 -2.6977  0.6472 -1.6515
  143OSM    C8S15604   6.250   4.469   3.306 -0.2495  0.1935  0.2957
  143OSM    H8S15605   6.164   4.536   3.325 -1.5947 -1.9334  2.2917
  143OSM    H8T15606   6.323   4.494   3.385  1.7814  1.7063 -1.9261
  143OSM    C9S15607   6.221   4.319   3.297  0.1416  0.2072 -0.7362
  143OSM    H9S15608   6.316   4.261   3.296  1.1509  1.8015 -0.0932
  143OSM    H9T15609   6.164   4.291   3.206  0.7430  0.7897 -1.3047
  143OSM   C10S15610   6.136   4.265   3.420 -0.6480 -0.2370  0.2572
  143OSM   H10S15611   6.109   4.157   3.412  1.2152 -0.8761  1.7251
  143OSM   H10T15612   6.048   4.332   3.418 -0.0802  0.5086 -0.7181
  143OSM   C11S15613   6.209   4.292   3.552  0.6696 -0.3320 -0.5950
  143OSM   H11S15614   6.209   4.399   3.581  0.9603 -0.3559 -0.5063
  143OSM   H11T15615   6.316   4.264   3.540  1.3281  0.1708  2.8513
  143OSM   C12S15616   6.143   4.220   3.666 -0.0112 -0.1343 -0.2109
  143OSM   H12S15617   6.149   4.110   3.648 -0.8075 -0.1681 -0.3011
  143OSM   H12T15618   6.036   4.251   3.665 -0.9758 -2.7459  3.2476
  143OSM   C13S15619   6.205   4.251   3.802 -0.4012  0.5556 -0.0610
  143OSM   H13S15620   6.210   4.361   3.818 -0.4531  0.4371  0.8604
  143OSM   H13T15621   6.311   4.222   3.814 -0.2559  0.8594 -0.5855
  143OSM   C14S15622   6.104   4.204   3.915 -0.3556  0.6444 -0.3271
  143OSM   H14S15623   6.137   4.100   3.939  1.4421  1.4539  0.9000
  143OSM   H14T15624   5.996   4.200   3.893 -0.1873 -1.7925 -1.1055
  143OSM   C15S15625   6.116   4.283   4.042 -0.2437  0.5067 -0.6055
  143OSM   H15S15626   6.040   4.251   4.117  0.9950 -0.3242  0.3447
  143OSM   H15T15627   6.091   4.387   4.014 -1.2160  0.1838 -0.9677
  143OSM   C16S15628   6.253   4.281   4.116 -0.7451 -0.4482 -0.3943
  143OSM   H16S15629   6.328   4.341   4.061 -1.1812  1.9182  1.4439
  143OSM   H16T15630   6.281   4.174   4.119 -0.3042 -0.3289 -0.2402
  143OSM   C17S15631   6.255   4.342   4.259 -0.7446  0.9052 -0.8848
  143OSM   H17S15632   6.175   4.293   4.318 -0.3351  0.3710 -0.7690
  143OSM   H17T15633   6.236   4.451   4.254 -0.8675  0.8569 -1.6368
  143OSM   C18S15634   6.391   4.322   4.330 -0.1625  0.4026 -0.3178
  143OSM   H18S15635   6.471   4.384   4.285  1.8141 -0.8771  1.2699
  143OSM   H18T15636   6.429   4.218   4.331  3.8678  1.6910  1.1864
  143OSM   H18U15637   6.372   4.340   4.438 -1.4778  0.0719 -0.4817
  143OSM    C1F15638   6.760   4.946   2.933  0.5899 -0.5155  0.5217
  143OSM     OF15639   6.719   5.045   2.879 -0.6401 -0.0852  0.2291
  143OSM    C2F15640   6.871   4.950   3.042  0.6870  0.9894  0.0301
  143OSM    H2F15641   6.936   5.037   3.016  0.0368  1.4807  0.0074
  143OSM    H2G15642   6.931   4.857   3.044  0.0986  0.5605 -1.2844
  143OSM    C3F15643   6.822   4.986   3.182  0.4602 -0.2231 -0.0522
  143OSM    H3F15644   6.907   4.982   3.254  0.2057  1.0211  0.3453
  143OSM    H3G15645   6.749   4.917   3.229 -0.1273 -1.5602 -2.7690
  143OSM    C4F15646   6.772   5.134   3.177 -0.3168 -0.3651  0.1572
  143OSM    H4F15647   6.689   5.144   3.104  0.3656  0.8689 -0.4878
  143OSM    H4G15648   6.851   5.203   3.140  1.0434 -1.4656  0.8719
  143OSM    C5F15649   6.710   5.195   3.306  0.5117 -0.1702  0.1497
  143OSM    H5F15650   6.621   5.133   3.331 -1.1834  1.9218 -0.4170
  143OSM    H5G15651   6.680   5.299   3.281 -1.8747 -1.1702 -1.5243
  143OSM    C6F15652   6.808   5.190   3.422 -0.9335 -0.4319 -0.3486
  143OSM    H6F15653   6.901   5.246   3.400  0.2679 -1.7007  1.2768
  143OSM    H6G15654   6.838   5.087   3.450 -1.5169 -0.4641  0.2092
  143OSM    C7F15655   6.747   5.240   3.556  0.5370  0.4688 -0.3563
  143OSM    H7F15656   6.656   5.177   3.570  0.2436  0.9572 -0.0024
  143OSM    H7G15657   6.720   5.348   3.548  1.2975  0.6887 -0.0280
  143OSM    C8F15658   6.860   5.230   3.665 -0.3785  0.1599 -0.3210
  143OSM    H8F15659   6.860   5.326   3.719  4.3271 -0.0519  0.5043
  143OSM    H8G15660   6.956   5.230   3.609  0.2408 -1.2870  0.6850
  143OSM    C9F15661   6.860   5.109   3.756 -0.4920 -0.3621  0.3052
  143OSM    H9F15662   6.928   5.027   3.728 -1.6495 -0.8739 -1.1400
  143OSM   C10F15663   6.784   5.104   3.865  0.5615  0.6924 -0.6994
  143OSM   H10F15664   6.798   5.023   3.939  2.1261  1.5840  0.0142
  143OSM   C11F15665   6.689   5.218   3.906 -1.1102 -0.2359  0.7400
  143OSM   H11F15666   6.700   5.309   3.843 -0.2508 -2.5815 -2.8717
  143OSM   H11G15667   6.698   5.235   4.015  1.2121  1.2512  0.3772
  143OSM   C12F15668   6.543   5.177   3.885  0.2633 -0.7952 -0.5425
  143OSM   H12F15669   6.525   5.092   3.954  2.0685  0.5232  1.6606
  143OSM   H12G15670   6.525   5.139   3.782 -0.6477 -1.3234 -0.1993
  143OSM   C13F15671   6.440   5.282   3.926 -0.5390  0.0636 -0.1232
  143OSM   H13F15672   6.347   5.235   3.887  0.4857 -1.9275 -0.3123
  143OSM   H13G15673   6.443   5.377   3.869  0.3163  0.1587  0.0698
  143OSM   C14F15674   6.429   5.310   4.074 -1.2322  0.2609  0.3196
  143OSM   H14F15675   6.351   5.389   4.077 -2.9496 -1.2756 -1.3384
  143OSM   H14G15676   6.524   5.354   4.112 -1.3408  1.1193 -0.3638
  143OSM   C15F15677   6.390   5.183   4.163  0.2192 -0.2617  0.1815
  143OSM   H15F15678   6.486   5.128   4.173  2.4349  3.2934 -0.0788
  143OSM   H15G15679   6.308   5.131   4.110 -1.0820  1.0025  0.8674
  143OSM   C16F15680   6.326   5.220   4.298  0.6849  0.1404  0.2373
  143OSM   H16F15681   6.227   5.268   4.289  1.7026  2.2205 -0.5088
  143OSM   H16G15682   6.395   5.282   4.359  3.1848 -2.1641 -0.0509
  143OSM   C17F15683   6.302   5.095   4.378 -0.2774  0.4247 -0.5330
  143OSM   H17F15684   6.399   5.040   4.369  0.9930  2.6756 -1.4578
  143OSM   H17G15685   6.227   5.024   4.338  0.8630 -1.4303  0.4576
  143OSM   C18F15686   6.255   5.132   4.520 -0.6278 -0.7010 -0.0846
  143OSM   H18F15687   6.231   5.037   4.572  0.7497 -1.8159 -1.4062
  143OSM   H18G15688   6.162   5.192   4.512 -0.6894 -0.7602  0.1689
  143OSM   H18H15689   6.334   5.186   4.576 -1.0632  0.1916 -0.3078
  144OSM      N15690   6.671   5.539   2.044 -0.1822 -0.1615  0.4451
  144OSM    C1515691   6.622   5.474   1.919 -0.1418  0.3871 -0.5847
  144OSM   H15A15692   6.588   5.548   1.849 -0.6204  0.1702 -0.5827
  144OSM   H15B15693   6.535   5.410   1.927  0.1038  0.0678 -0.4105
  144OSM   H15C15694   6.693   5.409   1.871 -1.4472 -1.8768  0.3650
  144OSM    C1415695   6.684   5.441   2.156  0.0156  0.1713  1.0128
  144OSM   H14A15696   6.583   5.410   2.181 -1.1912  0.6863 -2.5546
  144OSM   H14B15697   6.723   5.486   2.246  0.1919  3.5304 -0.6141
  144OSM   H14C15698   6.737   5.351   2.126 -2.2925 -0.8228 -0.3609
  144OSM    C1315699   6.812   5.596   2.015 -0.3631  0.4305  0.2468
  144OSM   H13A15700   6.876   5.519   1.974 -1.7020 -1.2697  1.2297
  144OSM   H13B15701   6.841   5.632   2.113 -3.3319 -0.9174  1.7397
  144OSM   H13C15702   6.815   5.681   1.948  1.0422  0.5201  0.3913
  144OSM    C1215703   6.579   5.652   2.076 -0.9386  0.4367  0.2026
  144OSM   H12A15704   6.476   5.620   2.091 -1.0556  1.7544  2.8090
  144OSM   H12B15705   6.571   5.712   1.987 -0.4103  2.7807  1.6450
  144OSM    C1115706   6.617   5.753   2.180  0.0384 -0.0835 -0.8410
  144OSM   H11A15707   6.546   5.838   2.171  1.3877  1.4335  1.7823
  144OSM   H11B15708   6.715   5.804   2.171 -0.0986  0.6486  1.2316
  144OSM      P15709   6.446   5.701   2.361 -0.4397 -0.1841  0.1786
  144OSM    O1315710   6.396   5.840   2.387  0.0062 -0.0223  0.2372
  144OSM    O1415711   6.358   5.632   2.264 -0.1468  0.2572 -0.1168
  144OSM    O1115712   6.439   5.617   2.496 -0.6036  0.2824 -0.2140
  144OSM    O1215713   6.599   5.705   2.315 -0.4748  0.3252  0.4631
  144OSM    C1S15714   6.538   5.544   2.569  0.1953 -0.3288  0.2209
  144OSM    H1S15715   6.630   5.547   2.508 -2.1737 -0.9813 -3.7514
  144OSM    H1T15716   6.520   5.435   2.573  1.0149 -0.5307 -1.2639
  144OSM     NF15717   6.660   5.506   2.765 -0.1727 -0.0752  0.2615
  144OSM    HNF15718   6.634   5.438   2.833 -0.7112  1.1673  1.3221
  144OSM    C2S15719   6.555   5.580   2.709  0.1806  0.1634 -0.8327
  144OSM    H2S15720   6.579   5.688   2.719  0.9215 -0.0642  0.0783
  144OSM    C3S15721   6.428   5.562   2.794 -0.5310 -0.9930  0.1026
  144OSM    H3S15722   6.390   5.460   2.772  1.8641 -3.7315  6.3690
  144OSM     O315723   6.330   5.648   2.748  0.1186  0.2548  0.6084
  144OSM    HO315724   6.349   5.671   2.657  0.8408  2.7673  1.3035
  144OSM    C4S15725   6.449   5.571   2.947  0.1935  0.0219  0.1265
  144OSM    H4S15726   6.437   5.477   3.002 -2.6134  0.7029  0.8559
  144OSM    C5S15727   6.483   5.684   3.018  0.0327  0.0144  0.6567
  144OSM    H5S15728   6.518   5.766   2.954 -0.3241 -0.0809  0.3302
  144OSM    C6S15729   6.511   5.685   3.165  0.3793 -0.4239  0.1367
  144OSM    H6S15730   6.460   5.770   3.214  0.3667 -0.4146  0.1078
  144OSM    H6T15731   6.616   5.715   3.186  0.0707  0.4198  0.5405
  144OSM    C7S15732   6.480   5.559   3.249 -0.6084  0.2766  0.6301
  144OSM    H7S15733   6.554   5.480   3.221 -0.6209  1.3801 -3.0381
  144OSM    H7T15734   6.388   5.504   3.220  1.0416 -0.8070 -3.2387
  144OSM    C8S15735   6.482   5.577   3.401 -0.1760 -0.6086 -0.1870
  144OSM    H8S15736   6.393   5.639   3.425 -0.2902 -0.1040 -1.8374
  144OSM    H8T15737   6.576   5.633   3.419 -0.9805  0.6920  0.1068
  144OSM    C9S15738   6.475   5.457   3.488  0.0163  0.4194  0.5576
  144OSM    H9S15739   6.537   5.390   3.426  0.7130  2.7352 -1.4212
  144OSM    H9T15740   6.372   5.418   3.495  0.6328 -1.4759 -0.3574
  144OSM   C10S15741   6.530   5.492   3.627  0.4932  0.1646 -0.2465
  144OSM   H10S15742   6.629   5.540   3.613  1.2733 -1.3945 -0.2935
  144OSM   H10T15743   6.544   5.396   3.682  0.9048 -0.1423 -0.8713
  144OSM   C11S15744   6.458   5.601   3.712  0.0829  0.0717 -0.3053
  144OSM   H11S15745   6.351   5.573   3.726  0.1494 -0.2196 -0.3721
  144OSM   H11T15746   6.463   5.691   3.646  3.3259  0.7646  0.7104
  144OSM   C12S15747   6.526   5.644   3.840  0.1744  0.6077  0.4709
  144OSM   H12S15748   6.635   5.624   3.831  0.3296  0.9023  1.5623
  144OSM   H12T15749   6.500   5.571   3.919  0.1603  0.8762  0.7183
  144OSM   C13S15750   6.496   5.788   3.873  0.2248 -0.5744  0.2832
  144OSM   H13S15751   6.526   5.856   3.790 -3.2965 -0.5595 -1.1498
  144OSM   H13T15752   6.550   5.818   3.965 -0.2332 -0.7726  0.6237
  144OSM   C14S15753   6.350   5.819   3.897  0.9140 -0.7452  0.1847
  144OSM   H14S15754   6.326   5.759   3.988 -0.4382 -0.7663 -0.1651
  144OSM   H14T15755   6.272   5.781   3.828 -0.1926  2.3500 -0.4154
  144OSM   C15S15756   6.329   5.968   3.922 -0.1999  0.3404 -0.1698
  144OSM   H15S15757   6.222   5.981   3.949 -0.1444 -1.1369  0.8606
  144OSM   H15T15758   6.334   6.010   3.819  0.5446  1.1424  0.1819
  144OSM   C16S15759   6.402   6.037   4.037 -0.1325 -0.5352  0.0597
  144OSM   H16S15760   6.509   6.054   4.010  0.3385 -1.3930  1.2925
  144OSM   H16T15761   6.397   5.976   4.130  2.1528 -1.9108 -0.6315
  144OSM   C17S15762   6.343   6.183   4.059 -0.3442  0.3734 -0.7639
  144OSM   H17S15763   6.238   6.159   4.088  0.1016  2.1951  2.7904
  144OSM   H17T15764   6.335   6.247   3.968 -2.1105 -0.5828 -1.3271
  144OSM   C18S15765   6.413   6.257   4.176  0.6118  0.7096  0.8200
  144OSM   H18S15766   6.361   6.218   4.267  1.7887 -0.3896  1.0577
  144OSM   H18T15767   6.390   6.364   4.158  1.4950  0.5743 -1.3423
  144OSM   H18U15768   6.518   6.227   4.195 -0.1325 -1.1740  2.3017
  144OSM    C1F15769   6.789   5.522   2.732 -0.0886  0.0869  0.0601
  144OSM     OF15770   6.834   5.610   2.665 -0.3215 -0.3009  0.7937
  144OSM    C2F15771   6.872   5.414   2.800  0.3091 -0.3368 -0.0412
  144OSM    H2F15772   6.944   5.372   2.728  0.2757 -0.8842  0.2411
  144OSM    H2G15773   6.812   5.331   2.844  0.1911 -0.1778  0.1017
  144OSM    C3F15774   6.945   5.481   2.914 -0.5417  0.4837  1.2267
  144OSM    H3F15775   6.994   5.576   2.883  1.1999  0.2782  3.1407
  144OSM    H3G15776   7.024   5.404   2.929  0.3630  1.4068  1.3139
  144OSM    C4F15777   6.867   5.503   3.042 -0.1240 -0.3871 -0.5383
  144OSM    H4F15778   6.802   5.413   3.053 -1.4060  0.0911 -3.3721
  144OSM    H4G15779   6.792   5.584   3.034 -1.2071 -1.0616  1.7632
  144OSM    C5F15780   6.957   5.524   3.166  0.0702 -0.4408  0.4176
  144OSM    H5F15781   7.031   5.602   3.136 -0.2941  0.1408  1.0169
  144OSM    H5G15782   7.023   5.438   3.193  3.1583  0.5153 -3.0773
  144OSM    C6F15783   6.880   5.582   3.285 -0.1413 -0.4572 -0.2343
  144OSM    H6F15784   6.845   5.495   3.345 -0.5841 -0.9371 -1.1670
  144OSM    H6G15785   6.782   5.629   3.263  0.2142  1.6322  2.2558
  144OSM    C7F15786   6.968   5.673   3.368  0.6737 -0.0724 -0.3677
  144OSM    H7F15787   6.965   5.768   3.311 -1.3230  0.4932  0.5690
  144OSM    H7G15788   7.074   5.652   3.396  0.0694  1.9346  4.4189
  144OSM    C8F15789   6.905   5.702   3.502  0.4044  0.4884 -0.4862
  144OSM    H8F15790   6.891   5.602   3.548  2.3324 -1.2177 -3.3138
  144OSM    H8G15791   6.803   5.745   3.487 -0.4421 -0.8064  1.2179
  144OSM    C9F15792   6.985   5.793   3.594  1.2216  0.0656 -0.1540
  144OSM    H9F15793   7.003   5.885   3.538  0.9004  0.2829  0.0988
  144OSM   C10F15794   6.993   5.799   3.724  1.2640  0.4605 -0.6141
  144OSM   H10F15795   7.038   5.890   3.767 -0.3265 -0.3342  3.0735
  144OSM   C11F15796   6.953   5.688   3.818  0.1523  0.3036 -0.2019
  144OSM   H11F15797   7.042   5.624   3.834  0.4671  0.6010 -0.7149
  144OSM   H11G15798   6.869   5.621   3.788 -1.3151  1.4882  1.1066
  144OSM   C12F15799   6.900   5.733   3.951 -0.4305  0.5224  0.3857
  144OSM   H12F15800   6.809   5.793   3.931 -1.2479 -0.0873  1.9931
  144OSM   H12G15801   6.973   5.802   3.998  1.1289  1.2185 -2.7954
  144OSM   C13F15802   6.874   5.607   4.044  0.4889 -0.1780 -0.1543
  144OSM   H13F15803   6.965   5.545   4.052 -1.0805 -2.9189 -2.0713
  144OSM   H13G15804   6.804   5.542   3.989  1.3193 -2.2646  1.1536
  144OSM   C14F15805   6.833   5.645   4.185 -0.4882  0.2714 -0.7136
  144OSM   H14F15806   6.886   5.735   4.221  0.2441 -0.4819  0.1433
  144OSM   H14G15807   6.853   5.562   4.256  0.9890  1.9702  0.9721
  144OSM   C15F15808   6.688   5.678   4.192 -0.1994 -0.1498  0.3803
  144OSM   H15F15809   6.633   5.620   4.115 -1.2406  0.9839  0.2380
  144OSM   H15G15810   6.680   5.789   4.187 -0.7263 -0.0598  2.3957
  144OSM   C16F15811   6.611   5.642   4.319 -0.8242 -0.3381 -0.0055
  144OSM   H16F15812   6.669   5.687   4.402 -0.7944 -1.4468  0.5974
  144OSM   H16G15813   6.614   5.532   4.334  2.2367 -0.3437 -0.0469
  144OSM   C17F15814   6.479   5.700   4.329  0.8182 -0.5721  0.7563
  144OSM   H17F15815   6.472   5.805   4.295 -3.1450 -0.3929  1.5438
  144OSM   H17G15816   6.428   5.714   4.427 -2.1875 -0.0385 -0.7529
  144OSM   C18F15817   6.383   5.620   4.244 -1.1023 -0.4679  0.6767
  144OSM   H18F15818   6.413   5.623   4.137 -1.0394  0.6153  0.7137
  144OSM   H18G15819   6.277   5.653   4.245 -1.2358 -0.8796  0.4436
  144OSM   H18H15820   6.375   5.511   4.266  0.6430 -1.5299 -3.1924
  145SAPE     N15821   1.831   1.371   6.618 -0.5843  0.6726 -0.2979
  145SAPE   HN115822   1.880   1.454   6.658 -0.2384  0.4792 -0.3142
  145SAPE   HN215823   1.729   1.385   6.630 -0.4930  0.6645  0.5922
  145SAPE   HN315824   1.852   1.284   6.672 -0.6270  1.0224  0.2841
  145SAPE   C1215825   1.883   1.344   6.478  1.0520  0.0412 -0.1163
  145SAPE  H12A15826   1.819   1.393   6.402 -1.4117 -2.9700 -0.1790
  145SAPE  H12B15827   1.866   1.236   6.456 -1.3570  0.2512  0.4937
  145SAPE   C1115828   2.027   1.382   6.462  0.9281 -0.1213  0.0808
  145SAPE  H11A15829   2.048   1.486   6.495  1.0201  0.4194 -1.5909
  145SAPE  H11B15830   2.057   1.380   6.356  0.1898  1.3988 -0.1774
  145SAPE     P15831   2.163   1.150   6.475  0.0335 -0.0874 -0.3876
  145SAPE   O1315832   2.290   1.181   6.404 -0.2113  0.2298 -0.2310
  145SAPE   O1415833   2.175   1.046   6.586 -0.2606  0.6832 -0.1994
  145SAPE   O1215834   2.111   1.285   6.526  0.1471  0.1638 -0.0248
  145SAPE   O1115835   2.061   1.110   6.366 -0.1845 -0.6800 -0.3879
  145SAPE    C115836   2.076   0.995   6.281 -0.2175 -0.2011 -0.0826
  145SAPE    HA15837   2.170   0.939   6.304 -0.3733 -1.0390 -1.3523
  145SAPE    HB15838   1.999   0.918   6.304 -0.3014 -0.6747 -1.7678
  145SAPE    C215839   2.064   1.015   6.128  0.2776 -0.0410  0.6316
  145SAPE    HS15840   2.047   0.921   6.071 -0.5918  1.0110 -0.8927
  145SAPE   O2115841   2.179   1.073   6.080 -0.1091 -0.8079 -0.0579
  145SAPE   C2115842   2.286   0.995   6.084 -0.5354 -0.1212 -0.0219
  145SAPE   O2215843   2.287   0.871   6.086  0.0067 -0.0825  0.0494
  145SAPE   C2215844   2.412   1.084   6.074  0.7981 -0.2580  0.2685
  145SAPE   H2R15845   2.391   1.144   5.983 -2.1735 -1.4322  0.0498
  145SAPE   H2S15846   2.420   1.155   6.159  2.4246 -1.1245  0.8768
  145SAPE    C315847   1.946   1.109   6.094  0.1952  0.3352 -0.1819
  145SAPE    HX15848   1.991   1.210   6.104  1.6797 -0.1914 -1.1323
  145SAPE    HY15849   1.868   1.104   6.173 -1.4006 -0.3030 -1.7206
  145SAPE   O3115850   1.892   1.093   5.957  0.1643 -0.6411  1.1769
  145SAPE   C3115851   1.781   1.016   5.956 -0.4289  0.3114 -0.5976
  145SAPE   O3215852   1.738   0.961   6.058  0.9143  0.0683  0.4988
  145SAPE   C3215853   1.710   1.024   5.825 -0.5257  0.5001 -0.3013
  145SAPE   H2X15854   1.616   0.965   5.834  0.3709 -0.7685  1.2514
  145SAPE   H2Y15855   1.784   0.975   5.759  0.8237  0.2278  1.3436
  145SAPE   C2315856   2.539   1.002   6.063 -0.8439 -0.9558 -0.0180
  145SAPE   H3R15857   2.545   0.936   6.152 -0.6991  0.3735  0.9874
  145SAPE   H3S15858   2.621   1.076   6.072 -1.3788 -0.3877  0.1973
  145SAPE   C2415859   2.553   0.918   5.933 -0.3957  0.5417  0.2571
  145SAPE   H4R15860   2.464   0.852   5.941  1.2772 -1.7472  0.9499
  145SAPE   H4S15861   2.647   0.859   5.934 -0.9999 -0.4369  1.2289
  145SAPE   C2515862   2.543   0.996   5.800  0.0257 -0.2271  0.7051
  145SAPE   H5R15863   2.451   1.055   5.794  1.1194  1.3693 -1.7364
  145SAPE   C2615864   2.627   1.002   5.693  0.3017 -0.2134 -0.3868
  145SAPE   H6R15865   2.596   1.074   5.616  0.7683  1.8039  1.1892
  145SAPE   C2715866   2.758   0.923   5.674  0.4914 -0.6021 -0.1541
  145SAPE   H7R15867   2.722   0.843   5.606 -0.6176 -0.9906  0.8640
  145SAPE   H7S15868   2.799   0.879   5.767  0.7128 -1.7681 -0.7895
  145SAPE   C2815869   2.860   1.019   5.615 -0.4514 -0.3236  0.0562
  145SAPE   H8R15870   2.912   1.083   5.687 -0.3232 -0.9019  0.4832
  145SAPE   C2915871   2.887   1.046   5.485  0.7838 -0.0159  0.9756
  145SAPE   H9R15872   2.975   1.111   5.473 -1.1414  2.4262 -1.0790
  145SAPE  C21015873   2.836   0.980   5.361 -0.5968 -0.1923  0.3752
  145SAPE  H10R15874   2.745   0.919   5.377 -0.4138 -0.6917 -0.4248
  145SAPE  H10S15875   2.913   0.909   5.324 -0.0263 -0.1862  1.5063
  145SAPE  C21115876   2.823   1.088   5.252 -0.2062 -0.7269  0.1258
  145SAPE  H11R15877   2.778   1.179   5.292 -0.2671  0.5053 -2.5770
  145SAPE  C21215878   2.880   1.093   5.130 -0.1483  0.5674 -0.5338
  145SAPE  H12R15879   2.852   1.180   5.069 -4.2668  0.5963  1.0318
  145SAPE  C21315880   2.948   0.986   5.046  0.4564 -0.0813 -0.1008
  145SAPE  H13R15881   2.976   0.897   5.107 -0.3639 -0.2813  0.0031
  145SAPE  H13S15882   3.048   1.030   5.030  0.0843  1.5642  1.7428
  145SAPE  C21415883   2.851   0.927   4.939 -0.0850  0.3679  0.2825
  145SAPE  H14R15884   2.753   0.896   4.978 -0.8194  1.8451 -0.2688
  145SAPE  C21515885   2.863   0.918   4.805  0.0429  0.1727  0.1071
  145SAPE  H15R15886   2.778   0.872   4.752  1.6347 -2.6028 -0.2599
  145SAPE  C21615887   2.974   0.958   4.710  0.1799  1.0551 -0.8826
  145SAPE  H16R15888   3.017   0.866   4.665 -0.2265 -0.5898  1.9140
  145SAPE  H16S15889   3.045   1.018   4.771  0.4934 -1.6822  1.6510
  145SAPE  C21715890   2.923   1.040   4.594 -0.3853  0.3110 -0.5239
  145SAPE  H17R15891   2.851   0.975   4.540 -2.1089  2.5558 -1.0827
  145SAPE  H17S15892   3.006   1.053   4.521 -1.0285  2.9162 -0.9065
  145SAPE  C21815893   2.880   1.180   4.627  0.4263 -0.2797 -0.4294
  145SAPE  H18R15894   2.967   1.231   4.674  0.5286 -0.7166 -0.1472
  145SAPE  H18S15895   2.799   1.169   4.702  0.1640 -2.0986 -0.9531
  145SAPE  C21915896   2.833   1.262   4.504 -0.9699 -0.2795  0.2638
  145SAPE  H19R15897   2.743   1.219   4.455 -0.2697 -1.4172 -0.0872
  145SAPE  H19S15898   2.915   1.255   4.429 -0.4350 -1.1879  0.9083
  145SAPE  C22015899   2.808   1.411   4.537  0.4039 -0.1024 -0.5482
  145SAPE  H20R15900   2.787   1.480   4.451  1.1686  1.2213  0.2951
  145SAPE  H20S15901   2.900   1.456   4.581  0.3205 -0.5474  0.0780
  145SAPE  H20T15902   2.716   1.431   4.597 -0.2410 -1.2694 -1.1186
  145SAPE   C3315903   1.681   1.170   5.792  0.5950 -0.0719 -0.7687
  145SAPE   H3X15904   1.765   1.240   5.815 -1.2693  1.4262  1.9141
  145SAPE   H3Y15905   1.604   1.198   5.866  1.5131 -2.1149  1.0810
  145SAPE   C3415906   1.624   1.204   5.649 -0.1520 -0.0498  0.1112
  145SAPE   H4X15907   1.580   1.306   5.652  1.6180  0.8159 -1.3790
  145SAPE   H4Y15908   1.546   1.128   5.628 -0.0953 -0.0683 -0.0325
  145SAPE   C3515909   1.731   1.191   5.533 -0.1214 -0.1970  0.1797
  145SAPE   H5X15910   1.756   1.083   5.537  0.5985 -0.0869 -0.8175
  145SAPE   H5Y15911   1.825   1.243   5.561 -0.9083  0.6141  1.4396
  145SAPE   C3615912   1.675   1.227   5.397 -0.4981  0.2266 -0.4217
  145SAPE   H6X15913   1.664   1.335   5.371 -1.1652  0.4290  0.6419
  145SAPE   H6Y15914   1.571   1.188   5.397 -0.2921 -0.3605 -1.5895
  145SAPE   C3715915   1.753   1.152   5.288 -0.6742 -0.2506 -0.9546
  145SAPE   H7X15916   1.794   1.055   5.323 -0.2981  0.1363 -0.3017
  145SAPE   H7Y15917   1.845   1.213   5.274 -1.6081  1.3312 -0.4655
  145SAPE   C3815918   1.680   1.139   5.161  0.8961 -0.6947 -0.2428
  145SAPE   H8X15919   1.660   1.243   5.127 -1.1163 -0.5688  1.1806
  145SAPE   H8Y15920   1.584   1.088   5.183  1.3730 -0.9665  1.2811
  145SAPE   C3915921   1.758   1.049   5.056  0.3435  0.1694  0.0477
  145SAPE   H9X15922   1.790   0.958   5.112 -0.1393  0.6269  1.0924
  145SAPE   H9Y15923   1.852   1.098   5.024  1.7294 -2.5417 -0.3763
  145SAPE  C31015924   1.682   1.032   4.915 -0.1980 -0.4699 -0.2326
  145SAPE  H10X15925   1.577   1.012   4.945 -0.0245 -0.1187  0.6377
  145SAPE  H10Y15926   1.703   0.937   4.860  0.3173 -1.5038  1.6579
  145SAPE  C31115927   1.668   1.164   4.830  0.2110 -0.3052 -0.1423
  145SAPE  H11X15928   1.773   1.189   4.803  0.9799  1.5863  3.8425
  145SAPE  H11Y15929   1.627   1.251   4.886  0.0485  0.0257 -0.7615
  145SAPE  C31215930   1.575   1.148   4.707  0.0572 -0.4305 -0.6376
  145SAPE  H12X15931   1.482   1.099   4.743  0.4491 -0.2227  0.7294
  145SAPE  H12Y15932   1.618   1.090   4.622 -1.6322 -1.8129 -0.6186
  145SAPE  C31315933   1.531   1.285   4.654 -0.5357 -0.0558  0.3958
  145SAPE  H13X15934   1.497   1.351   4.737  0.3253  1.9039 -0.7280
  145SAPE  H13Y15935   1.437   1.262   4.598  0.8498 -1.4632 -1.4937
  145SAPE  C31415936   1.634   1.348   4.558  0.5940 -0.3945 -0.5040
  145SAPE  H14X15937   1.605   1.330   4.453 -2.8280  0.0122  0.2716
  145SAPE  H14Y15938   1.737   1.310   4.577 -0.6177 -3.2212  1.0004
  145SAPE  C31515939   1.647   1.497   4.567  1.1682 -0.5058 -0.1062
  145SAPE  H15X15940   1.668   1.534   4.669 -3.3418 -0.7148  1.1147
  145SAPE  H15Y15941   1.548   1.542   4.541  0.6322  0.5647  3.3640
  145SAPE  C31615942   1.760   1.539   4.468  0.4426  0.2439 -0.2156
  145SAPE  H16X15943   1.721   1.499   4.372 -3.9066 -1.3285  1.9552
  145SAPE  H16Y15944   1.861   1.498   4.492  0.1287 -0.5214 -0.1731
  145SAPE  C31715945   1.794   1.691   4.465  0.3386 -0.4911 -0.0052
  145SAPE  H17X15946   1.837   1.723   4.562 -0.8763 -0.4745  0.5541
  145SAPE  H17Y15947   1.704   1.754   4.448  0.8529  0.0843 -0.6541
  145SAPE  C31815948   1.882   1.728   4.343  0.2259 -0.7661  0.7082
  145SAPE  H18X15949   1.824   1.694   4.254  0.6942  0.2954 -0.0141
  145SAPE  H18Y15950   1.974   1.666   4.337  0.5475 -0.1203 -1.7719
  145SAPE  H18Z15951   1.915   1.833   4.335  1.3118 -1.1221  0.3834
  146SAPE     N15952   4.664   0.423   6.788 -0.4925  0.0522 -0.2657
  146SAPE   HN115953   4.677   0.521   6.757  0.6974 -0.6449 -2.1289
  146SAPE   HN215954   4.750   0.372   6.815 -0.4003  0.8641  1.0976
  146SAPE   HN315955   4.627   0.368   6.708  1.1600  1.2117 -1.9134
  146SAPE   C1215956   4.575   0.412   6.907 -0.1110  0.2108  0.1751
  146SAPE  H12A15957   4.480   0.368   6.871 -1.4873  1.3063  2.2112
  146SAPE  H12B15958   4.553   0.513   6.949 -2.6089  0.6040 -1.8726
  146SAPE   C1115959   4.643   0.322   7.013 -0.5619 -0.1271  0.2708
  146SAPE  H11A15960   4.581   0.331   7.105  0.2197  1.1421  0.7040
  146SAPE  H11B15961   4.730   0.377   7.056 -0.0893 -0.1786 -0.5968
  146SAPE     P15962   4.814   0.150   6.929 -0.1011 -0.1467 -0.1353
  146SAPE   O1315963   4.887   0.130   7.054  0.3879 -0.1060  0.2387
  146SAPE   O1415964   4.801   0.036   6.834  0.0917 -0.6743  0.3904
  146SAPE   O1215965   4.667   0.190   6.965  0.4029 -0.6697  0.0814
  146SAPE   O1115966   4.878   0.267   6.846 -0.2350  0.2890  0.3280
  146SAPE    C115967   4.972   0.229   6.743 -0.1507  0.1357  0.8119
  146SAPE    HA15968   5.051   0.162   6.783  0.3556  1.2558  1.7416
  146SAPE    HB15969   4.925   0.181   6.654 -0.9321  0.9956  0.7500
  146SAPE    C215970   5.043   0.354   6.683 -0.1785  0.8920  0.7477
  146SAPE    HS15971   5.081   0.403   6.775 -2.0118 -0.5478  2.3663
  146SAPE   O2115972   4.951   0.437   6.614 -0.9050 -0.1438  1.1437
  146SAPE   C2115973   4.995   0.560   6.577  0.2512  0.6185  0.2859
  146SAPE   O2215974   5.103   0.605   6.600  0.1315  0.1987 -0.0829
  146SAPE   C2215975   4.874   0.621   6.491  0.2195  0.6114  0.1019
  146SAPE   H2R15976   4.806   0.537   6.467 -0.2530  0.9834  0.1297
  146SAPE   H2S15977   4.812   0.693   6.548 -1.3383  1.6403 -2.6985
  146SAPE    C315978   5.158   0.306   6.586  0.3726  0.5354 -0.3258
  146SAPE    HX15979   5.232   0.248   6.645  1.0248  0.5748 -1.0955
  146SAPE    HY15980   5.222   0.395   6.568  1.4361  0.0185  0.7736
  146SAPE   O3115981   5.115   0.232   6.472 -0.7960 -0.6510  0.5759
  146SAPE   C3115982   5.207   0.230   6.369  0.3241 -0.3065 -0.4807
  146SAPE   O3215983   5.315   0.286   6.368  0.0263 -0.0299  0.0160
  146SAPE   C3215984   5.159   0.141   6.257  0.3811 -0.0993  0.1350
  146SAPE   H2X15985   5.081   0.186   6.192  0.2832  0.6546  0.7579
  146SAPE   H2Y15986   5.124   0.044   6.299  1.6481 -0.2628  0.8482
  146SAPE   C2315987   4.919   0.707   6.366  0.4436  0.1747 -0.4739
  146SAPE   H3R15988   4.985   0.793   6.392 -1.3873  0.9102  2.1477
  146SAPE   H3S15989   4.831   0.751   6.314 -1.2800 -1.5047  0.8675
  146SAPE   C2415990   4.993   0.623   6.261  0.5115 -0.2516  0.1507
  146SAPE   H4R15991   5.062   0.551   6.310  2.1119  1.3973  0.4097
  146SAPE   H4S15992   5.060   0.691   6.205 -1.1704  1.1205 -0.2915
  146SAPE   C2515993   4.913   0.551   6.154 -0.4282  0.2673  0.0079
  146SAPE   H5R15994   4.810   0.524   6.180 -0.5143 -3.1669 -3.0726
  146SAPE   C2615995   4.960   0.524   6.032 -0.1176 -0.4550 -0.1001
  146SAPE   H6R15996   4.887   0.479   5.963 -0.3744  0.9647 -0.7859
  146SAPE   C2715997   5.096   0.549   5.975 -0.2017  0.0876 -0.2935
  146SAPE   H7R15998   5.145   0.452   6.000 -1.1140 -0.1937  0.4516
  146SAPE   H7S15999   5.155   0.631   6.021 -1.4848  1.0521 -0.2996
  146SAPE   C2816000   5.101   0.559   5.825 -0.6069  0.4996  0.6888
  146SAPE   H8R16001   5.113   0.658   5.779  2.9601 -0.5995 -1.1299
  146SAPE   C2916002   5.090   0.454   5.738 -0.5013  0.5052  0.4396
  146SAPE   H9R16003   5.104   0.471   5.630  0.5251  0.2897  0.5302
  146SAPE  C21016004   5.077   0.311   5.775  0.2419  0.3013  0.3278
  146SAPE  H10R16005   5.041   0.312   5.880  0.7790 -1.8669  0.5734
  146SAPE  H10S16006   5.174   0.259   5.761 -0.0913  0.2062 -2.0084
  146SAPE  C21116007   4.970   0.241   5.692 -0.4816 -0.3558 -0.4100
  146SAPE  H11R16008   4.870   0.285   5.707  0.5066  2.2546 -0.9207
  146SAPE  C21216009   4.987   0.135   5.617 -0.7873 -0.1880 -0.8698
  146SAPE  H12R16010   4.905   0.086   5.563 -0.7139 -1.4720  0.1189
  146SAPE  C21316011   5.118   0.069   5.584  0.2311 -0.1265 -0.0466
  146SAPE  H13R16012   5.098  -0.036   5.553 -0.4207 -0.0355  0.0491
  146SAPE  H13S16013   5.182   0.060   5.674  0.2768 -1.2879 -0.1734
  146SAPE  C21416014   5.175   0.156   5.472 -0.2283  0.4945  0.1135
  146SAPE  H14R16015   5.193   0.261   5.500 -1.2957  0.5650  0.5611
  146SAPE  C21516016   5.231   0.111   5.355  0.6020 -0.1979  0.0925
  146SAPE  H15R16017   5.272   0.194   5.296 -3.2720  1.4385 -0.5864
  146SAPE  C21616018   5.238  -0.022   5.297 -0.6594  0.7603 -0.1097
  146SAPE  H16R16019   5.241  -0.097   5.379  0.3250  1.3024  0.3731
  146SAPE  H16S16020   5.340  -0.037   5.255  0.0392 -0.8554  1.9787
  146SAPE  C21716021   5.124  -0.054   5.192  0.1261 -0.6084  0.5660
  146SAPE  H17R16022   5.025  -0.008   5.211  0.4245  0.8384 -1.1733
  146SAPE  H17S16023   5.111  -0.164   5.181  1.2577 -0.5199 -2.6438
  146SAPE  C21816024   5.162   0.009   5.057 -0.4564  0.2822 -0.0578
  146SAPE  H18R16025   5.261  -0.033   5.028  0.1929  2.7766 -1.6868
  146SAPE  H18S16026   5.163   0.119   5.067 -0.6226  0.3207 -0.4687
  146SAPE  C21916027   5.068  -0.023   4.940 -0.2825  0.1523  0.2639
  146SAPE  H19R16028   5.061  -0.131   4.916 -0.4736  0.3408 -0.5710
  146SAPE  H19S16029   5.111   0.014   4.844  0.6565 -1.7235 -0.0765
  146SAPE  C22016030   4.934   0.028   4.948 -1.4399 -0.1876 -1.1888
  146SAPE  H20R16031   4.877   0.002   4.857 -1.8207  2.7359 -1.8980
  146SAPE  H20S16032   4.951   0.137   4.967 -0.5779 -0.9241  3.6099
  146SAPE  H20T16033   4.879  -0.009   5.037  1.2591  1.6266  1.4206
  146SAPE   C3316034   5.285   0.107   6.168  0.1043 -0.4626 -0.7174
  146SAPE   H3X16035   5.359   0.049   6.226 -0.0926  1.8748  2.0862
  146SAPE   H3Y16036   5.334   0.203   6.141  0.6568 -0.3096  0.7529
  146SAPE   C3416037   5.255   0.045   6.027  0.1588  0.0995  0.2438
  146SAPE   H4X16038   5.344   0.024   5.963  0.1012  0.6944 -0.0407
  146SAPE   H4Y16039   5.187   0.102   5.960 -0.0567  0.9458  1.1612
  146SAPE   C3516040   5.192  -0.096   6.023  0.1639  0.1838  0.3354
  146SAPE   H5X16041   5.095  -0.093   6.076  0.8472  1.6093  1.5942
  146SAPE   H5Y16042   5.256  -0.160   6.089  0.5452 -1.2440 -1.3540
  146SAPE   C3616043   5.177  -0.156   5.881  0.1916  0.9594  0.0137
  146SAPE   H6X16044   5.230  -0.083   5.816 -1.4622  2.2351  0.0455
  146SAPE   H6Y16045   5.068  -0.157   5.858 -0.3102  0.1436  2.1804
  146SAPE   C3716046   5.238  -0.301   5.865 -0.4756  0.1932  0.2307
  146SAPE   H7X16047   5.183  -0.376   5.927 -1.3074  0.1559 -0.5394
  146SAPE   H7Y16048   5.339  -0.307   5.913  0.6020 -0.1005 -1.9524
  146SAPE   C3816049   5.251  -0.354   5.721  0.1875  0.6380  0.3459
  146SAPE   H8X16050   5.297  -0.273   5.660  1.1831  1.1652  1.7391
  146SAPE   H8Y16051   5.143  -0.355   5.695 -0.3790  1.4089  2.4866
  146SAPE   C3916052   5.323  -0.487   5.693 -0.3903 -0.0141  0.0499
  146SAPE   H9X16053   5.263  -0.573   5.730 -2.4168  1.3680  0.0963
  146SAPE   H9Y16054   5.419  -0.487   5.750 -2.0017 -1.7142  3.0067
  146SAPE  C31016055   5.353  -0.495   5.541  0.3029  0.4617 -0.0891
  146SAPE  H10X16056   5.411  -0.584   5.508  1.9308  1.1011  0.9487
  146SAPE  H10Y16057   5.426  -0.415   5.519  0.7794 -0.4724 -2.1141
  146SAPE  C31116058   5.234  -0.464   5.441  0.5123 -0.5666  0.4940
  146SAPE  H11X16059   5.282  -0.459   5.340  0.1057 -0.4338  0.3072
  146SAPE  H11Y16060   5.193  -0.367   5.475 -0.1898 -0.3196 -1.0019
  146SAPE  C31216061   5.136  -0.572   5.426  0.0333  0.2308 -0.0412
  146SAPE  H12X16062   5.065  -0.580   5.511 -0.7753  0.3759 -0.6884
  146SAPE  H12Y16063   5.180  -0.675   5.422  0.4190  0.3734  0.4300
  146SAPE  C31316064   5.045  -0.547   5.303  0.1502  0.1954 -0.4296
  146SAPE  H13X16065   4.976  -0.633   5.288 -0.4355  0.7291 -0.8817
  146SAPE  H13Y16066   5.101  -0.539   5.207 -1.8273  1.2164 -1.5649
  146SAPE  C31416067   4.963  -0.420   5.321  0.4895 -0.3467  0.1808
  146SAPE  H14X16068   5.040  -0.340   5.329  2.6307 -2.2056 -0.7372
  146SAPE  H14Y16069   4.901  -0.396   5.410  1.4381  2.6350  0.1266
  146SAPE  C31516070   4.876  -0.387   5.196 -0.3127  0.5576 -0.4476
  146SAPE  H15X16071   4.859  -0.278   5.201 -0.6301  0.4781  0.2426
  146SAPE  H15Y16072   4.776  -0.435   5.194  1.2002 -2.9278 -0.7926
  146SAPE  C31616073   4.936  -0.404   5.053 -0.3084  0.1670 -0.2610
  146SAPE  H16X16074   4.980  -0.506   5.046  0.2655  0.3037  1.0686
  146SAPE  H16Y16075   5.012  -0.324   5.044  1.3591 -1.1367  1.4315
  146SAPE  C31716076   4.832  -0.390   4.940 -0.5388  0.6365 -0.5920
  146SAPE  H17X16077   4.781  -0.294   4.964 -2.0498 -0.3099  0.1123
  146SAPE  H17Y16078   4.764  -0.477   4.942  1.4845 -1.0287  0.9947
  146SAPE  C31816079   4.885  -0.365   4.797  0.2228 -0.8418 -0.4529
  146SAPE  H18X16080   4.938  -0.448   4.747 -0.6242 -1.6354 -0.0610
  146SAPE  H18Y16081   4.949  -0.274   4.793 -0.7911 -0.0153  0.8995
  146SAPE  H18Z16082   4.808  -0.332   4.724  2.0246  2.2580 -1.1495
  147SAPE     N16083   2.310   5.554   7.174  0.1007 -0.4366  0.1523
  147SAPE   HN116084   2.226   5.588   7.225 -0.2089  1.6337 -1.5727
  147SAPE   HN216085   2.347   5.467   7.216 -2.6077 -1.8114 -0.0921
  147SAPE   HN316086   2.386   5.624   7.189 -0.3275  0.2985 -1.0078
  147SAPE   C1216087   2.271   5.542   7.031 -0.2259 -0.3041  0.1078
  147SAPE  H12A16088   2.355   5.509   6.967 -0.2191  2.0750 -1.2069
  147SAPE  H12B16089   2.235   5.639   6.989 -1.1999 -1.5324 -2.0260
  147SAPE   C1116090   2.148   5.443   7.016 -0.9642 -0.9095  0.0283
  147SAPE  H11A16091   2.169   5.362   7.089  1.0078  0.1482  0.7099
  147SAPE  H11B16092   2.146   5.400   6.914 -2.5286  1.2276 -0.9431
  147SAPE     P16093   1.963   5.536   7.182 -0.0245 -0.2261  0.4322
  147SAPE   O1316094   2.055   5.620   7.272  0.5179  0.4962 -0.1176
  147SAPE   O1416095   1.826   5.593   7.156 -0.6349  0.0295  0.4691
  147SAPE   O1216096   2.032   5.512   7.041 -0.2777 -0.7338  0.4990
  147SAPE   O1116097   1.950   5.390   7.253 -0.3243  0.6837  0.4628
  147SAPE    C116098   1.824   5.317   7.231  0.0039 -1.1846 -0.7547
  147SAPE    HA16099   1.809   5.246   7.315  2.3134 -1.8518 -0.8169
  147SAPE    HB16100   1.737   5.381   7.206  1.2613  1.1726  0.5152
  147SAPE    C216101   1.829   5.210   7.114 -0.8111 -0.2734  0.3582
  147SAPE    HS16102   1.915   5.143   7.139  0.1136  0.3319 -1.0428
  147SAPE   O2116103   1.840   5.278   6.989 -0.9994 -0.4056 -0.4153
  147SAPE   C2116104   1.916   5.222   6.892  0.1754  1.0542  0.9564
  147SAPE   O2216105   1.985   5.124   6.902  1.1064 -0.1532 -0.0152
  147SAPE   C2216106   1.889   5.301   6.764 -0.6762  0.6450 -0.4666
  147SAPE   H2R16107   1.852   5.402   6.792  0.6753  1.1087 -0.2653
  147SAPE   H2S16108   1.989   5.314   6.717  0.0877 -2.0510  0.2363
  147SAPE    C316109   1.705   5.120   7.117 -0.0913 -0.5139  0.2137
  147SAPE    HX16110   1.605   5.166   7.129 -0.7089 -1.6732 -0.3334
  147SAPE    HY16111   1.722   5.048   7.200  0.4339 -2.1572 -1.2524
  147SAPE   O3116112   1.703   5.048   6.993  0.8173  0.4624  0.1125
  147SAPE   C3116113   1.763   4.931   6.976  0.4708  0.1194 -0.6590
  147SAPE   O3216114   1.838   4.876   7.060 -0.2407 -0.1719  0.3557
  147SAPE   C3216115   1.738   4.882   6.839 -0.3280  1.0364  0.2370
  147SAPE   H2X16116   1.756   4.967   6.769 -0.1965  0.9182  0.1281
  147SAPE   H2Y16117   1.634   4.844   6.837  0.2022 -0.4964  0.4968
  147SAPE   C2316118   1.790   5.239   6.662 -0.2703 -0.2420  0.1220
  147SAPE   H3R16119   1.693   5.255   6.714 -0.5979  1.7567 -1.0214
  147SAPE   H3S16120   1.800   5.129   6.654 -3.7722 -0.7281  0.6091
  147SAPE   C2416121   1.805   5.305   6.525  0.0975  0.2637  0.5226
  147SAPE   H4R16122   1.905   5.279   6.485  0.0809  0.8647  0.0681
  147SAPE   H4S16123   1.801   5.416   6.539  0.7614  0.0687  2.5034
  147SAPE   C2516124   1.698   5.276   6.422  0.3408 -0.6927 -0.0847
  147SAPE   H5R16125   1.596   5.294   6.458  0.1135 -2.2378  0.1263
  147SAPE   C2616126   1.701   5.226   6.297 -1.2413 -0.0445 -0.6543
  147SAPE   H6R16127   1.605   5.226   6.242 -1.5557  1.0936 -0.1405
  147SAPE   C2716128   1.828   5.197   6.218 -0.5313 -0.3811  0.4708
  147SAPE   H7R16129   1.923   5.233   6.262  0.5181  0.8882 -2.6067
  147SAPE   H7S16130   1.817   5.260   6.128 -0.2758 -0.9881  0.0040
  147SAPE   C2816131   1.837   5.052   6.202  0.6237 -0.3179  0.8140
  147SAPE   H8R16132   1.841   4.991   6.293  0.5940  0.1370  1.1192
  147SAPE   C2916133   1.839   4.990   6.079 -0.7391 -0.1608  0.0187
  147SAPE   H9R16134   1.867   4.884   6.077 -0.7809 -0.3137  3.3394
  147SAPE  C21016135   1.842   5.072   5.951 -0.0322 -0.3353 -1.0761
  147SAPE  H10R16136   1.934   5.131   5.932  1.0411 -1.9028 -0.8380
  147SAPE  H10S16137   1.759   5.147   5.947  0.1357  0.1480  2.2112
  147SAPE  C21116138   1.816   4.982   5.835  0.3986  0.0789 -0.2168
  147SAPE  H11R16139   1.825   4.877   5.864  1.1695  0.5203  1.2417
  147SAPE  C21216140   1.795   5.019   5.706 -0.5118  0.3072  0.0951
  147SAPE  H12R16141   1.775   4.936   5.637 -1.5596  1.4510 -1.0040
  147SAPE  C21316142   1.762   5.163   5.658 -0.0089  1.1860  0.8128
  147SAPE  H13R16143   1.810   5.231   5.732  1.1161  1.9306 -0.5653
  147SAPE  H13S16144   1.654   5.185   5.673 -0.4998 -1.0338  0.7959
  147SAPE  C21416145   1.822   5.194   5.516  0.4507 -0.5218  0.0022
  147SAPE  H14R16146   1.931   5.188   5.522  0.3758 -0.2121  2.9302
  147SAPE  C21516147   1.761   5.207   5.393  0.5857  0.1261 -0.9087
  147SAPE  H15R16148   1.832   5.229   5.312  3.1317  2.6287  1.7437
  147SAPE  C21616149   1.611   5.195   5.357  0.1126 -0.3038  0.3157
  147SAPE  H16R16150   1.565   5.138   5.441  0.7833  0.3656  1.1532
  147SAPE  H16S16151   1.596   5.121   5.275  1.5679 -0.7637  0.4435
  147SAPE  C21716152   1.543   5.328   5.328  0.2195 -0.1801  0.3036
  147SAPE  H17R16153   1.603   5.385   5.254 -1.0676 -1.2388 -1.6467
  147SAPE  H17S16154   1.523   5.391   5.417 -3.9505 -0.1595 -0.4536
  147SAPE  C21816155   1.408   5.320   5.266  0.3764  0.6313  0.5907
  147SAPE  H18R16156   1.383   5.428   5.255  0.3482  0.4594 -1.2764
  147SAPE  H18S16157   1.330   5.260   5.318  0.6632 -0.1671  0.1125
  147SAPE  C21916158   1.406   5.292   5.112  0.6696 -0.9397 -0.5556
  147SAPE  H19R16159   1.431   5.185   5.092  2.7018 -0.7703  0.8244
  147SAPE  H19S16160   1.483   5.355   5.063 -0.4536  0.5482 -0.4726
  147SAPE  C22016161   1.268   5.324   5.048 -0.0498 -0.0137  0.3743
  147SAPE  H20R16162   1.190   5.251   5.080 -0.8172  1.5150  2.2000
  147SAPE  H20S16163   1.276   5.336   4.938 -1.3979 -0.3834  0.2161
  147SAPE  H20T16164   1.242   5.426   5.086 -1.1875  0.4596 -1.5397
  147SAPE   C3316165   1.832   4.761   6.807  0.3077  0.2260 -0.4414
  147SAPE   H3X16166   1.796   4.676   6.868  2.2106  0.3845  0.9818
  147SAPE   H3Y16167   1.941   4.774   6.828  0.1695  1.5828 -0.4979
  147SAPE   C3416168   1.817   4.708   6.660  0.6403 -0.5490  0.3036
  147SAPE   H4X16169   1.713   4.672   6.654  0.4812 -0.2833  1.2882
  147SAPE   H4Y16170   1.886   4.628   6.627  0.6563 -0.0944 -0.7973
  147SAPE   C3516171   1.844   4.827   6.559  0.1681 -0.0635  0.0921
  147SAPE   H5X16172   1.780   4.915   6.581 -1.0190 -1.1008  0.9527
  147SAPE   H5Y16173   1.818   4.798   6.455 -2.8532  2.6982 -0.0906
  147SAPE   C3616174   1.986   4.895   6.576 -0.6326  0.2754 -0.5242
  147SAPE   H6X16175   2.059   4.811   6.581  1.6028  2.2001  2.2713
  147SAPE   H6Y16176   2.001   4.944   6.674  2.3704 -1.6937  0.1690
  147SAPE   C3716177   2.036   4.989   6.467 -0.0839  0.2471 -0.2274
  147SAPE   H7X16178   1.959   5.063   6.437 -1.8096 -2.0283 -1.7620
  147SAPE   H7Y16179   2.049   4.935   6.370 -1.0041  1.0731 -0.8289
  147SAPE   C3816180   2.160   5.068   6.498 -1.0887 -0.4528 -0.5656
  147SAPE   H8X16181   2.161   5.106   6.603 -1.0848  2.2307 -1.4608
  147SAPE   H8Y16182   2.178   5.163   6.445 -0.9095  0.8215  1.6439
  147SAPE   C3916183   2.276   4.974   6.470  0.5338  0.4713  0.4181
  147SAPE   H9X16184   2.250   4.913   6.381  2.1032 -1.6234  1.3234
  147SAPE   H9Y16185   2.277   4.895   6.548 -2.8869  0.1234  0.2576
  147SAPE  C31016186   2.416   5.040   6.460  0.3223 -0.4369 -0.1095
  147SAPE  H10X16187   2.487   4.956   6.451  2.2398  0.7716  2.5277
  147SAPE  H10Y16188   2.451   5.100   6.547  1.7943 -2.0278  0.4409
  147SAPE  C31116189   2.425   5.122   6.326  0.6892 -0.5581 -0.8192
  147SAPE  H11X16190   2.365   5.215   6.335  0.6511 -0.7976  2.7897
  147SAPE  H11Y16191   2.389   5.060   6.241 -0.3934 -0.8342 -0.1791
  147SAPE  C31216192   2.568   5.158   6.298  0.0605 -0.9886  0.1292
  147SAPE  H12X16193   2.625   5.075   6.253 -1.1775 -0.5352 -2.4577
  147SAPE  H12Y16194   2.612   5.192   6.395  0.7299  0.1075 -0.5355
  147SAPE  C31316195   2.582   5.268   6.187  0.3420  0.5661 -0.0570
  147SAPE  H13X16196   2.691   5.289   6.187  1.3828 -3.5666  2.6261
  147SAPE  H13Y16197   2.530   5.362   6.217 -1.0516 -0.7708  2.0739
  147SAPE  C31416198   2.540   5.231   6.040  0.5395 -1.1172 -0.3939
  147SAPE  H14X16199   2.430   5.248   6.030  0.6993  0.9340  0.6739
  147SAPE  H14Y16200   2.573   5.130   6.010 -0.1023 -0.2849 -4.5088
  147SAPE  C31516201   2.594   5.343   5.935  0.4774  0.2886 -0.5433
  147SAPE  H15X16202   2.705   5.340   5.935  0.5775  1.5391 -2.7733
  147SAPE  H15Y16203   2.563   5.448   5.954  2.6094  1.1057 -1.2611
  147SAPE  C31616204   2.550   5.322   5.786 -1.0959 -0.4040  0.7849
  147SAPE  H16X16205   2.442   5.349   5.777 -2.2986 -3.6161  3.5342
  147SAPE  H16Y16206   2.560   5.212   5.778  0.7952 -0.1841 -0.5367
  147SAPE  C31716207   2.624   5.404   5.674  0.0596 -0.0143 -0.1107
  147SAPE  H17X16208   2.735   5.391   5.674  0.1189  0.3191  1.1695
  147SAPE  H17Y16209   2.613   5.513   5.694 -0.0719 -0.0897  0.2401
  147SAPE  C31816210   2.569   5.381   5.532  0.2762 -0.2892  0.5299
  147SAPE  H18X16211   2.552   5.271   5.521 -2.1432 -0.4015  3.8239
  147SAPE  H18Y16212   2.641   5.425   5.460 -0.8811  0.4995 -0.1711
  147SAPE  H18Z16213   2.474   5.431   5.504  0.1249 -1.2113 -0.6890
  148SAPE     N16214   0.191   6.042   6.885  0.4401 -0.4046 -0.0909
  148SAPE   HN116215   0.176   6.138   6.921  1.2891 -0.0737 -0.5922
  148SAPE   HN216216   0.211   5.973   6.960 -0.9751  3.4546  4.3168
  148SAPE   HN316217   0.248   6.048   6.798 -0.9376 -0.7799 -1.0535
  148SAPE   C1216218   0.063   6.002   6.818  0.2225  0.1073  1.0653
  148SAPE  H12A16219   0.083   5.901   6.776  4.0773  0.1915  2.2932
  148SAPE  H12B16220   0.039   6.074   6.736 -0.7295  0.8663  1.9847
  148SAPE   C1116221  -0.053   6.020   6.923 -0.0831  0.5644  0.2729
  148SAPE  H11A16222  -0.055   5.936   6.995 -2.3855  1.2944  1.1630
  148SAPE  H11B16223  -0.151   6.006   6.872  0.5914  1.4546 -1.3392
  148SAPE     P16224  -0.117   6.271   6.921  0.1176 -0.0900  0.1660
  148SAPE   O1316225  -0.251   6.242   6.860 -0.1231 -0.3666 -0.1335
  148SAPE   O1416226  -0.108   6.377   7.024 -0.3585 -0.3315  0.3071
  148SAPE   O1216227  -0.048   6.144   6.987 -0.5206  0.1705 -0.3576
  148SAPE   O1116228  -0.014   6.301   6.806  0.4717  0.1954 -0.0618
  148SAPE    C116229  -0.031   6.421   6.732 -0.0155  0.0521  0.3327
  148SAPE    HA16230  -0.095   6.490   6.791  0.8562  0.4106  0.8710
  148SAPE    HB16231   0.056   6.488   6.714 -0.1803  0.6787  1.7143
  148SAPE    C216232  -0.080   6.397   6.585  0.5080 -0.5772  0.5297
  148SAPE    HS16233  -0.069   6.491   6.526 -0.5160 -0.8159 -0.0593
  148SAPE   O2116234  -0.214   6.359   6.576 -0.1312  0.3037  0.6321
  148SAPE   C2116235  -0.306   6.459   6.576 -0.8416 -0.2497  0.3249
  148SAPE   O2216236  -0.289   6.578   6.585  0.1886 -0.3709 -0.3386
  148SAPE   C2216237  -0.438   6.391   6.576  0.4100  0.3404 -0.1079
  148SAPE   H2R16238  -0.441   6.284   6.605  2.0263  0.9448  2.5990
  148SAPE   H2S16239  -0.487   6.440   6.663 -0.2028 -1.9852  0.9121
  148SAPE    C316240   0.015   6.293   6.513 -0.4038  0.5485 -0.6836
  148SAPE    HX16241  -0.007   6.201   6.571  2.6239 -1.1954 -2.0422
  148SAPE    HY16242   0.124   6.314   6.528 -0.6130  0.2133  1.8074
  148SAPE   O3116243  -0.016   6.278   6.379 -0.5010  0.1787  0.3651
  148SAPE   C3116244   0.037   6.178   6.308  0.5702  0.8300 -0.2707
  148SAPE   O3216245   0.113   6.094   6.357 -0.6464 -0.0305 -0.0456
  148SAPE   C3216246  -0.011   6.177   6.167  0.3412  0.1878  0.2829
  148SAPE   H2X16247  -0.120   6.193   6.172  0.4686  1.7457 -1.2107
  148SAPE   H2Y16248  -0.001   6.073   6.127 -2.3143  0.5612 -1.6011
  148SAPE   C2316249  -0.516   6.431   6.444 -0.7172 -0.5580 -0.1618
  148SAPE   H3R16250  -0.485   6.527   6.398 -2.7993  0.2651  0.0602
  148SAPE   H3S16251  -0.625   6.428   6.464 -0.3788  0.0949  2.0037
  148SAPE   C2416252  -0.475   6.325   6.332 -0.1856 -0.8418  0.2925
  148SAPE   H4R16253  -0.558   6.317   6.260 -0.7460 -1.8664  1.0245
  148SAPE   H4S16254  -0.483   6.228   6.385 -2.2320  0.0065  1.6397
  148SAPE   C2516255  -0.334   6.346   6.275  1.0070 -0.8461  0.2823
  148SAPE   H5R16256  -0.257   6.296   6.336 -0.1382 -0.5049  2.0508
  148SAPE   C2616257  -0.298   6.393   6.157 -0.2534  0.2524  0.4864
  148SAPE   H6R16258  -0.190   6.400   6.138 -0.4547  0.1554 -0.8171
  148SAPE   C2716259  -0.397   6.455   6.059  0.0533  0.4661  0.1438
  148SAPE   H7R16260  -0.505   6.433   6.071 -0.1488  1.7196  0.7093
  148SAPE   H7S16261  -0.376   6.412   5.958  0.4689  0.5322  0.1998
  148SAPE   C2816262  -0.370   6.604   6.061  0.6066 -0.6158  0.6365
  148SAPE   H8R16263  -0.347   6.649   6.158  3.0258 -0.4291  0.0356
  148SAPE   C2916264  -0.379   6.684   5.951 -0.1216 -0.4540 -0.5637
  148SAPE   H9R16265  -0.363   6.793   5.953  0.7738 -0.5826  0.5981
  148SAPE  C21016266  -0.419   6.642   5.816  0.3856 -0.8041 -0.3461
  148SAPE  H10R16267  -0.375   6.542   5.799  1.1161 -0.7096  0.8896
  148SAPE  H10S16268  -0.379   6.705   5.733  0.1580  0.6458  0.6130
  148SAPE  C21116269  -0.573   6.629   5.789  0.2605 -0.5007 -0.8105
  148SAPE  H11R16270  -0.638   6.626   5.878  2.6832  1.7808  1.1803
  148SAPE  C21216271  -0.653   6.628   5.676  0.3318 -0.2028 -0.1177
  148SAPE  H12R16272  -0.759   6.599   5.680 -0.3143  1.3608 -2.8803
  148SAPE  C21316273  -0.603   6.630   5.533 -0.2652 -0.4028 -0.8347
  148SAPE  H13R16274  -0.681   6.576   5.473 -0.0084 -0.4249 -1.1488
  148SAPE  H13S16275  -0.514   6.566   5.519  0.1240 -0.2195  0.6301
  148SAPE  C21416276  -0.584   6.777   5.485  0.5497  0.1799 -0.1564
  148SAPE  H14R16277  -0.479   6.810   5.491  1.6221 -2.8783 -0.1453
  148SAPE  C21516278  -0.676   6.857   5.428  0.2552  0.8311  0.5178
  148SAPE  H15R16279  -0.653   6.962   5.401 -1.5977  1.4827  1.2837
  148SAPE  C21616280  -0.823   6.818   5.404  0.0924 -0.9782  0.3235
  148SAPE  H16R16281  -0.892   6.902   5.429 -0.9376 -0.7995 -2.7551
  148SAPE  H16S16282  -0.855   6.733   5.467 -1.2097 -1.1196 -0.4869
  148SAPE  C21716283  -0.854   6.771   5.265 -0.2299 -0.2162 -0.6492
  148SAPE  H17R16284  -0.957   6.729   5.261  0.2185 -1.4276 -0.0862
  148SAPE  H17S16285  -0.785   6.687   5.241 -1.4698 -1.6015  0.4352
  148SAPE  C21816286  -0.820   6.875   5.152  0.7392 -0.1385  0.1100
  148SAPE  H18R16287  -0.716   6.912   5.146  0.2941  1.2751  0.6985
  148SAPE  H18S16288  -0.888   6.963   5.154 -0.8873 -1.1849 -2.8874
  148SAPE  C21916289  -0.846   6.807   5.020  0.1407  0.1118  0.4423
  148SAPE  H19R16290  -0.946   6.760   5.029  0.0932  0.1249  0.0035
  148SAPE  H19S16291  -0.768   6.729   5.006  1.2350  1.3432 -0.6073
  148SAPE  C22016292  -0.848   6.913   4.907  0.3726 -0.3325 -0.5461
  148SAPE  H20R16293  -0.932   6.981   4.934 -1.5326 -2.7326 -0.0790
  148SAPE  H20S16294  -0.881   6.862   4.814  0.1062  0.3696 -0.8434
  148SAPE  H20T16295  -0.753   6.966   4.885  1.1144  0.0005  2.9366
  148SAPE   C3316296   0.075   6.276   6.084  0.1922  0.2882  0.2014
  148SAPE   H3X16297   0.182   6.247   6.086  0.2028  0.3567  0.7629
  148SAPE   H3Y16298   0.087   6.379   6.126  1.6569  1.1564 -2.1383
  148SAPE   C3416299   0.030   6.294   5.940 -0.1062  0.5018  0.7579
  148SAPE   H4X16300   0.108   6.347   5.881  2.1035 -2.6138  0.6196
  148SAPE   H4Y16301  -0.062   6.355   5.926 -1.9011 -2.2137 -0.0111
  148SAPE   C3516302   0.011   6.158   5.865 -0.0093 -0.1364 -0.2612
  148SAPE   H5X16303  -0.096   6.130   5.859 -0.0587  0.1287 -0.6520
  148SAPE   H5Y16304   0.061   6.076   5.920 -0.6600 -0.4472 -0.1312
  148SAPE   C3616305   0.077   6.163   5.721  0.4126  0.5829 -0.0540
  148SAPE   H6X16306   0.187   6.175   5.721  0.6566 -1.2907  1.7078
  148SAPE   H6Y16307   0.042   6.253   5.665 -1.0370  0.5366  0.7331
  148SAPE   C3716308   0.048   6.038   5.627  0.1074  0.0372  0.0386
  148SAPE   H7X16309  -0.057   6.040   5.591  0.4220  1.9210 -0.8787
  148SAPE   H7Y16310   0.057   5.944   5.685  2.4084  1.2161  1.7726
  148SAPE   C3816311   0.141   6.041   5.503  0.6061 -0.7151 -0.5080
  148SAPE   H8X16312   0.248   6.024   5.530  1.1356  2.4511 -0.1628
  148SAPE   H8Y16313   0.143   6.144   5.461 -1.2773 -0.0218  0.9631
  148SAPE   C3916314   0.094   5.939   5.400  0.0844 -0.0489  0.3526
  148SAPE   H9X16315  -0.009   5.965   5.371  0.7567  1.2772 -0.9929
  148SAPE   H9Y16316   0.084   5.838   5.446 -2.2126 -0.0415 -0.0538
  148SAPE  C31016317   0.195   5.928   5.286  0.1281  0.1858  0.1065
  148SAPE  H10X16318   0.285   5.868   5.312 -1.2830 -0.6955  3.4027
  148SAPE  H10Y16319   0.223   6.033   5.263  1.6017 -0.6730 -2.4674
  148SAPE  C31116320   0.141   5.862   5.158 -0.1273 -0.3545 -0.0672
  148SAPE  H11X16321   0.217   5.883   5.080 -0.3555  0.0889 -0.1709
  148SAPE  H11Y16322   0.047   5.899   5.112 -1.9977 -2.0348  2.1197
  148SAPE  C31216323   0.129   5.710   5.168 -0.2320 -0.2654 -0.8692
  148SAPE  H12X16324   0.067   5.680   5.255  1.7628 -2.0961 -0.0065
  148SAPE  H12Y16325   0.234   5.675   5.181  0.4042  1.5211 -0.9421
  148SAPE  C31316326   0.052   5.641   5.053 -0.0318 -0.0363  0.3853
  148SAPE  H13X16327  -0.043   5.697   5.039  1.1658  1.6016 -1.8012
  148SAPE  H13Y16328   0.033   5.534   5.078  0.4604  0.3303  2.5255
  148SAPE  C31416329   0.126   5.632   4.914 -0.4324 -0.3056  1.1959
  148SAPE  H14X16330   0.226   5.603   4.953 -0.3480  0.8113  1.8604
  148SAPE  H14Y16331   0.147   5.729   4.864  0.2200 -1.8438 -1.7014
  148SAPE  C31516332   0.066   5.528   4.815  0.3215  0.5806  0.0758
  148SAPE  H15X16333   0.085   5.422   4.841  0.7166  0.6369  0.0090
  148SAPE  H15Y16334   0.102   5.547   4.712  1.8163  0.4134  0.5560
  148SAPE  C31616335  -0.095   5.541   4.813 -0.1297  0.2576  0.1574
  148SAPE  H16X16336  -0.106   5.651   4.815  1.2428  0.4492 -1.1963
  148SAPE  H16Y16337  -0.139   5.499   4.905 -1.6296  2.2335  0.4008
  148SAPE  C31716338  -0.162   5.483   4.689  0.4972 -0.0411 -0.4507
  148SAPE  H17X16339  -0.106   5.387   4.686 -1.0980 -1.0227  0.1857
  148SAPE  H17Y16340  -0.119   5.529   4.597  0.6094 -1.6070 -1.2163
  148SAPE  C31816341  -0.318   5.490   4.692 -0.5806  0.0972 -0.2807
  148SAPE  H18X16342  -0.359   5.476   4.794 -2.6823  0.1039 -1.0627
  148SAPE  H18Y16343  -0.350   5.409   4.623  1.9597 -1.6227  0.4455
  148SAPE  H18Z16344  -0.353   5.591   4.662 -0.4052  0.6045  1.1410
  149SAPE     N16345   2.401   1.850   6.539 -0.1236 -0.3397  0.1897
  149SAPE   HN116346   2.403   1.842   6.643 -0.4005 -0.7309  0.1681
  149SAPE   HN216347   2.433   1.760   6.496  2.7571  0.1062  1.1823
  149SAPE   HN316348   2.475   1.919   6.515  1.7468 -2.0078  0.8632
  149SAPE   C1216349   2.259   1.885   6.502  0.1873 -0.3498 -0.0212
  149SAPE  H12A16350   2.239   1.871   6.393  1.0119 -1.2361 -0.0836
  149SAPE  H12B16351   2.238   1.988   6.537  0.2800 -1.2983  3.0942
  149SAPE   C1116352   2.167   1.785   6.572 -0.2645 -0.5014 -0.3586
  149SAPE  H11A16353   2.172   1.800   6.682  1.9503  3.9858 -0.8424
  149SAPE  H11B16354   2.202   1.688   6.532 -2.3604 -0.2683 -3.0683
  149SAPE     P16355   1.916   1.746   6.620  0.1498 -0.1521  0.3815
  149SAPE   O1316356   1.938   1.608   6.655 -0.9757 -1.0371  0.0654
  149SAPE   O1416357   1.900   1.849   6.731 -0.1960 -0.0243  0.4312
  149SAPE   O1216358   2.035   1.800   6.530 -0.3433  0.3425 -0.2564
  149SAPE   O1116359   1.781   1.751   6.530  0.0171  0.4344 -0.1030
  149SAPE    C116360   1.764   1.840   6.417  0.3141  0.7407  0.2727
  149SAPE    HA16361   1.686   1.914   6.443  1.3637  2.0166 -0.0730
  149SAPE    HB16362   1.856   1.901   6.404  0.8183  0.0301  0.4730
  149SAPE    C216363   1.744   1.765   6.283  0.0921  0.0501  0.5044
  149SAPE    HS16364   1.694   1.828   6.207  0.7794  1.1678  0.9580
  149SAPE   O2116365   1.673   1.640   6.303 -0.3913  0.0833  0.7646
  149SAPE   C2116366   1.547   1.663   6.336  0.7610 -0.3155 -0.2142
  149SAPE   O2216367   1.502   1.772   6.364  0.2592  0.0647  0.7728
  149SAPE   C2216368   1.469   1.523   6.341  0.6973 -0.1741 -0.8095
  149SAPE   H2R16369   1.494   1.475   6.438 -1.3618 -1.6630 -0.9598
  149SAPE   H2S16370   1.360   1.545   6.347  0.7628 -0.1923  1.0934
  149SAPE    C316371   1.887   1.730   6.221 -0.1495  0.2178 -0.0613
  149SAPE    HX16372   1.931   1.663   6.297 -0.1604  0.1483 -0.1159
  149SAPE    HY16373   1.946   1.824   6.216  0.0482  0.2424  2.1097
  149SAPE   O3116374   1.866   1.670   6.094 -0.4594 -0.2737  0.0402
  149SAPE   C3116375   1.884   1.547   6.086  0.4552  0.5085 -0.2238
  149SAPE   O3216376   1.930   1.472   6.173 -0.1740  0.1490 -0.3694
  149SAPE   C3216377   1.831   1.500   5.946 -0.8848 -0.1114 -0.9192
  149SAPE   H2X16378   1.758   1.421   5.975  2.1152 -1.9446  2.3391
  149SAPE   H2Y16379   1.915   1.450   5.894  0.3666 -0.9490  1.7630
  149SAPE   C2316380   1.493   1.430   6.215  0.4686  0.0620  0.0222
  149SAPE   H3R16381   1.441   1.335   6.240 -0.5933  0.6048 -0.0590
  149SAPE   H3S16382   1.603   1.412   6.216  0.7790  1.7702  0.7810
  149SAPE   C2416383   1.436   1.489   6.085 -1.2522  0.2915  0.6629
  149SAPE   H4R16384   1.485   1.434   6.001  0.7072 -0.1244  2.0089
  149SAPE   H4S16385   1.460   1.597   6.081  3.3680 -0.5654 -0.0388
  149SAPE   C2516386   1.287   1.482   6.082 -0.1354  0.1405 -0.3407
  149SAPE   H5R16387   1.235   1.509   6.175 -0.3823  0.5323 -0.5923
  149SAPE   C2616388   1.207   1.450   5.976  0.3239 -0.6900 -0.0011
  149SAPE   H6R16389   1.099   1.441   5.992  0.4388 -1.1587  0.5476
  149SAPE   C2716390   1.257   1.404   5.851  0.3981  0.2122  0.3522
  149SAPE   H7R16391   1.337   1.327   5.858  0.2625 -0.5854 -4.0472
  149SAPE   H7S16392   1.310   1.491   5.808 -0.9985  1.3222  0.8005
  149SAPE   C2816393   1.155   1.340   5.751  0.3647 -0.5168  0.1676
  149SAPE   H8R16394   1.104   1.250   5.788 -0.8711  0.3608  0.6860
  149SAPE   C2916395   1.134   1.376   5.624  0.2468 -0.0555  0.1748
  149SAPE   H9R16396   1.072   1.313   5.558  1.2766  1.8940 -2.8830
  149SAPE  C21016397   1.187   1.491   5.539  0.0893  0.0238  0.3897
  149SAPE  H10R16398   1.196   1.592   5.585 -1.2646 -0.2862  1.4032
  149SAPE  H10S16399   1.119   1.507   5.453 -0.6742  0.4981  1.0591
  149SAPE  C21116400   1.324   1.457   5.474  0.1240 -0.5547 -0.3510
  149SAPE  H11R16401   1.405   1.414   5.534 -0.2992 -2.6894 -1.2271
  149SAPE  C21216402   1.352   1.471   5.344 -1.0017 -0.1338 -0.1215
  149SAPE  H12R16403   1.453   1.442   5.311 -0.6324 -0.3468  1.1454
  149SAPE  C21316404   1.270   1.529   5.229 -0.1171  0.4358 -0.4248
  149SAPE  H13R16405   1.281   1.639   5.217  2.2933 -0.0017 -3.5190
  149SAPE  H13S16406   1.164   1.509   5.253 -0.1499  2.0953  1.0073
  149SAPE  C21416407   1.304   1.472   5.089 -1.0045  0.0083 -0.3014
  149SAPE  H14R16408   1.326   1.546   5.011 -3.4526  1.1598  0.0059
  149SAPE  C21516409   1.291   1.345   5.047  0.6607 -0.2272  0.4313
  149SAPE  H15R16410   1.317   1.327   4.942 -3.2142 -0.7698 -0.5671
  149SAPE  C21616411   1.214   1.243   5.120 -0.0375 -0.0724  0.3207
  149SAPE  H16R16412   1.206   1.273   5.227 -1.1632  0.6523  0.0534
  149SAPE  H16S16413   1.260   1.142   5.115 -2.2864 -1.1093 -0.8322
  149SAPE  C21716414   1.067   1.240   5.060  0.0052 -0.3685  0.7951
  149SAPE  H17R16415   1.011   1.336   5.068 -3.3633 -1.8505 -2.2747
  149SAPE  H17S16416   1.007   1.168   5.121 -1.2273  0.4342  0.5529
  149SAPE  C21816417   1.058   1.192   4.919  0.8675  0.0280  0.1546
  149SAPE  H18R16418   1.117   1.098   4.915  1.9298  0.7385 -2.6563
  149SAPE  H18S16419   1.101   1.268   4.852 -0.9143  0.4855 -0.5293
  149SAPE  C21916420   0.914   1.153   4.869  0.0471 -0.3789  0.6686
  149SAPE  H19R16421   0.862   1.099   4.951  1.4882 -1.0321  1.1897
  149SAPE  H19S16422   0.918   1.077   4.788  0.2435 -1.2083  1.4312
  149SAPE  C22016423   0.820   1.268   4.827  0.7124 -0.5117 -0.3069
  149SAPE  H20R16424   0.809   1.335   4.915  2.2905 -0.3463 -0.2052
  149SAPE  H20S16425   0.727   1.240   4.772  0.0682 -0.1894  0.5949
  149SAPE  H20T16426   0.875   1.338   4.760 -0.9798  1.9173  0.6926
  149SAPE   C3316427   1.765   1.604   5.842 -0.2208  0.0150  0.9670
  149SAPE   H3X16428   1.851   1.674   5.831  1.7841 -2.0300  2.5555
  149SAPE   H3Y16429   1.676   1.652   5.887 -0.5670 -1.3547  1.8116
  149SAPE   C3416430   1.750   1.541   5.700  0.4712  0.1504  0.0739
  149SAPE   H4X16431   1.651   1.491   5.692 -0.6779  1.9037  2.1805
  149SAPE   H4Y16432   1.839   1.479   5.676  1.5687  1.3044  1.0349
  149SAPE   C3516433   1.753   1.657   5.594 -0.1513  0.3572  0.2925
  149SAPE   H5X16434   1.851   1.708   5.584  0.5255 -1.1599 -1.3139
  149SAPE   H5Y16435   1.673   1.728   5.626 -1.0310 -0.1913 -0.6217
  149SAPE   C3616436   1.706   1.603   5.452  0.0635  0.0888  0.6251
  149SAPE   H6X16437   1.613   1.543   5.466  0.4950 -0.5117  0.9617
  149SAPE   H6Y16438   1.788   1.537   5.417 -1.4062 -1.6493  0.3178
  149SAPE   C3716439   1.691   1.705   5.341 -0.0344  0.6916 -0.0411
  149SAPE   H7X16440   1.759   1.792   5.356 -2.0576  2.3320  0.0211
  149SAPE   H7Y16441   1.590   1.751   5.343 -0.0010  0.7484  2.2680
  149SAPE   C3816442   1.711   1.656   5.195 -0.1590  0.5263  0.2455
  149SAPE   H8X16443   1.638   1.576   5.173  2.6079 -2.5068  1.3162
  149SAPE   H8Y16444   1.810   1.606   5.195 -0.0514  0.6889 -1.4546
  149SAPE   C3916445   1.710   1.773   5.091 -0.5333 -0.1109  0.8935
  149SAPE   H9X16446   1.789   1.845   5.122  0.5335 -0.3391 -1.0788
  149SAPE   H9Y16447   1.608   1.819   5.086  0.2841  1.8770  1.4087
  149SAPE  C31016448   1.745   1.727   4.940  0.1123  0.3486  0.7229
  149SAPE  H10X16449   1.725   1.618   4.936 -1.0397  0.3412  3.7701
  149SAPE  H10Y16450   1.851   1.760   4.930  0.1310  0.9407  2.5264
  149SAPE  C31116451   1.668   1.807   4.836  0.3265  0.0962 -0.6895
  149SAPE  H11X16452   1.565   1.816   4.875  1.0609  1.1156  1.1264
  149SAPE  H11Y16453   1.667   1.766   4.733 -1.9645 -0.0917 -0.6386
  149SAPE  C31216454   1.727   1.949   4.817  0.1473  0.3070  0.0583
  149SAPE  H12X16455   1.837   1.934   4.806  0.1040 -0.1708  0.2537
  149SAPE  H12Y16456   1.698   2.001   4.911 -2.5317 -1.3405  0.2716
  149SAPE  C31316457   1.687   2.028   4.690 -0.2153  0.0564 -0.3753
  149SAPE  H13X16458   1.577   2.036   4.673 -0.2806 -1.1080 -0.5874
  149SAPE  H13Y16459   1.741   1.981   4.605  1.4943 -0.1210  0.7676
  149SAPE  C31416460   1.740   2.177   4.698  0.8466  0.5884 -0.1590
  149SAPE  H14X16461   1.846   2.186   4.728  0.7742  0.2642  0.2178
  149SAPE  H14Y16462   1.679   2.232   4.774 -0.7547 -0.9741 -0.2424
  149SAPE  C31516463   1.734   2.238   4.558 -0.0136 -0.1372 -0.0468
  149SAPE  H15X16464   1.641   2.196   4.513 -0.1502 -0.4573  0.5278
  149SAPE  H15Y16465   1.818   2.192   4.501 -1.9606 -4.4686  0.1822
  149SAPE  C31616466   1.721   2.392   4.560  0.7757 -0.0774 -0.2818
  149SAPE  H16X16467   1.813   2.428   4.612  0.4524  0.6747 -0.2081
  149SAPE  H16Y16468   1.645   2.434   4.629  2.1108  1.9482  0.0755
  149SAPE  C31716469   1.722   2.470   4.424 -0.5560  0.3164 -0.3641
  149SAPE  H17X16470   1.824   2.458   4.383 -0.1754  2.0017 -0.0010
  149SAPE  H17Y16471   1.698   2.578   4.436  2.0652  1.1422 -1.6048
  149SAPE  C31816472   1.628   2.405   4.318 -0.5334 -0.2426 -0.5738
  149SAPE  H18X16473   1.631   2.458   4.220  0.1620  2.4072  0.8036
  149SAPE  H18Y16474   1.525   2.416   4.358  0.0203 -0.6421  1.0168
  149SAPE  H18Z16475   1.654   2.298   4.304  1.1333  0.0375  0.1513
  150SAPE     N16476   3.813   2.513   7.347  0.3108 -0.4606 -0.5178
  150SAPE   HN116477   3.753   2.589   7.309 -1.0675 -2.3480 -2.4103
  150SAPE   HN216478   3.747   2.455   7.402 -2.4014  1.1148 -1.8838
  150SAPE   HN316479   3.887   2.552   7.408  1.8414 -0.1555 -2.4745
  150SAPE   C1216480   3.873   2.445   7.233  0.1836  0.9957  0.7817
  150SAPE  H12A16481   3.951   2.373   7.266  0.0077  0.0673 -0.7388
  150SAPE  H12B16482   3.931   2.514   7.168 -0.8392 -0.0447 -1.3189
  150SAPE   C1116483   3.764   2.378   7.148  0.5964  0.0933  0.0843
  150SAPE  H11A16484   3.718   2.303   7.216  0.4935  1.9564  2.2013
  150SAPE  H11B16485   3.813   2.321   7.066 -0.5350 -0.7354 -0.0332
  150SAPE     P16486   3.645   2.524   6.960  0.0563  0.0855  0.5514
  150SAPE   O1316487   3.549   2.445   6.886  0.0091 -0.1137 -0.0253
  150SAPE   O1416488   3.614   2.670   6.976 -0.5036  0.5060 -0.3741
  150SAPE   O1216489   3.665   2.465   7.105 -0.6810 -0.3445 -0.1902
  150SAPE   O1116490   3.783   2.515   6.895  0.0887 -0.1057 -0.0668
  150SAPE    C116491   3.846   2.405   6.824  0.1148 -0.2583 -0.6711
  150SAPE    HA16492   3.957   2.413   6.827  0.2867  0.1392 -3.7781
  150SAPE    HB16493   3.812   2.303   6.852 -1.7924  0.5819  0.2074
  150SAPE    C216494   3.826   2.419   6.668  1.0661  0.2452  0.8295
  150SAPE    HS16495   3.909   2.369   6.615  0.5142  0.0223  0.1614
  150SAPE   O2116496   3.809   2.555   6.620  0.0272  0.7831 -0.0934
  150SAPE   C2116497   3.903   2.647   6.650 -0.6796  0.4298  0.3784
  150SAPE   O2216498   4.008   2.623   6.711 -0.2305 -0.6741  0.8717
  150SAPE   C2216499   3.867   2.775   6.581  0.2801  0.3067  0.4665
  150SAPE   H2R16500   3.827   2.849   6.654  0.4503  1.3298 -0.4463
  150SAPE   H2S16501   3.965   2.817   6.550  1.3679 -1.6676  1.0528
  150SAPE    C316502   3.700   2.343   6.610 -0.4694 -0.0949 -0.9559
  150SAPE    HX16503   3.610   2.403   6.634  0.6367  1.5165 -0.6801
  150SAPE    HY16504   3.688   2.244   6.658  1.4259  0.3382  0.5201
  150SAPE   O3116505   3.706   2.331   6.471 -0.0043 -0.3557 -0.3504
  150SAPE   C3116506   3.774   2.231   6.415 -0.6809  0.4547 -0.9257
  150SAPE   O3216507   3.816   2.129   6.470  0.2383  0.3258 -0.0502
  150SAPE   C3216508   3.798   2.264   6.269  0.8752  0.1105  0.1719
  150SAPE   H2X16509   3.769   2.185   6.197  1.0110 -1.0166  1.3104
  150SAPE   H2Y16510   3.910   2.267   6.270  0.9691 -2.0566  0.1728
  150SAPE   C2316511   3.762   2.767   6.461 -0.4062 -0.1278  0.7489
  150SAPE   H3R16512   3.663   2.735   6.500  0.0448 -0.9415  1.2342
  150SAPE   H3S16513   3.793   2.694   6.384 -0.6852 -2.1287  2.4517
  150SAPE   C2416514   3.748   2.905   6.400  0.2023 -0.8809  0.4059
  150SAPE   H4R16515   3.836   2.969   6.420 -1.0590  0.2963  2.7021
  150SAPE   H4S16516   3.670   2.965   6.452 -0.6935  0.4069 -2.2650
  150SAPE   C2516517   3.708   2.923   6.257  0.0927 -0.4080  0.3205
  150SAPE   H5R16518   3.602   2.895   6.250 -0.0795 -0.3523  2.1475
  150SAPE   C2616519   3.782   2.972   6.156 -0.1169  0.3879  0.1637
  150SAPE   H6R16520   3.733   2.978   6.057 -1.4548 -0.0290  0.7872
  150SAPE   C2716521   3.923   3.029   6.166 -0.4189 -0.4568 -0.0411
  150SAPE   H7R16522   3.991   2.964   6.107  2.9554  1.2579  1.6463
  150SAPE   H7S16523   3.958   3.034   6.271  0.4585 -1.1548 -0.2894
  150SAPE   C2816524   3.913   3.171   6.108  0.7981 -1.3613 -0.4228
  150SAPE   H8R16525   3.841   3.238   6.158  2.0631  0.1517 -0.5720
  150SAPE   C2916526   4.002   3.225   6.016 -0.2341 -0.2766 -0.1725
  150SAPE   H9R16527   3.976   3.323   5.973  2.2945 -0.7450 -3.0799
  150SAPE  C21016528   4.118   3.160   5.944 -0.1376  0.2384 -0.0563
  150SAPE  H10R16529   4.174   3.101   6.019 -3.0592 -1.7410  0.7643
  150SAPE  H10S16530   4.189   3.237   5.906 -0.2875  0.8307  0.8411
  150SAPE  C21116531   4.076   3.064   5.837  0.3391 -0.5921  0.1477
  150SAPE  H11R16532   4.002   2.990   5.871 -2.4650 -0.1531 -4.1723
  150SAPE  C21216533   4.134   3.074   5.709 -0.1281 -0.9726 -0.6474
  150SAPE  H12R16534   4.103   2.997   5.637  0.2094 -2.0609  0.3408
  150SAPE  C21316535   4.243   3.163   5.647 -0.6617 -0.1356 -0.0691
  150SAPE  H13R16536   4.316   3.092   5.604  1.7123  1.5391  0.9717
  150SAPE  H13S16537   4.311   3.211   5.720 -0.7744 -0.7738  0.4555
  150SAPE  C21416538   4.167   3.253   5.554 -0.9247 -0.0905  0.3431
  150SAPE  H14R16539   4.115   3.341   5.595  2.8430  1.4220  2.4377
  150SAPE  C21516540   4.159   3.237   5.417 -0.5057  0.0473  0.3701
  150SAPE  H15R16541   4.112   3.321   5.364  2.6308  1.3448 -0.5815
  150SAPE  C21616542   4.216   3.136   5.326 -0.5566  0.1251 -0.3595
  150SAPE  H16R16543   4.136   3.062   5.306  1.5450 -1.8784 -1.8481
  150SAPE  H16S16544   4.294   3.082   5.384 -0.4316  0.5417 -0.1392
  150SAPE  C21716545   4.282   3.186   5.197 -0.2602  0.0670 -0.3645
  150SAPE  H17R16546   4.356   3.265   5.221 -0.4481  0.0017  0.4559
  150SAPE  H17S16547   4.210   3.242   5.134  0.6517 -0.2913 -1.7773
  150SAPE  C21816548   4.339   3.071   5.118 -0.2197 -0.0249  0.2061
  150SAPE  H18R16549   4.257   2.996   5.117 -1.4805  1.1086 -4.1087
  150SAPE  H18S16550   4.424   3.035   5.180 -0.3138  0.5584  0.6869
  150SAPE  C21916551   4.389   3.104   4.981  0.8390  0.3840 -0.0841
  150SAPE  H19R16552   4.467   3.182   4.988 -0.3886  1.7393 -0.8740
  150SAPE  H19S16553   4.306   3.154   4.926 -0.0896  1.0741  1.8551
  150SAPE  C22016554   4.438   2.987   4.894  0.2671  0.5047  0.4151
  150SAPE  H20R16555   4.500   2.917   4.954 -3.7977 -4.6832 -0.7038
  150SAPE  H20S16556   4.501   3.029   4.814  0.6340  1.3077  1.1041
  150SAPE  H20T16557   4.353   2.933   4.847  0.2458  1.2796 -0.4676
  150SAPE   C3316558   3.735   2.403   6.228  0.6073 -0.1274 -0.2653
  150SAPE   H3X16559   3.785   2.478   6.294  1.8652 -1.1415 -0.0321
  150SAPE   H3Y16560   3.626   2.404   6.246  0.5360 -0.2981 -0.6742
  150SAPE   C3416561   3.762   2.434   6.076  0.4099 -0.6220 -0.3120
  150SAPE   H4X16562   3.696   2.370   6.013 -0.2306  0.8000 -1.1268
  150SAPE   H4Y16563   3.865   2.395   6.057 -0.5016 -3.2391 -0.3527
  150SAPE   C3516564   3.735   2.578   6.030 -0.3086 -0.5351  0.8756
  150SAPE   H5X16565   3.776   2.651   6.104  0.7964  0.1902 -0.4017
  150SAPE   H5Y16566   3.626   2.578   6.050 -0.3098 -0.9398  0.8795
  150SAPE   C3616567   3.769   2.607   5.886 -0.4217 -0.3458  0.5590
  150SAPE   H6X16568   3.728   2.532   5.814 -2.0097  2.0943 -1.2694
  150SAPE   H6Y16569   3.879   2.607   5.869 -0.5991 -1.2838 -0.8456
  150SAPE   C3716570   3.717   2.742   5.844 -0.6592  0.7743 -0.1648
  150SAPE   H7X16571   3.740   2.800   5.937  0.3752 -2.7163  1.9340
  150SAPE   H7Y16572   3.607   2.741   5.833 -1.1831 -0.7463  3.5721
  150SAPE   C3816573   3.782   2.816   5.724 -0.2863 -0.4175 -0.3360
  150SAPE   H8X16574   3.879   2.864   5.750 -0.1837  1.8070 -4.0864
  150SAPE   H8Y16575   3.712   2.900   5.706 -1.1524 -1.0707 -0.0762
  150SAPE   C3916576   3.797   2.720   5.603 -0.5694 -0.1175  0.0063
  150SAPE   H9X16577   3.701   2.693   5.555 -0.0887 -1.6362 -0.1637
  150SAPE   H9Y16578   3.848   2.624   5.628 -0.4112 -0.4181 -1.3575
  150SAPE  C31016579   3.886   2.793   5.496  0.4666 -0.0649  0.5166
  150SAPE  H10X16580   3.991   2.792   5.533  0.6313 -1.4663  0.0624
  150SAPE  H10Y16581   3.857   2.900   5.488 -0.4978 -0.2148  1.5896
  150SAPE  C31116582   3.880   2.727   5.354 -0.5573  0.4783  0.3397
  150SAPE  H11X16583   3.776   2.732   5.315 -0.5800  1.9426  0.5320
  150SAPE  H11Y16584   3.909   2.621   5.371  2.6448  1.4086  1.3910
  150SAPE  C31216585   3.954   2.809   5.251 -0.2505  0.3495  0.1044
  150SAPE  H12X16586   4.064   2.793   5.256 -0.4320 -1.5154 -1.0119
  150SAPE  H12Y16587   3.934   2.916   5.273 -2.9193 -0.5348  2.6767
  150SAPE  C31316588   3.904   2.792   5.110  0.2650 -0.0535  0.3568
  150SAPE  H13X16589   3.796   2.814   5.099  0.6768  1.6898 -0.7781
  150SAPE  H13Y16590   3.922   2.686   5.084  0.3793  0.6633 -2.9460
  150SAPE  C31416591   3.971   2.883   5.005 -0.9124 -0.3259  0.4645
  150SAPE  H14X16592   4.078   2.852   4.997 -0.5859  0.8398  0.1534
  150SAPE  H14Y16593   3.978   2.985   5.047  0.4710 -0.0781 -0.2877
  150SAPE  C31516594   3.897   2.895   4.872  0.1440  0.6485 -0.0275
  150SAPE  H15X16595   3.790   2.914   4.895 -0.3510 -0.6471 -1.0943
  150SAPE  H15Y16596   3.897   2.802   4.810 -1.7324 -0.5374  1.6505
  150SAPE  C31616597   3.934   3.003   4.768 -0.5638 -0.6073  0.4035
  150SAPE  H16X16598   3.853   3.020   4.694 -0.7586 -1.6439  0.3624
  150SAPE  H16Y16599   4.034   2.980   4.726 -0.4972 -0.5733  0.5449
  150SAPE  C31716600   3.963   3.144   4.832  0.4994 -0.1463 -0.1312
  150SAPE  H17X16601   4.007   3.214   4.757 -1.0261  0.8072 -0.1755
  150SAPE  H17Y16602   4.050   3.136   4.901 -0.1946  2.1530  1.1191
  150SAPE  C31816603   3.853   3.215   4.912  0.0322  0.2346 -0.1987
  150SAPE  H18X16604   3.796   3.154   4.985 -0.6517 -1.0799 -1.7766
  150SAPE  H18Y16605   3.779   3.250   4.836  0.7925  0.4209 -0.8634
  150SAPE  H18Z16606   3.888   3.305   4.968  0.8873 -1.2483  1.7548
  151SAPE     N16607   4.374   6.175   6.742  0.3936  0.1785 -0.6868
  151SAPE   HN116608   4.423   6.163   6.832 -1.8437 -1.2015  0.4349
  151SAPE   HN216609   4.276   6.195   6.772 -0.6650 -3.2952 -1.3755
  151SAPE   HN316610   4.374   6.076   6.709  5.0063 -0.6288  1.0421
  151SAPE   C1216611   4.450   6.264   6.651  0.2273  0.5033 -0.2090
  151SAPE  H12A16612   4.454   6.219   6.550  3.0499  1.1284 -0.4678
  151SAPE  H12B16613   4.556   6.256   6.684  0.3335 -0.3617 -0.7398
  151SAPE   C1116614   4.367   6.400   6.639 -0.6278 -0.5225 -0.0661
  151SAPE  H11A16615   4.283   6.399   6.565 -0.6568  1.1916 -0.0946
  151SAPE  H11B16616   4.443   6.472   6.603 -1.7765  0.6416 -0.2660
  151SAPE     P16617   4.382   6.575   6.842  0.4518  0.2553 -0.3117
  151SAPE   O1316618   4.293   6.616   6.954 -0.3713 -0.1925  0.0979
  151SAPE   O1416619   4.522   6.545   6.877 -0.4018  0.1233 -0.3103
  151SAPE   O1216620   4.323   6.447   6.768 -0.0414  0.6898 -0.8210
  151SAPE   O1116621   4.376   6.690   6.725 -0.1373  0.4886  0.6697
  151SAPE    C116622   4.258   6.733   6.660  0.7055  0.3438 -0.2734
  151SAPE    HA16623   4.258   6.710   6.551 -0.2220 -0.4456 -0.1196
  151SAPE    HB16624   4.165   6.691   6.703  0.9210  1.5939  1.5618
  151SAPE    C216625   4.231   6.889   6.683  0.5081  0.2923 -0.3690
  151SAPE    HS16626   4.201   6.907   6.788  0.9399  0.1579 -0.2193
  151SAPE   O2116627   4.114   6.913   6.601 -0.4145 -0.1287  0.3919
  151SAPE   C2116628   4.057   7.028   6.618  0.0797  0.0466  0.3096
  151SAPE   O2216629   4.100   7.118   6.693  0.0807 -0.2814 -0.9820
  151SAPE   C2216630   3.951   7.045   6.514  0.1798  0.0518  0.0212
  151SAPE   H2R16631   3.981   6.991   6.421 -2.4878  0.9595 -1.4896
  151SAPE   H2S16632   3.856   6.994   6.543  1.2029 -2.1353 -0.2941
  151SAPE    C316633   4.359   6.977   6.662 -0.0426 -0.2912  0.9770
  151SAPE    HX16634   4.439   6.937   6.728  0.5832 -0.9462 -0.1536
  151SAPE    HY16635   4.330   7.080   6.694 -0.1851 -0.5291  1.6394
  151SAPE   O3116636   4.404   6.974   6.524 -0.3463 -0.0036  0.1054
  151SAPE   C3116637   4.523   7.024   6.507 -0.2235 -0.0336  0.3779
  151SAPE   O3216638   4.580   7.092   6.590 -0.1716  0.5702 -0.9432
  151SAPE   C3216639   4.574   6.978   6.368 -0.5422 -0.4383  0.2027
  151SAPE   H2X16640   4.521   7.042   6.295  0.3887  0.0490 -0.0585
  151SAPE   H2Y16641   4.559   6.867   6.371  0.9998 -0.7091 -1.0485
  151SAPE   C2316642   3.910   7.190   6.474  0.0628 -0.4456 -0.1656
  151SAPE   H3R16643   3.996   7.259   6.457 -0.4209  0.0636 -0.6125
  151SAPE   H3S16644   3.854   7.238   6.557 -0.5631 -1.2298 -0.1257
  151SAPE   C2416645   3.803   7.205   6.366  0.3468  0.0505 -0.5448
  151SAPE   H4R16646   3.787   7.312   6.340  0.3903  0.0832 -0.4341
  151SAPE   H4S16647   3.707   7.186   6.419  0.3090  2.8481  0.5336
  151SAPE   C2516648   3.814   7.120   6.242 -0.0981  0.7214 -0.2241
  151SAPE   H5R16649   3.777   7.018   6.259  0.7383  0.5173  0.4611
  151SAPE   C2616650   3.870   7.152   6.121 -0.0919 -0.3128  0.4063
  151SAPE   H6R16651   3.870   7.080   6.038  0.5566  1.6543 -1.3856
  151SAPE   C2716652   3.934   7.285   6.089 -0.0380 -0.5245 -0.0016
  151SAPE   H7R16653   3.863   7.370   6.103 -0.2342 -0.1481 -2.7092
  151SAPE   H7S16654   3.933   7.282   5.978  0.5527  0.5039 -0.0508
  151SAPE   C2816655   4.064   7.325   6.148 -0.1989  0.1138 -0.3110
  151SAPE   H8R16656   4.096   7.270   6.237  0.3470  2.3545  0.9786
  151SAPE   C2916657   4.126   7.439   6.124 -0.3954 -0.3432 -1.1036
  151SAPE   H9R16658   4.224   7.446   6.174 -0.0877 -1.7426 -1.4726
  151SAPE  C21016659   4.096   7.541   6.014  0.2088  0.2586  0.9556
  151SAPE  H10R16660   4.052   7.636   6.052 -0.1528  0.7883 -0.7281
  151SAPE  H10S16661   4.008   7.514   5.952  1.2180 -1.6118  0.2589
  151SAPE  C21116662   4.215   7.560   5.919  0.2960  0.6243  0.4097
  151SAPE  H11R16663   4.302   7.611   5.962  0.0735  0.9895  0.4285
  151SAPE  C21216664   4.222   7.520   5.787  0.3881 -0.1680 -0.2179
  151SAPE  H12R16665   4.319   7.527   5.736  1.9126 -1.3159  2.3306
  151SAPE  C21316666   4.112   7.442   5.719  0.0352  0.1061 -0.1925
  151SAPE  H13R16667   4.019   7.437   5.779 -0.0208  0.9282 -0.2051
  151SAPE  H13S16668   4.153   7.338   5.721  1.9116  0.8078 -0.1877
  151SAPE  C21416669   4.079   7.492   5.581 -0.5135 -0.5253  0.7325
  151SAPE  H14R16670   4.086   7.600   5.563 -0.5746 -0.8541 -1.5441
  151SAPE  C21516671   4.038   7.415   5.476 -0.4720 -0.1864 -0.6651
  151SAPE  H15R16672   4.006   7.466   5.384  1.6270  2.8943  0.1599
  151SAPE  C21616673   4.014   7.265   5.484  0.1942  0.2092 -0.5728
  151SAPE  H16R16674   3.915   7.237   5.442  0.4030 -1.3641 -0.0744
  151SAPE  H16S16675   4.006   7.241   5.592 -0.9220  3.1519  0.0933
  151SAPE  C21716676   4.133   7.192   5.402  0.4591 -0.6003 -0.3509
  151SAPE  H17R16677   4.135   7.084   5.425  1.3543 -0.1041  2.1861
  151SAPE  H17S16678   4.229   7.238   5.436 -0.8134  0.8672  1.4094
  151SAPE  C21816679   4.125   7.208   5.253  0.3622  0.1242  0.4336
  151SAPE  H18R16680   4.103   7.307   5.209  1.5832  0.0979 -0.2927
  151SAPE  H18S16681   4.036   7.155   5.214 -1.3574  2.8662  0.3788
  151SAPE  C21916682   4.249   7.150   5.188 -0.0289  0.3507  0.0254
  151SAPE  H19R16683   4.286   7.059   5.240 -1.1253  0.9532  1.9604
  151SAPE  H19S16684   4.332   7.221   5.202 -1.0064  1.5923 -0.2823
  151SAPE  C22016685   4.237   7.118   5.044 -0.1403 -0.5456  0.1515
  151SAPE  H20R16686   4.328   7.072   4.999 -1.3549 -1.0411 -1.9651
  151SAPE  H20S16687   4.202   7.213   4.996 -0.0220  0.3072  1.6971
  151SAPE  H20T16688   4.160   7.039   5.035  2.0442 -2.9817  1.5603
  151SAPE   C3316689   4.728   7.003   6.345 -0.4604 -0.4700 -0.4057
  151SAPE   H3X16690   4.777   6.954   6.432 -0.3609  1.7628  0.8865
  151SAPE   H3Y16691   4.751   7.111   6.356 -0.3249  0.0025 -3.9461
  151SAPE   C3416692   4.797   6.943   6.219  0.8148  1.1109  0.2951
  151SAPE   H4X16693   4.832   6.841   6.246 -2.4911 -0.9813 -2.5293
  151SAPE   H4Y16694   4.885   6.997   6.177  2.0520 -0.4828  0.7213
  151SAPE   C3516695   4.696   6.924   6.105 -0.2658 -0.1862 -0.5246
  151SAPE   H5X16696   4.646   7.020   6.083 -3.2028 -1.3417  0.5697
  151SAPE   H5Y16697   4.616   6.853   6.136  0.2141 -0.2998  0.5059
  151SAPE   C3616698   4.760   6.847   5.991  0.4681  0.0222  0.6543
  151SAPE   H6X16699   4.815   6.766   6.043 -0.1320 -0.8579 -0.0501
  151SAPE   H6Y16700   4.823   6.918   5.933 -1.5620 -1.0102 -3.1879
  151SAPE   C3716701   4.654   6.784   5.901 -0.0874 -0.6583 -0.8451
  151SAPE   H7X16702   4.601   6.859   5.837  1.6042  0.3915 -1.0791
  151SAPE   H7Y16703   4.574   6.730   5.956 -0.4499  1.2776  0.6563
  151SAPE   C3816704   4.722   6.684   5.810  0.5741  0.2046 -0.5979
  151SAPE   H8X16705   4.744   6.589   5.863 -3.8523 -0.6090  0.1515
  151SAPE   H8Y16706   4.819   6.733   5.786 -0.3057  2.2132 -0.1935
  151SAPE   C3916707   4.636   6.656   5.685  0.1790  0.4561 -0.1847
  151SAPE   H9X16708   4.586   6.748   5.648 -1.3711 -0.2761 -0.0006
  151SAPE   H9Y16709   4.560   6.585   5.725 -0.0166  0.9055  0.2470
  151SAPE  C31016710   4.709   6.585   5.569  0.6008  0.3514 -0.0050
  151SAPE  H10X16711   4.768   6.504   5.617 -1.0843  0.1290  1.7690
  151SAPE  H10Y16712   4.768   6.662   5.514 -1.8563  1.0053 -1.8762
  151SAPE  C31116713   4.615   6.529   5.471 -0.0746 -0.1634 -0.0622
  151SAPE  H11X16714   4.525   6.485   5.519 -0.7216  0.1790 -0.9347
  151SAPE  H11Y16715   4.668   6.446   5.418 -2.9804 -1.4956 -1.0626
  151SAPE  C31216716   4.568   6.630   5.357 -0.1426  0.3578 -0.4930
  151SAPE  H12X16717   4.652   6.666   5.294  1.4095 -3.1999 -0.6959
  151SAPE  H12Y16718   4.530   6.728   5.392 -0.1726  0.2688 -0.2768
  151SAPE  C31316719   4.459   6.570   5.267 -0.4319 -0.1021 -0.2097
  151SAPE  H13X16720   4.381   6.530   5.335  1.1533 -2.5631  0.2962
  151SAPE  H13Y16721   4.489   6.487   5.201 -1.2342  0.9001 -1.8953
  151SAPE  C31416722   4.378   6.670   5.181 -0.6501 -0.0474  0.3817
  151SAPE  H14X16723   4.376   6.776   5.214  1.1212 -0.5469  2.2724
  151SAPE  H14Y16724   4.274   6.631   5.189 -0.2380 -1.3217 -0.2419
  151SAPE  C31516725   4.434   6.672   5.034 -0.5503 -0.1956  0.6678
  151SAPE  H15X16726   4.419   6.574   4.986 -1.6573 -0.2496  1.0962
  151SAPE  H15Y16727   4.543   6.694   5.040 -0.3755  0.3328 -2.6350
  151SAPE  C31616728   4.373   6.788   4.948 -0.1963 -0.0045 -0.3733
  151SAPE  H16X16729   4.381   6.884   5.004 -0.6397 -0.5214  0.5933
  151SAPE  H16Y16730   4.268   6.787   4.913  0.1675  1.4769 -1.6472
  151SAPE  C31716731   4.455   6.816   4.812  0.9086 -0.9046  0.1713
  151SAPE  H17X16732   4.559   6.841   4.840  0.4537  2.5711 -0.7491
  151SAPE  H17Y16733   4.411   6.909   4.770  1.1472 -0.8041  0.1421
  151SAPE  C31816734   4.440   6.701   4.709  0.1848  0.5994 -0.4399
  151SAPE  H18X16735   4.470   6.729   4.606  0.7576 -0.0135 -0.4498
  151SAPE  H18Y16736   4.336   6.664   4.712 -0.4267  2.2799  0.6398
  151SAPE  H18Z16737   4.501   6.616   4.748 -1.2950 -0.6336 -0.7127
  152SAPE     N16738   5.232   1.243   7.416 -0.1126 -0.2023  0.1428
  152SAPE   HN116739   5.230   1.346   7.428  0.2023 -0.3255  1.4629
  152SAPE   HN216740   5.228   1.190   7.506 -0.4327 -2.5311 -1.1596
  152SAPE   HN316741   5.322   1.217   7.373  1.0137  1.6353  1.2557
  152SAPE   C1216742   5.125   1.197   7.316  0.5752  0.4480  0.1799
  152SAPE  H12A16743   5.026   1.188   7.367  0.6911 -2.3205  0.0847
  152SAPE  H12B16744   5.162   1.098   7.280 -0.3739  0.0693  0.2093
  152SAPE   C1116745   5.113   1.288   7.193  0.6206 -1.0187  0.0577
  152SAPE  H11A16746   5.040   1.239   7.125 -0.1053  1.5622 -1.1636
  152SAPE  H11B16747   5.206   1.307   7.135 -0.7135  0.7707 -1.6207
  152SAPE     P16748   4.920   1.476   7.198 -0.5260  0.1439 -0.1089
  152SAPE   O1316749   4.811   1.383   7.230  0.8295 -0.2158  0.3226
  152SAPE   O1416750   4.905   1.607   7.260  0.3627 -0.3337  0.0439
  152SAPE   O1216751   5.063   1.408   7.238  0.6865 -0.4578  1.0969
  152SAPE   O1116752   4.932   1.506   7.045 -0.7380  0.1381 -0.0705
  152SAPE    C116753   5.056   1.554   6.989  0.1607 -0.2328 -0.2762
  152SAPE    HA16754   5.041   1.663   6.971 -2.0067 -0.0837  1.8224
  152SAPE    HB16755   5.143   1.541   7.056  1.3752 -0.0184 -1.7704
  152SAPE    C216756   5.094   1.498   6.852 -1.0636  0.4017 -0.7278
  152SAPE    HS16757   5.197   1.520   6.819 -0.9798 -1.4619 -1.8463
  152SAPE   O2116758   4.993   1.526   6.753 -0.3819  0.6721  0.4804
  152SAPE   C2116759   5.016   1.634   6.689 -0.0350  0.2604  0.1885
  152SAPE   O2216760   5.109   1.712   6.717  0.2046  0.3449  0.0780
  152SAPE   C2216761   4.908   1.660   6.578  0.2905  0.2643 -0.4214
  152SAPE   H2R16762   4.825   1.588   6.593  2.1695 -1.3945  3.6672
  152SAPE   H2S16763   4.859   1.756   6.601  0.3659  0.2841 -0.3442
  152SAPE    C316764   5.105   1.338   6.872 -0.4402 -0.1596 -0.6196
  152SAPE    HX16765   5.008   1.307   6.917  0.8931 -3.1041  0.4602
  152SAPE    HY16766   5.189   1.319   6.942 -1.7176 -1.2540  0.6730
  152SAPE   O3116767   5.132   1.281   6.739 -0.3946 -0.5873 -0.2634
  152SAPE   C3116768   5.033   1.221   6.676 -0.0871  0.3743 -0.4948
  152SAPE   O3216769   4.920   1.219   6.712 -0.3781 -0.0484  0.1104
  152SAPE   C3216770   5.081   1.157   6.551 -0.0588  0.6750  0.8190
  152SAPE   H2X16771   5.063   1.048   6.559 -0.0032  0.6008  0.0206
  152SAPE   H2Y16772   5.191   1.172   6.538 -0.1688  0.9347  0.0989
  152SAPE   C2316773   4.962   1.647   6.432 -0.1581 -0.4582 -0.2003
  152SAPE   H3R16774   5.021   1.555   6.410 -1.1138 -0.8039 -1.4456
  152SAPE   H3S16775   5.022   1.737   6.407  0.4803 -1.1618 -1.2931
  152SAPE   C2416776   4.847   1.651   6.329 -0.3336  0.5199  0.3068
  152SAPE   H4R16777   4.897   1.670   6.231  1.1504  1.6300  1.2252
  152SAPE   H4S16778   4.782   1.730   6.372  0.2406  1.2176 -0.0591
  152SAPE   C2516779   4.762   1.528   6.336 -0.1616 -0.0155  0.1184
  152SAPE   H5R16780   4.744   1.488   6.437  0.7850 -0.1276  0.2505
  152SAPE   C2616781   4.706   1.463   6.233  0.7383  0.4621 -0.3296
  152SAPE   H6R16782   4.652   1.369   6.254  2.0975 -0.6187 -1.4378
  152SAPE   C2716783   4.712   1.491   6.079 -0.3852 -0.0018 -0.0230
  152SAPE   H7R16784   4.818   1.474   6.050 -0.5557 -1.8001  0.3170
  152SAPE   H7S16785   4.665   1.588   6.053  0.4009  0.8890  1.7158
  152SAPE   C2816786   4.631   1.383   6.005  0.4517 -0.3864 -0.1127
  152SAPE   H8R16787   4.621   1.282   6.047 -4.3113 -0.7978 -1.6182
  152SAPE   C2916788   4.576   1.401   5.880 -0.1046  1.0197 -0.0020
  152SAPE   H9R16789   4.519   1.317   5.837  2.7847 -1.0767 -0.0514
  152SAPE  C21016790   4.584   1.521   5.792 -0.2081 -1.0958  0.2303
  152SAPE  H10R16791   4.652   1.492   5.710 -0.7355  1.3058 -1.1438
  152SAPE  H10S16792   4.621   1.614   5.840  0.3655 -0.2211 -1.8313
  152SAPE  C21116793   4.454   1.554   5.736  0.6165 -0.2518  0.4379
  152SAPE  H11R16794   4.376   1.580   5.809  0.1630 -1.5007  0.4330
  152SAPE  C21216795   4.426   1.564   5.600  0.2333 -0.5917  1.0262
  152SAPE  H12R16796   4.322   1.586   5.574  0.3311 -1.9412 -0.6464
  152SAPE  C21316797   4.518   1.534   5.479 -0.0085  0.1474  0.3893
  152SAPE  H13R16798   4.622   1.513   5.509  0.0053  0.3341  0.4694
  152SAPE  H13S16799   4.523   1.619   5.408  1.3185 -1.7644 -1.9772
  152SAPE  C21416800   4.449   1.425   5.385 -0.2828 -0.7536 -0.4191
  152SAPE  H14R16801   4.352   1.460   5.347 -0.3676 -0.6075 -0.0758
  152SAPE  C21516802   4.494   1.305   5.345 -0.2129  0.5338 -0.3893
  152SAPE  H15R16803   4.439   1.240   5.276  0.1461  0.1648 -0.3322
  152SAPE  C21616804   4.625   1.231   5.382  0.7470 -0.3997  0.4300
  152SAPE  H16R16805   4.592   1.135   5.427 -1.2376 -0.0226 -0.1024
  152SAPE  H16S16806   4.664   1.295   5.464 -2.8232  1.9584  0.5190
  152SAPE  C21716807   4.713   1.225   5.257  0.5009 -0.1113  0.3555
  152SAPE  H17R16808   4.820   1.250   5.270 -0.1332  2.7168  0.9641
  152SAPE  H17S16809   4.681   1.305   5.187 -0.4046  0.6262  1.5700
  152SAPE  C21816810   4.684   1.101   5.174 -0.0010  0.1351 -0.3564
  152SAPE  H18R16811   4.754   1.097   5.089 -1.1249 -2.9817 -1.2845
  152SAPE  H18S16812   4.586   1.101   5.122  1.4405  0.2177 -3.2337
  152SAPE  C21916813   4.706   0.972   5.253 -0.2087 -0.0468  0.7505
  152SAPE  H19R16814   4.616   0.961   5.317  0.4055  1.2736  1.8959
  152SAPE  H19S16815   4.782   0.991   5.332  0.6079  0.5978 -0.1669
  152SAPE  C22016816   4.740   0.848   5.174 -0.6521  0.2966 -0.6449
  152SAPE  H20R16817   4.657   0.818   5.106  0.9914  3.0175 -4.2116
  152SAPE  H20S16818   4.759   0.758   5.236  2.3238 -0.2430 -2.1528
  152SAPE  H20T16819   4.833   0.860   5.115  0.1207  2.3600  0.8715
  152SAPE   C3316820   4.997   1.180   6.416 -0.0282 -0.7462 -0.4312
  152SAPE   H3X16821   4.970   1.286   6.397 -1.8589 -0.9532  0.7028
  152SAPE   H3Y16822   4.898   1.135   6.439 -0.4230  1.5100  3.1131
  152SAPE   C3416823   5.069   1.123   6.297  0.9558 -1.2121 -0.3376
  152SAPE   H4X16824   5.114   1.022   6.304 -1.4266 -2.3655 -0.5921
  152SAPE   H4Y16825   5.158   1.183   6.267  1.0128 -1.6508 -1.0750
  152SAPE   C3516826   4.967   1.122   6.175 -0.2129 -0.3065 -0.2653
  152SAPE   H5X16827   4.909   1.216   6.181  0.8218  0.3626 -0.5836
  152SAPE   H5Y16828   4.895   1.037   6.185 -0.9450  0.3576  0.1856
  152SAPE   C3616829   5.051   1.126   6.046 -0.3085  0.3939  0.3294
  152SAPE   H6X16830   5.089   1.023   6.032 -0.8108  0.2365  0.1333
  152SAPE   H6Y16831   5.138   1.196   6.041  0.2989 -0.3665 -0.0001
  152SAPE   C3716832   4.969   1.182   5.923  0.1345  0.7808  0.3658
  152SAPE   H7X16833   4.944   1.287   5.949 -1.4457  0.3065  0.8916
  152SAPE   H7Y16834   4.873   1.127   5.924 -0.2959  1.4126  2.9903
  152SAPE   C3816835   5.053   1.176   5.793 -0.0945 -0.0179 -0.1897
  152SAPE   H8X16836   5.084   1.072   5.770 -2.3547 -1.0264  1.0549
  152SAPE   H8Y16837   5.141   1.243   5.806  1.2211 -2.0231  2.3425
  152SAPE   C3916838   4.970   1.235   5.681 -0.0231  0.9028  0.5471
  152SAPE   H9X16839   4.968   1.345   5.699  1.2746  1.3853 -1.7859
  152SAPE   H9Y16840   4.867   1.202   5.703  0.7074 -1.9734  0.0476
  152SAPE  C31016841   5.023   1.189   5.541  0.3275 -0.5820 -1.0804
  152SAPE  H10X16842   4.942   1.220   5.471 -2.0139 -1.8860  0.8653
  152SAPE  H10Y16843   5.043   1.080   5.534 -0.2741 -0.5969 -3.6762
  152SAPE  C31116844   5.145   1.259   5.495 -0.2034  0.5411  0.3688
  152SAPE  H11X16845   5.225   1.217   5.559 -0.5437 -2.2164 -0.8787
  152SAPE  H11Y16846   5.121   1.367   5.506 -0.8549  0.7011 -1.9913
  152SAPE  C31216847   5.180   1.223   5.352  0.4178  0.3699 -0.3458
  152SAPE  H12X16848   5.134   1.288   5.275 -0.7546  2.4737  2.0149
  152SAPE  H12Y16849   5.145   1.118   5.349  3.3127 -0.6927 -0.2797
  152SAPE  C31316850   5.326   1.211   5.323  0.3589 -0.3069 -0.6394
  152SAPE  H13X16851   5.376   1.144   5.396 -0.4266  1.0036  1.1707
  152SAPE  H13Y16852   5.380   1.307   5.332  1.0424 -0.7508  0.1162
  152SAPE  C31416853   5.352   1.138   5.187  0.2435  0.1603  0.4359
  152SAPE  H14X16854   5.314   1.199   5.102 -0.1617 -1.2121 -0.4054
  152SAPE  H14Y16855   5.294   1.044   5.198  0.0757  0.0840 -0.8563
  152SAPE  C31516856   5.497   1.114   5.164  0.3183  0.1782 -0.8215
  152SAPE  H15X16857   5.507   1.024   5.100  0.8667  0.9820 -1.8824
  152SAPE  H15Y16858   5.546   1.088   5.261 -1.4906 -1.2513 -0.2316
  152SAPE  C31616859   5.574   1.226   5.101  0.0021  0.9121  0.6258
  152SAPE  H16X16860   5.560   1.314   5.168 -0.4149  1.0504  0.3626
  152SAPE  H16Y16861   5.517   1.249   5.009  0.4764  0.0756  0.1138
  152SAPE  C31716862   5.723   1.199   5.073 -0.1204 -0.1554  0.0091
  152SAPE  H17X16863   5.775   1.184   5.170  2.1282 -3.0897 -1.5207
  152SAPE  H17Y16864   5.763   1.292   5.027 -0.0132 -0.8252 -1.2744
  152SAPE  C31816865   5.751   1.079   4.978 -0.1308 -0.2520  0.6105
  152SAPE  H18X16866   5.849   1.029   4.989 -0.4092 -0.9724 -0.1109
  152SAPE  H18Y16867   5.749   1.121   4.875  2.5600 -0.4345  0.4038
  152SAPE  H18Z16868   5.671   1.003   4.984  0.8591 -1.3186  0.6367
  153SAPE     N16869   5.988   0.041   7.045 -0.2586 -0.7344  0.1314
  153SAPE   HN116870   5.972   0.095   7.132  0.3053 -0.7198  0.2258
  153SAPE   HN216871   6.066  -0.028   7.048 -0.1574 -0.8370 -2.4653
  153SAPE   HN316872   6.005   0.116   6.974  1.1549  0.6864  1.8711
  153SAPE   C1216873   5.870  -0.054   7.013 -0.1925 -0.4158 -0.4518
  153SAPE  H12A16874   5.917  -0.127   6.943  1.1596  0.8866 -0.9424
  153SAPE  H12B16875   5.795   0.005   6.956  0.1830  0.0161 -0.5048
  153SAPE   C1116876   5.827  -0.120   7.145 -0.6868  0.5529 -0.6561
  153SAPE  H11A16877   5.915  -0.140   7.210 -1.5013  0.7394  0.5379
  153SAPE  H11B16878   5.778  -0.218   7.128  1.4024 -0.4215 -1.5292
  153SAPE     P16879   5.598   0.014   7.192 -0.1781 -0.3662  0.0086
  153SAPE   O1316880   5.514  -0.064   7.285 -0.2893  0.2169  0.0620
  153SAPE   O1416881   5.592   0.156   7.215 -0.9283 -0.1168  0.2654
  153SAPE   O1216882   5.744  -0.037   7.218  0.3261 -0.1358 -0.1759
  153SAPE   O1116883   5.560  -0.016   7.035 -0.3403 -0.1068  0.1194
  153SAPE    C116884   5.524  -0.146   6.986  0.1489 -0.4418 -0.4298
  153SAPE    HA16885   5.609  -0.203   6.944  1.3044  1.5136 -0.8627
  153SAPE    HB16886   5.477  -0.208   7.065 -1.1509 -0.1199 -0.9154
  153SAPE    C216887   5.412  -0.143   6.877  0.9506  0.3113 -0.1779
  153SAPE    HS16888   5.391  -0.251   6.861  2.2539  0.1159 -0.6390
  153SAPE   O2116889   5.449  -0.076   6.756 -0.0810  0.3205  0.5412
  153SAPE   C2116890   5.533  -0.147   6.676 -0.3483 -0.5664  0.0137
  153SAPE   O2216891   5.571  -0.262   6.699  0.3565  0.1352 -0.1428
  153SAPE   C2216892   5.574  -0.068   6.546 -0.3372  0.7086 -0.6964
  153SAPE   H2R16893   5.486  -0.046   6.482 -1.2131 -1.3747 -0.2926
  153SAPE   H2S16894   5.619   0.030   6.574 -0.1853  0.6689 -0.7963
  153SAPE    C316895   5.281  -0.078   6.942 -0.7693 -0.0713  0.0166
  153SAPE    HX16896   5.323   0.016   6.984  0.9668 -0.6402 -0.3486
  153SAPE    HY16897   5.248  -0.135   7.031  0.4207 -1.6173 -0.4956
  153SAPE   O3116898   5.178  -0.047   6.841  0.4185  0.5245  0.0364
  153SAPE   C3116899   5.090  -0.147   6.816 -0.2456 -0.0725 -0.2890
  153SAPE   O3216900   5.059  -0.234   6.894 -0.3084 -0.1539 -0.1680
  153SAPE   C3216901   5.035  -0.135   6.667 -0.5911 -0.1089  0.4199
  153SAPE   H2X16902   4.983  -0.037   6.671 -0.9962 -0.3471  2.9938
  153SAPE   H2Y16903   4.960  -0.213   6.646 -1.4751  1.4150 -2.6322
  153SAPE   C2316904   5.686  -0.143   6.473 -0.1468 -0.0749  1.0343
  153SAPE   H3R16905   5.644  -0.223   6.407 -0.0938 -0.1580  1.1012
  153SAPE   H3S16906   5.769  -0.175   6.540  1.6833  0.6393 -0.7810
  153SAPE   C2416907   5.759  -0.042   6.381  0.5899  0.4466  0.3748
  153SAPE   H4R16908   5.840  -0.096   6.327  1.4013 -0.2935  2.2718
  153SAPE   H4S16909   5.810   0.031   6.448  0.0163  2.1954 -0.9929
  153SAPE   C2516910   5.670   0.046   6.291 -0.1741 -0.2610  0.0741
  153SAPE   H5R16911   5.654   0.149   6.328  0.1413  0.8287 -2.6122
  153SAPE   C2616912   5.653   0.028   6.163 -0.8182 -0.1846  0.2121
  153SAPE   H6R16913   5.584   0.088   6.101 -2.6405 -1.4522  0.9201
  153SAPE   C2716914   5.699  -0.094   6.096 -0.7491  0.4874 -0.5028
  153SAPE   H7R16915   5.700  -0.175   6.171  2.5539 -0.3984 -1.3614
  153SAPE   H7S16916   5.805  -0.085   6.065 -0.3795 -0.3023  0.4952
  153SAPE   C2816917   5.613  -0.129   5.978 -0.2068 -0.1407 -0.3347
  153SAPE   H8R16918   5.512  -0.167   6.000  0.1999 -0.0817  1.8572
  153SAPE   C2916919   5.648  -0.137   5.845 -0.7203  0.2503 -0.3887
  153SAPE   H9R16920   5.571  -0.161   5.771 -0.5980 -2.2790  0.1962
  153SAPE  C21016921   5.783  -0.108   5.780  0.2920 -0.0125  0.6058
  153SAPE  H10R16922   5.855  -0.191   5.796  0.0938 -0.2336  0.3579
  153SAPE  H10S16923   5.828  -0.021   5.832  3.2605 -1.7961  1.2533
  153SAPE  C21116924   5.776  -0.072   5.635 -0.2593  0.0639  0.1594
  153SAPE  H11R16925   5.808   0.030   5.609 -1.1516 -0.0121 -1.3066
  153SAPE  C21216926   5.730  -0.141   5.533 -0.1173  0.3871 -0.6945
  153SAPE  H12R16927   5.733  -0.083   5.440 -0.2285  1.2967 -0.1447
  153SAPE  C21316928   5.680  -0.286   5.533  0.3245 -0.4987  0.2836
  153SAPE  H13R16929   5.569  -0.285   5.544  0.0867 -1.0309 -1.6811
  153SAPE  H13S16930   5.718  -0.336   5.624  0.2061 -0.3110  0.4365
  153SAPE  C21416931   5.717  -0.351   5.405 -0.1771  0.3098 -0.1149
  153SAPE  H14R16932   5.811  -0.408   5.397  0.5528  1.3462  0.8463
  153SAPE  C21516933   5.651  -0.341   5.289 -0.9967 -0.2722  0.2780
  153SAPE  H15R16934   5.686  -0.389   5.197 -1.6738 -0.3744  0.0705
  153SAPE  C21616935   5.523  -0.256   5.272 -0.3581 -0.3797  0.2931
  153SAPE  H16R16936   5.546  -0.151   5.242  0.6651 -0.6818 -0.0290
  153SAPE  H16S16937   5.452  -0.252   5.357  0.3811 -0.3208  0.9227
  153SAPE  C21716938   5.439  -0.323   5.153  0.1819 -0.1049  0.1780
  153SAPE  H17R16939   5.335  -0.286   5.158  0.8132  1.9308 -0.4178
  153SAPE  H17S16940   5.441  -0.432   5.173  0.3105 -0.5116 -1.7700
  153SAPE  C21816941   5.491  -0.314   5.009  0.4352 -0.5297  0.0361
  153SAPE  H18R16942   5.601  -0.317   4.996  0.2380 -1.0620 -1.9514
  153SAPE  H18S16943   5.451  -0.224   4.957  1.8975  0.3296  0.3432
  153SAPE  C21916944   5.435  -0.429   4.922 -0.4325  0.1442 -0.5895
  153SAPE  H19R16945   5.440  -0.529   4.969  0.1411 -0.5290 -2.0200
  153SAPE  H19S16946   5.495  -0.434   4.829  0.9979  1.0502  0.2465
  153SAPE  C22016947   5.289  -0.415   4.880  0.3014 -0.5596 -0.4072
  153SAPE  H20R16948   5.267  -0.489   4.800 -1.6800  0.3232 -0.7485
  153SAPE  H20S16949   5.284  -0.316   4.831  1.4872 -0.0905  0.3810
  153SAPE  H20T16950   5.227  -0.417   4.972 -0.1153  0.3559 -0.6546
  153SAPE   C3316951   5.149  -0.119   6.563  0.4831  0.3223  0.5012
  153SAPE   H3X16952   5.215  -0.032   6.584 -0.0930  0.7400  0.6131
  153SAPE   H3Y16953   5.096  -0.097   6.468  0.7122  2.5265  0.8319
  153SAPE   C3416954   5.245  -0.239   6.534  0.4991  0.6599 -0.0532
  153SAPE   H4X16955   5.316  -0.269   6.614 -2.4543 -0.7293  2.2446
  153SAPE   H4Y16956   5.307  -0.202   6.450  0.2236  1.1083 -0.0639
  153SAPE   C3516957   5.189  -0.368   6.480  1.1529  0.3067  0.5466
  153SAPE   H5X16958   5.126  -0.348   6.391 -0.8785 -0.0218  1.8385
  153SAPE   H5Y16959   5.120  -0.408   6.557  1.1776 -0.6813  0.0758
  153SAPE   C3616960   5.302  -0.467   6.452  0.4587 -0.0442 -0.5744
  153SAPE   H6X16961   5.346  -0.501   6.548 -1.5875  1.7936  1.1393
  153SAPE   H6Y16962   5.370  -0.404   6.391 -0.5909  0.2494 -1.4639
  153SAPE   C3716963   5.252  -0.590   6.366 -0.3384  0.4118 -0.5059
  153SAPE   H7X16964   5.209  -0.550   6.272  1.0113  0.3986 -1.1507
  153SAPE   H7Y16965   5.180  -0.652   6.425 -0.0347  1.0797  0.6091
  153SAPE   C3816966   5.378  -0.675   6.335  0.2969  0.1630 -0.0745
  153SAPE   H8X16967   5.421  -0.724   6.425  1.9669  1.4166 -0.1317
  153SAPE   H8Y16968   5.458  -0.612   6.290  1.0216 -1.5204 -1.2269
  153SAPE   C3916969   5.351  -0.782   6.234 -0.0925  0.3883  0.1871
  153SAPE   H9X16970   5.257  -0.761   6.179  0.2018  0.0591 -0.4518
  153SAPE   H9Y16971   5.321  -0.870   6.296 -0.8789  0.1069 -0.5750
  153SAPE  C31016972   5.456  -0.821   6.125  0.2464  0.1701 -0.9252
  153SAPE  H10X16973   5.408  -0.904   6.069 -1.6071 -0.6990  1.7556
  153SAPE  H10Y16974   5.552  -0.847   6.175  1.0518  2.5353 -1.1162
  153SAPE  C31116975   5.479  -0.708   6.027  1.0195  0.3570 -0.0205
  153SAPE  H11X16976   5.508  -0.617   6.085 -0.5458  1.6468 -1.1662
  153SAPE  H11Y16977   5.382  -0.672   5.986  1.3161  1.0951 -0.0882
  153SAPE  C31216978   5.574  -0.752   5.913 -0.7033 -0.1003 -0.2573
  153SAPE  H12X16979   5.667  -0.778   5.968 -0.6317  1.7142  0.5580
  153SAPE  H12Y16980   5.589  -0.668   5.842 -0.7081  0.7933  0.7853
  153SAPE  C31316981   5.523  -0.863   5.818  0.8992  0.1511 -1.2780
  153SAPE  H13X16982   5.416  -0.843   5.794  0.0101 -1.6842  0.8660
  153SAPE  H13Y16983   5.531  -0.968   5.854  1.1362 -0.1659 -2.2199
  153SAPE  C31416984   5.607  -0.875   5.691  0.0108  0.4501  0.2212
  153SAPE  H14X16985   5.593  -0.976   5.648  1.8475  0.8261 -1.4142
  153SAPE  H14Y16986   5.713  -0.865   5.721 -0.0981  1.7081  0.2404
  153SAPE  C31516987   5.556  -0.779   5.588  0.8938 -0.0575 -0.4427
  153SAPE  H15X16988   5.571  -0.678   5.632  0.9117  0.2978 -1.2556
  153SAPE  H15Y16989   5.445  -0.786   5.577  0.8811  0.2658 -0.5246
  153SAPE  C31616990   5.631  -0.798   5.451 -0.4665  0.5700 -0.2272
  153SAPE  H16X16991   5.609  -0.903   5.425 -1.4429  0.1291  2.1266
  153SAPE  H16Y16992   5.742  -0.792   5.453 -0.3904 -0.5749 -0.2710
  153SAPE  C31716993   5.565  -0.725   5.336  0.0411 -0.4717  0.0638
  153SAPE  H17X16994   5.583  -0.616   5.347  0.1323 -0.5622  0.8704
  153SAPE  H17Y16995   5.455  -0.737   5.348  0.1839 -0.9704  0.9979
  153SAPE  C31816996   5.593  -0.782   5.202 -0.1215 -0.3478  0.2402
  153SAPE  H18X16997   5.700  -0.787   5.172  0.0064  2.0072  0.0821
  153SAPE  H18Y16998   5.553  -0.705   5.133  0.8949 -0.7629 -0.8425
  153SAPE  H18Z16999   5.533  -0.872   5.179 -1.4928  0.6953 -0.4236
  154SAPE     N17000   0.652   6.736   6.866  0.0442  0.6498  0.1299
  154SAPE   HN117001   0.586   6.766   6.941 -0.7305  0.0466 -0.2932
  154SAPE   HN217002   0.609   6.760   6.774  1.4301 -0.3973 -0.8305
  154SAPE   HN317003   0.653   6.632   6.870  0.2003  0.6837  1.4771
  154SAPE   C1217004   0.790   6.801   6.849 -0.3190 -0.0020 -0.0553
  154SAPE  H12A17005   0.811   6.847   6.948 -2.3284  1.8227 -0.3983
  154SAPE  H12B17006   0.778   6.873   6.766  2.5917  0.7676  0.1047
  154SAPE   C1117007   0.903   6.701   6.799 -0.6099 -0.3401 -0.5488
  154SAPE  H11A17008   0.994   6.764   6.785 -0.6395 -0.2684 -0.4159
  154SAPE  H11B17009   0.891   6.653   6.699  0.0371  1.5738 -1.6110
  154SAPE     P17010   0.872   6.469   6.910 -0.0584 -0.3747 -0.4123
  154SAPE   O1317011   0.920   6.403   7.024 -0.0096  0.1746 -0.1702
  154SAPE   O1417012   0.727   6.480   6.900 -0.3378 -0.7723  0.3151
  154SAPE   O1217013   0.936   6.607   6.907  0.1505 -0.6136  0.8489
  154SAPE   O1117014   0.932   6.415   6.775 -0.1260 -1.3892 -0.4313
  154SAPE    C117015   1.070   6.442   6.744 -0.2676 -0.0195 -0.0348
  154SAPE    HA17016   1.088   6.539   6.694 -0.5331 -0.1353 -0.3604
  154SAPE    HB17017   1.142   6.445   6.828  0.7532 -1.4650 -0.8178
  154SAPE    C217018   1.126   6.337   6.640 -0.0409  0.5303 -0.1931
  154SAPE    HS17019   1.233   6.356   6.618  0.6793 -2.0596  0.7298
  154SAPE   O2117020   1.041   6.335   6.520 -0.0954 -0.0945 -0.0320
  154SAPE   C2117021   1.063   6.437   6.436  0.3587 -0.2877 -0.1973
  154SAPE   O2217022   1.158   6.514   6.442 -0.2409 -0.4300 -0.2762
  154SAPE   C2217023   0.948   6.438   6.336 -0.7747  0.1345  0.3059
  154SAPE   H2R17024   0.848   6.432   6.383 -0.7743 -0.8381  0.2130
  154SAPE   H2S17025   0.953   6.534   6.281 -0.5428  0.0615  0.1973
  154SAPE    C317026   1.126   6.197   6.702  0.4279 -0.0088  0.0907
  154SAPE    HX17027   1.019   6.170   6.721 -0.1042  1.1279 -1.1586
  154SAPE    HY17028   1.170   6.199   6.804  0.9014  0.6406 -0.1210
  154SAPE   O3117029   1.185   6.102   6.620  0.0007 -0.0105 -0.3262
  154SAPE   C3117030   1.160   5.977   6.650  0.0560 -0.3590  0.4750
  154SAPE   O3217031   1.091   5.938   6.738  0.0417  0.1428  0.4913
  154SAPE   C3217032   1.246   5.890   6.562  0.4893 -0.0720  0.0631
  154SAPE   H2X17033   1.283   5.801   6.617  0.5727  0.1878  0.4243
  154SAPE   H2Y17034   1.328   5.949   6.515  0.6712 -0.2269  0.1862
  154SAPE   C2317035   0.963   6.334   6.227 -0.1503 -0.3436  0.4098
  154SAPE   H3R17036   0.971   6.234   6.275 -0.9092  0.0349  1.3692
  154SAPE   H3S17037   1.045   6.358   6.156 -2.0603 -1.7015 -2.4292
  154SAPE   C2417038   0.834   6.315   6.142  0.1742 -0.2370 -0.5277
  154SAPE   H4R17039   0.752   6.274   6.204 -1.5919  0.2505 -2.4156
  154SAPE   H4S17040   0.844   6.236   6.065  1.8432 -0.8797  0.2941
  154SAPE   C2517041   0.785   6.454   6.094  0.2201  0.2075 -1.0588
  154SAPE   H5R17042   0.742   6.515   6.174  0.6920  1.0488 -1.4372
  154SAPE   C2617043   0.771   6.496   5.971 -0.0373 -0.7750  0.7161
  154SAPE   H6R17044   0.733   6.596   5.944  0.8771 -0.1234  1.7837
  154SAPE   C2717045   0.825   6.425   5.848  0.1985  0.0393  0.0580
  154SAPE   H7R17046   0.897   6.351   5.888 -1.0156 -0.6242  1.1015
  154SAPE   H7S17047   0.885   6.495   5.786  0.0661  1.1778  1.1791
  154SAPE   C2817048   0.723   6.342   5.769 -0.6170 -0.5212 -0.2751
  154SAPE   H8R17049   0.662   6.274   5.830  2.3492 -3.0209  0.1552
  154SAPE   C2917050   0.707   6.357   5.635 -0.1740  0.5283  0.1685
  154SAPE   H9R17051   0.625   6.296   5.595 -1.7212  2.2448  0.5352
  154SAPE  C21017052   0.789   6.444   5.541 -0.0294 -0.7184 -0.2279
  154SAPE  H10R17053   0.879   6.388   5.509  1.2502  0.5511  1.0239
  154SAPE  H10S17054   0.833   6.539   5.577  2.1076 -1.0122 -1.8993
  154SAPE  C21117055   0.709   6.497   5.426  0.3769 -0.4926  0.2209
  154SAPE  H11R17056   0.700   6.606   5.425 -0.4661 -0.5482 -1.6263
  154SAPE  C21217057   0.654   6.423   5.331  0.2168 -0.3066 -0.2125
  154SAPE  H12R17058   0.583   6.478   5.267  0.5313  0.6812  0.2633
  154SAPE  C21317059   0.661   6.273   5.311  0.5094 -0.0769  0.4139
  154SAPE  H13R17060   0.568   6.223   5.344  0.9074 -2.3472 -1.6084
  154SAPE  H13S17061   0.747   6.236   5.371  0.2288 -2.2026 -0.3886
  154SAPE  C21417062   0.680   6.239   5.163 -0.0452  0.4734  0.5478
  154SAPE  H14R17063   0.784   6.250   5.130  1.0817  0.3098  3.7619
  154SAPE  C21517064   0.582   6.219   5.074  0.8296  0.2358 -0.0438
  154SAPE  H15R17065   0.603   6.211   4.966  1.2883 -1.6678  0.1492
  154SAPE  C21617066   0.430   6.205   5.110  0.2523 -0.9369 -0.3762
  154SAPE  H16R17067   0.408   6.230   5.216  2.6014 -0.0730 -0.0214
  154SAPE  H16S17068   0.408   6.096   5.109  2.5101 -1.4998  1.5418
  154SAPE  C21717069   0.335   6.284   5.011  0.1775 -0.1529 -0.2764
  154SAPE  H17R17070   0.374   6.388   5.005  1.1392 -0.3587  1.4523
  154SAPE  H17S17071   0.231   6.280   5.051  0.7302  0.7729  1.3540
  154SAPE  C21817072   0.326   6.217   4.868  0.3525  0.4108  0.1235
  154SAPE  H18R17073   0.272   6.121   4.883 -0.1197  0.8336  1.3267
  154SAPE  H18S17074   0.429   6.186   4.840 -0.7547 -2.5674 -1.0013
  154SAPE  C21917075   0.244   6.298   4.773  0.6105 -0.0106  0.2478
  154SAPE  H19R17076   0.266   6.253   4.674 -1.0178 -0.8297  0.2268
  154SAPE  H19S17077   0.281   6.403   4.774  1.1471 -0.1995  0.1938
  154SAPE  C22017078   0.099   6.287   4.805  0.1014 -0.8161  0.7605
  154SAPE  H20R17079   0.066   6.349   4.891  0.8029 -0.2503  0.6331
  154SAPE  H20S17080   0.075   6.182   4.833 -0.4983 -0.7429  0.5190
  154SAPE  H20T17081   0.037   6.306   4.715  2.8521 -0.2116 -1.1328
  154SAPE   C3317082   1.163   5.841   6.447  0.3280  1.1506 -0.4710
  154SAPE   H3X17083   1.059   5.821   6.480  0.6287 -0.3229 -0.3484
  154SAPE   H3Y17084   1.210   5.744   6.421  0.2724  0.8603  0.4738
  154SAPE   C3417085   1.166   5.923   6.318  0.3296  0.3539 -0.0187
  154SAPE   H4X17086   1.269   5.933   6.278  1.1628 -2.4822  1.1627
  154SAPE   H4Y17087   1.133   6.027   6.339 -0.4475 -0.2442  1.8898
  154SAPE   C3517088   1.079   5.866   6.194 -0.0043 -0.8047 -0.1972
  154SAPE   H5X17089   0.973   5.900   6.200  0.8623  2.1038  0.1327
  154SAPE   H5Y17090   1.078   5.755   6.203 -0.2377 -0.6965  1.3306
  154SAPE   C3617091   1.138   5.907   6.052 -0.3467 -0.8228 -0.4770
  154SAPE   H6X17092   1.214   5.832   6.022 -0.1791 -0.4168 -1.0799
  154SAPE   H6Y17093   1.176   6.011   6.052  1.3759 -1.4282 -0.1712
  154SAPE   C3717094   1.035   5.904   5.933 -0.5913 -0.1708  0.5179
  154SAPE   H7X17095   0.937   5.953   5.949 -0.8039  0.6792 -2.8095
  154SAPE   H7Y17096   0.999   5.801   5.912  1.6364 -0.7862 -0.6385
  154SAPE   C3817097   1.092   5.953   5.798  0.2048 -0.2403  0.3412
  154SAPE   H8X17098   1.182   5.894   5.770  1.5915  0.7023  2.4903
  154SAPE   H8Y17099   1.120   6.059   5.815 -3.6379  1.2938 -1.6462
  154SAPE   C3917100   0.993   5.946   5.682  0.6332 -0.7326  0.4280
  154SAPE   H9X17101   0.900   5.995   5.718  0.4041  1.0705 -2.3147
  154SAPE   H9Y17102   0.965   5.843   5.653 -2.7030 -0.2779  1.5861
  154SAPE  C31017103   1.048   6.035   5.568  0.1229  0.2572 -0.0468
  154SAPE  H10X17104   1.150   5.994   5.550 -1.1221 -2.8456 -0.7996
  154SAPE  H10Y17105   1.030   6.143   5.585 -1.8722  0.0138 -0.4121
  154SAPE  C31117106   0.980   6.001   5.434  0.2767  0.7145  0.0101
  154SAPE  H11X17107   0.875   6.037   5.437 -1.0917 -2.6115 -2.2578
  154SAPE  H11Y17108   0.977   5.890   5.426  0.8504  0.7430 -0.6490
  154SAPE  C31217109   1.063   6.051   5.318  0.1732 -0.1537 -0.4969
  154SAPE  H12X17110   1.168   6.015   5.327  0.2913  0.2938 -0.0490
  154SAPE  H12Y17111   1.060   6.162   5.320 -0.1260 -0.1441 -1.1420
  154SAPE  C31317112   1.007   6.018   5.178  0.0451  0.4605 -0.5010
  154SAPE  H13X17113   0.922   6.084   5.149  2.0591  2.8437 -1.3956
  154SAPE  H13Y17114   0.973   5.913   5.183 -2.5227  1.2271 -0.4058
  154SAPE  C31417115   1.117   6.014   5.069  0.1783 -0.2416 -0.3374
  154SAPE  H14X17116   1.198   5.947   5.105 -0.8662 -0.7447  1.1808
  154SAPE  H14Y17117   1.155   6.118   5.062 -2.3099  0.8099  0.6870
  154SAPE  C31517118   1.062   5.961   4.932  0.8360  0.5706  0.0090
  154SAPE  H15X17119   0.981   6.030   4.902  1.1107  1.3736  1.0725
  154SAPE  H15Y17120   1.017   5.862   4.957  0.2358  0.7662 -0.2746
  154SAPE  C31617121   1.167   5.938   4.820  0.5208 -0.5344 -0.6981
  154SAPE  H16X17122   1.252   5.885   4.867 -0.9680 -1.3079  1.2435
  154SAPE  H16Y17123   1.202   6.040   4.791 -0.7457 -0.6173 -2.7126
  154SAPE  C31717124   1.108   5.872   4.694  0.0307 -0.3285 -0.3490
  154SAPE  H17X17125   1.006   5.912   4.680 -0.0921  1.2713  3.8474
  154SAPE  H17Y17126   1.100   5.765   4.724 -1.7287 -0.3079 -0.6516
  154SAPE  C31817127   1.188   5.877   4.565 -0.2390 -0.1651 -0.8094
  154SAPE  H18X17128   1.289   5.835   4.587 -0.5521 -0.0871  0.8716
  154SAPE  H18Y17129   1.203   5.980   4.526 -0.4316  0.4323  0.6467
  154SAPE  H18Z17130   1.138   5.816   4.487  2.8027  0.7720 -3.7361
  155SAPE     N17131   3.624   0.020   7.017  0.6302 -0.1992 -0.2544
  155SAPE   HN117132   3.606  -0.022   6.923 -3.4728 -0.5708  0.5326
  155SAPE   HN217133   3.542  -0.014   7.070 -0.1070 -3.7159 -3.2338
  155SAPE   HN317134   3.637   0.123   7.014 -1.7975  0.2691  2.1751
  155SAPE   C1217135   3.740  -0.053   7.076 -0.4779  0.0309  0.4075
  155SAPE  H12A17136   3.790   0.013   7.150  2.7701 -0.6489 -0.9879
  155SAPE  H12B17137   3.809  -0.068   6.990 -0.6666 -1.2524  0.4641
  155SAPE   C1117138   3.705  -0.193   7.128  0.3250 -0.2347 -0.1389
  155SAPE  H11A17139   3.647  -0.189   7.223 -0.2704  1.1334 -0.5456
  155SAPE  H11B17140   3.802  -0.243   7.148  1.7160  3.0212  2.1183
  155SAPE     P17141   3.597  -0.410   7.009  0.4705 -0.1416  0.0007
  155SAPE   O1317142   3.560  -0.462   7.142 -0.4241  0.1898  0.5722
  155SAPE   O1417143   3.499  -0.418   6.897  0.0057 -0.4862 -0.0027
  155SAPE   O1217144   3.636  -0.260   7.027  0.4528  0.6408  0.2648
  155SAPE   O1117145   3.725  -0.478   6.954  0.3087 -0.0110  0.0096
  155SAPE    C117146   3.838  -0.407   6.900 -0.2063  0.4513  0.1270
  155SAPE    HA17147   3.847  -0.303   6.938  1.6542 -0.1393  1.4340
  155SAPE    HB17148   3.937  -0.450   6.924  0.0687  1.5992  1.1905
  155SAPE    C217149   3.837  -0.405   6.749  0.2833 -0.7296  0.4233
  155SAPE    HS17150   3.741  -0.362   6.715  0.1507  0.0554  1.7238
  155SAPE   O2117151   3.860  -0.539   6.716  0.0869  0.4579 -0.5799
  155SAPE   C2117152   3.785  -0.584   6.620  0.2766 -0.0700  0.4643
  155SAPE   O2217153   3.705  -0.525   6.552  0.1189 -0.1714  0.4781
  155SAPE   C2217154   3.831  -0.727   6.595  0.1263 -0.6684  0.0949
  155SAPE   H2R17155   3.903  -0.778   6.663  0.2048 -1.1105 -0.3125
  155SAPE   H2S17156   3.741  -0.787   6.624  0.2415 -1.3254 -0.8433
  155SAPE    C317157   3.950  -0.320   6.686 -0.2569 -0.2544  0.1922
  155SAPE    HX17158   4.049  -0.348   6.727  0.1129  0.0488 -0.4772
  155SAPE    HY17159   3.934  -0.212   6.708 -1.8032  0.6884 -4.4876
  155SAPE   O3117160   3.952  -0.324   6.547  0.5657 -0.4582  0.0126
  155SAPE   C3117161   3.882  -0.228   6.477  0.5412 -0.1997  0.1792
  155SAPE   O3217162   3.804  -0.145   6.526  0.4341  0.7901  0.1163
  155SAPE   C3217163   3.909  -0.259   6.335  0.0887 -0.0717  0.3756
  155SAPE   H2X17164   3.908  -0.370   6.333 -1.5147 -0.0958  0.9328
  155SAPE   H2Y17165   4.010  -0.217   6.315  0.4152 -0.5319  1.0469
  155SAPE   C2317166   3.878  -0.742   6.450  0.4047  0.2407 -0.1510
  155SAPE   H3R17167   3.811  -0.700   6.373 -0.3389 -1.8630 -0.7199
  155SAPE   H3S17168   3.896  -0.848   6.421 -1.8473  0.1443 -1.3899
  155SAPE   C2417169   4.024  -0.691   6.426 -0.2721 -0.1824  0.4095
  155SAPE   H4R17170   4.086  -0.739   6.504  2.2664  0.7375 -0.9224
  155SAPE   H4S17171   4.031  -0.582   6.445  2.2407 -0.1445 -0.4455
  155SAPE   C2517172   4.073  -0.730   6.286 -0.3493  0.9912  0.2332
  155SAPE   H5R17173   4.063  -0.837   6.265  1.6269  0.6048  1.0267
  155SAPE   C2617174   4.148  -0.653   6.205  0.1550 -0.1061  0.3507
  155SAPE   H6R17175   4.162  -0.696   6.105 -0.6029  0.9785 -0.2457
  155SAPE   C2717176   4.189  -0.505   6.228  0.5013  0.6849  0.3545
  155SAPE   H7R17177   4.145  -0.454   6.317  1.0264  0.1897  0.9113
  155SAPE   H7S17178   4.143  -0.440   6.151 -0.4650 -0.3737  0.0153
  155SAPE   C2817179   4.336  -0.478   6.229  0.8318  0.2923 -1.0418
  155SAPE   H8R17180   4.400  -0.563   6.254  0.2620  0.1545  0.0224
  155SAPE   C2917181   4.395  -0.358   6.197  0.2718 -0.1298  0.3787
  155SAPE   H9R17182   4.503  -0.357   6.218  0.1667 -1.3776  1.1041
  155SAPE  C21017183   4.339  -0.229   6.154  0.5377 -0.3120  0.1371
  155SAPE  H10R17184   4.238  -0.248   6.112  1.5166 -1.3327 -1.9137
  155SAPE  H10S17185   4.399  -0.191   6.069  2.0545 -1.4291  0.6596
  155SAPE  C21117186   4.322  -0.137   6.271  0.2819 -0.2383 -0.2730
  155SAPE  H11R17187   4.376  -0.158   6.365 -2.0625 -0.2805  1.1606
  155SAPE  C21217188   4.229  -0.037   6.289 -0.0655 -0.0690 -0.0543
  155SAPE  H12R17189   4.212   0.009   6.387  2.0428 -1.5055  1.0700
  155SAPE  C21317190   4.137   0.011   6.175 -0.7198  0.7674  0.2423
  155SAPE  H13R17191   4.037   0.011   6.223 -1.1347 -0.2048 -0.6043
  155SAPE  H13S17192   4.121  -0.070   6.101 -0.4502 -1.6944  2.7276
  155SAPE  C21417193   4.169   0.143   6.121 -0.4255 -0.3744 -1.0362
  155SAPE  H14R17194   4.169   0.227   6.191 -3.0343  0.8696 -2.3790
  155SAPE  C21517195   4.216   0.174   5.996 -0.5552  0.3272 -0.4024
  155SAPE  H15R17196   4.253   0.276   5.975 -0.5304  0.7647  1.5266
  155SAPE  C21617197   4.235   0.077   5.883 -0.5304  0.6131  0.4922
  155SAPE  H16R17198   4.179  -0.017   5.902  2.2554 -0.8090  2.3603
  155SAPE  H16S17199   4.341   0.047   5.887 -0.1421  1.8252 -0.2853
  155SAPE  C21717200   4.222   0.125   5.741 -0.0126 -0.8147  0.3812
  155SAPE  H17R17201   4.274   0.221   5.718 -2.0341  0.0556 -0.7835
  155SAPE  H17S17202   4.118   0.146   5.711  0.2815 -1.5023 -1.2072
  155SAPE  C21817203   4.273   0.021   5.641 -0.9844  0.9036  1.3472
  155SAPE  H18R17204   4.350  -0.044   5.687 -1.4671  0.0116  0.9438
  155SAPE  H18S17205   4.309   0.070   5.548 -2.0423  1.3612  1.1638
  155SAPE  C21917206   4.160  -0.069   5.598  0.3092  0.1110 -0.0080
  155SAPE  H19R17207   4.069  -0.010   5.574  0.9857  0.4582 -1.8471
  155SAPE  H19S17208   4.141  -0.129   5.690  1.0394 -0.3280 -0.1379
  155SAPE  C22017209   4.195  -0.162   5.478 -0.4005  0.5699 -1.2405
  155SAPE  H20R17210   4.298  -0.198   5.499 -0.8046 -0.0449 -0.2341
  155SAPE  H20S17211   4.178  -0.117   5.378 -1.3346 -0.8914 -1.7717
  155SAPE  H20T17212   4.123  -0.247   5.486 -0.1658  0.4955  0.3089
  155SAPE   C3317213   3.804  -0.194   6.241 -0.3756 -0.3499  0.1766
  155SAPE   H3X17214   3.804  -0.084   6.258  0.5362 -0.0463 -1.5824
  155SAPE   H3Y17215   3.700  -0.222   6.270  0.4937 -1.7825  2.1726
  155SAPE   C3417216   3.832  -0.218   6.091  0.2381  0.1003 -0.8790
  155SAPE   H4X17217   3.758  -0.296   6.063  0.1521  0.0587 -0.5440
  155SAPE   H4Y17218   3.929  -0.272   6.084 -0.9212 -1.9008 -3.4463
  155SAPE   C3517219   3.827  -0.099   5.993  0.3504 -0.4329 -0.6894
  155SAPE   H5X17220   3.916  -0.038   6.018 -1.4814  1.4625  1.7425
  155SAPE   H5Y17221   3.737  -0.036   6.009  0.7542  0.2482 -1.0551
  155SAPE   C3617222   3.832  -0.150   5.848 -0.1477  0.3652 -0.1407
  155SAPE   H6X17223   3.770  -0.243   5.851  0.6974 -0.2533  3.1498
  155SAPE   H6Y17224   3.932  -0.192   5.824 -0.8935 -2.2000  0.8389
  155SAPE   C3717225   3.785  -0.047   5.735 -0.2715  0.1216 -0.2311
  155SAPE   H7X17226   3.866   0.027   5.749 -1.3743  1.3142 -0.0337
  155SAPE   H7Y17227   3.701   0.020   5.761  0.7387  0.5126  2.2882
  155SAPE   C3817228   3.800  -0.084   5.582 -0.2464 -0.9049  0.3179
  155SAPE   H8X17229   3.706  -0.139   5.560 -0.7555  0.4998 -1.2340
  155SAPE   H8Y17230   3.895  -0.139   5.568 -0.5167 -1.8387  1.8741
  155SAPE   C3917231   3.797   0.051   5.506  0.1012 -0.3341  0.1997
  155SAPE   H9X17232   3.883   0.117   5.529 -0.0519 -0.5681  1.4988
  155SAPE   H9Y17233   3.716   0.118   5.541 -1.0334 -0.7449 -1.5322
  155SAPE  C31017234   3.778   0.039   5.356  0.6197  0.9060  0.2883
  155SAPE  H10X17235   3.758   0.137   5.307 -1.9756  0.4843  0.3262
  155SAPE  H10Y17236   3.687  -0.025   5.353  0.8718  0.5778 -0.7190
  155SAPE  C31117237   3.894  -0.039   5.293  0.3878  0.4869 -0.9907
  155SAPE  H11X17238   3.895  -0.135   5.350 -0.8474  0.4587 -0.9789
  155SAPE  H11Y17239   3.989   0.013   5.316 -0.1373  0.3115  2.1164
  155SAPE  C31217240   3.880  -0.056   5.141  0.6880  0.3039 -0.3144
  155SAPE  H12X17241   3.849   0.045   5.106 -0.2080  0.4784  0.9139
  155SAPE  H12Y17242   3.795  -0.124   5.122  1.0615 -0.4604  0.6425
  155SAPE  C31317243   3.990  -0.133   5.070  0.2322  0.7435 -0.1882
  155SAPE  H13X17244   4.014  -0.226   5.125  0.0194  1.6356  1.4935
  155SAPE  H13Y17245   4.082  -0.073   5.085  0.0184  0.6101  1.9714
  155SAPE  C31417246   3.977  -0.163   4.917  0.2433 -0.0395  0.2274
  155SAPE  H14X17247   3.900  -0.241   4.907 -0.5063  0.7384 -0.1819
  155SAPE  H14Y17248   4.070  -0.212   4.879  0.0562  1.0961 -1.8131
  155SAPE  C31517249   3.934  -0.034   4.836  0.3177 -0.7726  0.4650
  155SAPE  H15X17250   4.001   0.051   4.861  1.0216 -0.9443 -0.7556
  155SAPE  H15Y17251   3.836  -0.011   4.882  0.1091  0.4295 -0.5224
  155SAPE  C31617252   3.927  -0.045   4.682  0.0735  0.2346 -0.0853
  155SAPE  H16X17253   3.859  -0.129   4.656 -1.3287  1.3236 -0.0383
  155SAPE  H16Y17254   4.029  -0.075   4.649 -0.0123 -1.0386  0.7318
  155SAPE  C31717255   3.886   0.079   4.604 -0.0924  0.5097 -0.1699
  155SAPE  H17X17256   3.793   0.107   4.658  0.3533  3.4746 -0.7319
  155SAPE  H17Y17257   3.864   0.055   4.498  2.7233  0.7737 -0.8867
  155SAPE  C31817258   3.974   0.207   4.608 -0.1289 -0.5386  0.4889
  155SAPE  H18X17259   3.909   0.288   4.568 -0.2809 -0.4980  0.8162
  155SAPE  H18Y17260   4.065   0.202   4.544 -0.3877  1.9174 -0.1706
  155SAPE  H18Z17261   3.998   0.254   4.705  1.1202  0.6928 -0.3754
  156SAPE     N17262   5.161   2.492   6.891 -0.0117  0.0752 -0.6669
  156SAPE   HN117263   5.197   2.484   6.793 -0.6319  0.1404 -0.9064
  156SAPE   HN217264   5.079   2.556   6.896  0.3184  0.5390 -0.9683
  156SAPE   HN317265   5.240   2.539   6.939  1.4705  0.0477 -2.8977
  156SAPE   C1217266   5.118   2.368   6.966 -0.0134  0.6262  0.5270
  156SAPE  H12A17267   5.011   2.349   6.945  0.2021 -0.9147  0.6953
  156SAPE  H12B17268   5.124   2.384   7.076  2.5572  1.1996  0.3688
  156SAPE   C1117269   5.203   2.243   6.933 -0.3407  0.1634 -0.6222
  156SAPE  H11A17270   5.165   2.192   6.843 -0.6424 -1.2523  0.2679
  156SAPE  H11B17271   5.195   2.164   7.011  1.3027 -0.3874 -0.9785
  156SAPE     P17272   5.462   2.192   6.889 -0.2548 -0.1920  0.0273
  156SAPE   O1317273   5.535   2.255   6.780  0.1057  0.1734  0.1663
  156SAPE   O1417274   5.531   2.164   7.019  0.4614  0.0223  0.2246
  156SAPE   O1217275   5.340   2.282   6.913 -0.2285 -0.7014 -0.0899
  156SAPE   O1117276   5.395   2.060   6.830 -0.4609 -0.3474 -0.1798
  156SAPE    C117277   5.473   1.953   6.780  0.5200 -0.0966  0.3898
  156SAPE    HA17278   5.576   1.955   6.820  0.5607 -0.8486  0.3439
  156SAPE    HB17279   5.428   1.860   6.822  1.6712 -1.2480 -0.8288
  156SAPE    C217280   5.484   1.934   6.626 -0.4062 -0.2555  0.1253
  156SAPE    HS17281   5.532   1.837   6.603  2.0546  0.3356  2.3172
  156SAPE   O2117282   5.558   2.040   6.560 -0.4786  0.1784  0.5301
  156SAPE   C2117283   5.691   2.044   6.584 -0.0680  0.6327 -0.4721
  156SAPE   O2217284   5.749   1.969   6.662 -0.0847  0.3030  0.1548
  156SAPE   C2217285   5.748   2.164   6.507  0.3548  0.2478 -0.6546
  156SAPE   H2R17286   5.670   2.232   6.465 -0.6724  0.0224  0.8255
  156SAPE   H2S17287   5.806   2.218   6.585 -1.0596 -1.9848  2.0937
  156SAPE    C317288   5.342   1.932   6.560  0.6320 -0.3821 -0.3945
  156SAPE    HX17289   5.292   2.030   6.575 -0.3394 -0.3571 -3.1300
  156SAPE    HY17290   5.287   1.851   6.613  0.4957 -0.1726 -0.2126
  156SAPE   O3117291   5.353   1.900   6.418  0.1348 -0.4873 -1.2054
  156SAPE   C3117292   5.330   1.996   6.334 -0.1605 -0.3931 -0.3087
  156SAPE   O3217293   5.318   2.112   6.367 -0.3338 -0.1418  1.2678
  156SAPE   C3217294   5.328   1.939   6.188  0.1556  0.6778  0.4994
  156SAPE   H2X17295   5.248   1.862   6.185 -0.4278  1.2998 -0.4565
  156SAPE   H2Y17296   5.419   1.882   6.161 -1.4273 -1.0810 -1.4056
  156SAPE   C2317297   5.845   2.120   6.397  1.5565 -0.2315 -0.7350
  156SAPE   H3R17298   5.908   2.032   6.419 -0.0381 -2.4006 -3.9871
  156SAPE   H3S17299   5.909   2.206   6.369  0.7000 -0.3253 -3.2845
  156SAPE   C2417300   5.782   2.074   6.266 -0.7531 -0.0388 -0.6181
  156SAPE   H4R17301   5.707   2.151   6.242 -1.7854 -1.5195 -2.4536
  156SAPE   H4S17302   5.722   1.980   6.276 -1.9331  0.3959 -2.8525
  156SAPE   C2517303   5.888   2.069   6.159  0.6753  0.5670 -0.3023
  156SAPE   H5R17304   5.963   1.990   6.170 -1.8485 -1.8180  1.1821
  156SAPE   C2617305   5.888   2.139   6.043  0.0651  0.2997  0.1640
  156SAPE   H6R17306   5.967   2.119   5.969 -1.4556 -0.6696 -1.2527
  156SAPE   C2717307   5.790   2.249   6.005  0.1291 -0.3823 -0.0604
  156SAPE   H7R17308   5.807   2.341   6.065  0.0207  0.7956 -1.7626
  156SAPE   H7S17309   5.685   2.217   6.017 -0.2971 -0.3549 -2.8890
  156SAPE   C2817310   5.805   2.294   5.863  0.6241 -0.9342 -0.5562
  156SAPE   H8R17311   5.903   2.336   5.833  0.0850  1.0266  0.2304
  156SAPE   C2917312   5.708   2.291   5.765 -0.3678 -0.1576 -0.8574
  156SAPE   H9R17313   5.735   2.327   5.665  1.2519  1.2211  0.0246
  156SAPE  C21017314   5.573   2.225   5.766 -0.5332 -0.2242 -0.5037
  156SAPE  H10R17315   5.559   2.159   5.853  0.3446 -1.5570 -1.3380
  156SAPE  H10S17316   5.566   2.154   5.680 -0.4402 -0.8533  0.0064
  156SAPE  C21117317   5.472   2.333   5.765 -0.1648  0.6424 -0.1249
  156SAPE  H11R17318   5.430   2.367   5.861 -3.1934 -1.7093 -0.4704
  156SAPE  C21217319   5.430   2.395   5.652  0.0882 -0.0719 -0.4398
  156SAPE  H12R17320   5.354   2.473   5.670 -1.3049 -2.0326  3.1604
  156SAPE  C21317321   5.477   2.358   5.514  0.8620 -0.8292 -0.1879
  156SAPE  H13R17322   5.503   2.250   5.511 -0.2839 -1.2023  1.6493
  156SAPE  H13S17323   5.569   2.419   5.499 -0.1140  0.7307 -0.0303
  156SAPE  C21417324   5.373   2.378   5.407  0.0085 -0.4548 -0.6312
  156SAPE  H14R17325   5.272   2.351   5.443 -0.3296 -0.4010 -1.5081
  156SAPE  C21517326   5.373   2.433   5.284  0.2851 -0.1131 -0.4166
  156SAPE  H15R17327   5.279   2.431   5.227 -0.3409  0.4017  0.5574
  156SAPE  C21617328   5.488   2.489   5.213 -0.1317  0.3772  0.1663
  156SAPE  H16R17329   5.587   2.450   5.243 -0.3561  0.4000  0.9621
  156SAPE  H16S17330   5.486   2.600   5.222 -2.2664  0.4266 -0.3766
  156SAPE  C21717331   5.482   2.470   5.060 -0.0020  0.0503  0.2869
  156SAPE  H17R17332   5.580   2.504   5.022  0.5132 -1.1660  0.4953
  156SAPE  H17S17333   5.396   2.513   5.005 -0.3486  0.5491  1.1854
  156SAPE  C21817334   5.476   2.318   5.019 -0.2815 -0.0780  0.1620
  156SAPE  H18R17335   5.372   2.289   5.044 -0.0221 -0.5357  0.7354
  156SAPE  H18S17336   5.557   2.263   5.072 -2.1627 -1.1894  2.0313
  156SAPE  C21917337   5.493   2.300   4.867  0.3220  0.1028  0.2254
  156SAPE  H19R17338   5.593   2.340   4.841  1.3658 -1.4939  1.6279
  156SAPE  H19S17339   5.417   2.363   4.816 -0.3316 -0.4537  0.4961
  156SAPE  C22017340   5.459   2.155   4.827 -0.2033  0.3653 -0.0004
  156SAPE  H20R17341   5.516   2.083   4.889  0.8763 -0.3478 -1.7491
  156SAPE  H20S17342   5.455   2.122   4.721  0.5947 -0.3655  0.1786
  156SAPE  H20T17343   5.356   2.132   4.863 -0.1256  1.1469  0.7459
  156SAPE   C3317344   5.303   2.051   6.082 -0.0769  0.8510 -0.5017
  156SAPE   H3X17345   5.400   2.104   6.075  1.0144 -1.2471 -3.0194
  156SAPE   H3Y17346   5.222   2.117   6.120 -0.8226 -0.9815  1.2496
  156SAPE   C3417347   5.260   1.996   5.942  0.0375  0.2320 -0.1827
  156SAPE   H4X17348   5.186   1.913   5.946  2.4138 -2.1605 -2.2003
  156SAPE   H4Y17349   5.348   1.957   5.887 -1.1344 -0.2244 -1.8024
  156SAPE   C3517350   5.206   2.112   5.851  0.0216  0.0371  0.1129
  156SAPE   H5X17351   5.283   2.192   5.849  0.4872 -0.3806  0.7909
  156SAPE   H5Y17352   5.118   2.155   5.903 -1.9277 -1.1860 -1.9739
  156SAPE   C3617353   5.147   2.052   5.720  0.0373  0.5834 -0.1484
  156SAPE   H6X17354   5.085   1.967   5.757  1.3043  0.2717  1.3684
  156SAPE   H6Y17355   5.232   2.012   5.660 -0.2623 -3.3130  1.7161
  156SAPE   C3717356   5.062   2.153   5.640  0.3456  0.3287  0.0495
  156SAPE   H7X17357   5.120   2.244   5.615 -1.2849  1.1674 -0.8052
  156SAPE   H7Y17358   4.982   2.184   5.712  0.0910 -1.2567  0.4928
  156SAPE   C3817359   4.989   2.105   5.510 -0.1152 -0.4754  0.7691
  156SAPE   H8X17360   4.917   2.021   5.523  0.0951 -1.3233 -2.6223
  156SAPE   H8Y17361   5.063   2.086   5.429  1.8001  4.1770  1.0996
  156SAPE   C3917362   4.908   2.229   5.451 -0.1054  0.6041 -0.0149
  156SAPE   H9X17363   4.983   2.309   5.432  1.7609 -1.2982 -1.1125
  156SAPE   H9Y17364   4.832   2.261   5.526  1.0971  2.6089  0.4283
  156SAPE  C31017365   4.829   2.186   5.322  0.2762  0.4247  0.0611
  156SAPE  H10X17366   4.746   2.256   5.300  0.1836  0.4072  0.3564
  156SAPE  H10Y17367   4.785   2.092   5.360 -2.5418  2.7753  3.1744
  156SAPE  C31117368   4.902   2.158   5.192  0.2834  1.2293 -0.2927
  156SAPE  H11X17369   4.978   2.234   5.165  3.5171 -0.9069  2.1166
  156SAPE  H11Y17370   4.833   2.164   5.105  0.4725  0.5592 -0.4935
  156SAPE  C31217371   4.982   2.017   5.192  0.1690 -0.0519 -0.1987
  156SAPE  H12X17372   4.940   1.948   5.267  0.6190 -0.3081 -0.1787
  156SAPE  H12Y17373   5.092   2.026   5.205 -0.1398  0.6582  2.4228
  156SAPE  C31317374   4.974   1.957   5.053 -0.1832 -0.5802  0.6977
  156SAPE  H13X17375   4.865   1.960   5.030  0.3031  0.4985 -1.9397
  156SAPE  H13Y17376   4.993   1.848   5.058 -1.3081 -0.7983  0.3591
  156SAPE  C31417377   5.059   2.030   4.944  0.4297  0.7631 -0.2697
  156SAPE  H14X17378   5.167   2.031   4.970  0.8688  0.1584 -1.9210
  156SAPE  H14Y17379   5.029   2.136   4.953  0.5249  0.6649  1.5089
  156SAPE  C31517380   5.039   1.973   4.805 -0.1047 -0.6808 -0.0723
  156SAPE  H15X17381   5.052   1.863   4.805  3.2087 -0.4113 -1.9172
  156SAPE  H15Y17382   5.119   2.002   4.733  0.9478 -1.4546  0.7469
  156SAPE  C31617383   4.898   2.004   4.750 -0.0297 -0.1945 -0.2067
  156SAPE  H16X17384   4.824   1.999   4.833 -1.2435  1.8490 -1.0890
  156SAPE  H16Y17385   4.878   1.915   4.687  2.4959 -0.7036 -0.3776
  156SAPE  C31717386   4.889   2.129   4.665  0.3329 -0.4209  1.0246
  156SAPE  H17X17387   4.925   2.216   4.724  0.9800  0.4577 -0.6121
  156SAPE  H17Y17388   4.783   2.138   4.631  0.0438 -1.1473  1.6944
  156SAPE  C31817389   4.970   2.131   4.532  0.0740 -0.0414 -0.0369
  156SAPE  H18X17390   5.079   2.122   4.555  0.4414  1.4762 -1.0002
  156SAPE  H18Y17391   4.942   2.223   4.476 -0.2443 -0.5965 -0.7965
  156SAPE  H18Z17392   4.936   2.046   4.469 -1.3138  0.1290  0.4617
  157SAPE     N17393   5.535   5.726   6.954 -0.4517 -0.5873 -0.1980
  157SAPE   HN117394   5.436   5.701   6.937 -0.8773 -0.7698  2.1606
  157SAPE   HN217395   5.585   5.663   7.019  0.4780  0.4219  0.1030
  157SAPE   HN317396   5.546   5.819   7.000  0.2613  0.6691 -2.6997
  157SAPE   C1217397   5.603   5.722   6.814 -0.1470  0.1711 -0.3911
  157SAPE  H12A17398   5.522   5.760   6.749 -0.5904  0.7208  0.4503
  157SAPE  H12B17399   5.628   5.619   6.781  0.8154 -0.1479  1.2064
  157SAPE   C1117400   5.712   5.830   6.790 -0.2905  0.2027 -0.6958
  157SAPE  H11A17401   5.734   5.821   6.681 -1.9141 -0.5370 -0.9980
  157SAPE  H11B17402   5.793   5.803   6.860 -1.7457  3.1680  2.4106
  157SAPE     P17403   5.747   6.088   6.816 -0.2520  0.4257  0.2166
  157SAPE   O1317404   5.659   6.201   6.854 -0.0834 -0.1469  0.0345
  157SAPE   O1417405   5.874   6.059   6.890  0.5526  0.3826  0.0391
  157SAPE   O1217406   5.661   5.956   6.827  0.5799 -0.2818 -0.1379
  157SAPE   O1117407   5.779   6.096   6.667  0.2274  0.0430  0.4826
  157SAPE    C117408   5.693   6.063   6.562 -0.2285  0.0694  0.6656
  157SAPE    HA17409   5.680   5.954   6.548  1.1706 -0.0163 -0.1721
  157SAPE    HB17410   5.592   6.103   6.587  0.7561  0.6408  4.3395
  157SAPE    C217411   5.739   6.129   6.427  0.1078 -0.3422 -0.5603
  157SAPE    HS17412   5.658   6.113   6.354 -0.9826 -1.2316  0.7919
  157SAPE   O2117413   5.858   6.069   6.379 -0.0436  0.3430 -0.0891
  157SAPE   C2117414   5.849   5.947   6.325 -0.1294 -0.2379 -1.3744
  157SAPE   O2217415   5.749   5.876   6.313  0.1359  0.0765  0.6190
  157SAPE   C2217416   5.979   5.915   6.251  0.4167 -0.0597 -0.1689
  157SAPE   H2R17417   6.014   5.815   6.285  0.9176  0.0534 -0.3361
  157SAPE   H2S17418   5.945   5.912   6.145 -1.8209 -0.6663  0.5291
  157SAPE    C317419   5.762   6.280   6.448 -0.3160 -0.1580  0.4994
  157SAPE    HX17420   5.834   6.293   6.532 -0.1180 -1.8383  0.6351
  157SAPE    HY17421   5.662   6.313   6.483 -0.9572  0.2528 -1.5998
  157SAPE   O3117422   5.786   6.358   6.331 -0.2940  0.2120 -0.1809
  157SAPE   C3117423   5.905   6.381   6.317 -0.3662 -0.7076 -0.8092
  157SAPE   O3217424   6.003   6.336   6.377 -0.1467  0.0677 -0.1333
  157SAPE   C3217425   5.915   6.498   6.217 -0.1261  0.2935 -0.2642
  157SAPE   H2X17426   6.015   6.545   6.231 -0.3234  1.1956 -1.6502
  157SAPE   H2Y17427   5.842   6.577   6.247 -1.7537 -1.3068  0.1373
  157SAPE   C2317428   6.105   6.005   6.269  0.5098 -0.6304 -0.9541
  157SAPE   H3R17429   6.149   6.007   6.371  1.6064 -1.2458 -1.3913
  157SAPE   H3S17430   6.083   6.110   6.240  0.3485 -0.4172 -0.0701
  157SAPE   C2417431   6.223   5.959   6.176 -0.1999  0.7405 -0.4182
  157SAPE   H4R17432   6.252   5.856   6.208 -4.0388 -0.6196 -0.6560
  157SAPE   H4S17433   6.304   6.027   6.208  0.7663 -0.1776 -0.8558
  157SAPE   C2517434   6.194   5.965   6.030  0.8718  0.0291 -0.3267
  157SAPE   H5R17435   6.101   5.915   5.999  1.6180 -1.8272  0.2716
  157SAPE   C2617436   6.262   6.025   5.932  0.3338 -0.1514 -0.2203
  157SAPE   H6R17437   6.232   6.022   5.826 -0.4613  1.9989 -0.1068
  157SAPE   C2717438   6.386   6.111   5.952  0.1591 -0.3998 -0.1491
  157SAPE   H7R17439   6.415   6.088   6.057  0.1329 -1.1800 -0.3065
  157SAPE   H7S17440   6.356   6.218   5.956 -1.3373 -0.8083  0.4492
  157SAPE   C2817441   6.503   6.081   5.860 -0.1949  0.6432  0.4298
  157SAPE   H8R17442   6.581   6.033   5.920 -1.2335  0.4624  1.6793
  157SAPE   C2917443   6.515   6.107   5.723  0.2115 -0.1208 -0.3163
  157SAPE   H9R17444   6.611   6.083   5.675 -0.4749  1.2544 -2.5661
  157SAPE  C21017445   6.412   6.163   5.628  0.2782  0.2174  0.2799
  157SAPE  H10R17446   6.451   6.259   5.587  0.4673  1.0703  2.3286
  157SAPE  H10S17447   6.319   6.186   5.685 -0.1953 -0.2671 -0.2808
  157SAPE  C21117448   6.372   6.069   5.521 -0.0106  0.5221 -0.0333
  157SAPE  H11R17449   6.313   5.987   5.565  0.5889 -0.5215 -1.1219
  157SAPE  C21217450   6.388   6.061   5.391 -0.4894  0.4526 -1.1443
  157SAPE  H12R17451   6.339   5.978   5.337 -1.1208 -0.8453  1.2563
  157SAPE  C21317452   6.457   6.159   5.296 -0.2052  0.5557 -0.1643
  157SAPE  H13R17453   6.398   6.249   5.268  0.1266  1.4002  1.7065
  157SAPE  H13S17454   6.457   6.109   5.197 -0.9302 -0.9240  0.5514
  157SAPE  C21417455   6.591   6.205   5.341  0.0108  0.4050 -0.5599
  157SAPE  H14R17456   6.633   6.156   5.430 -0.4402  1.8912  0.5096
  157SAPE  C21517457   6.675   6.298   5.285 -0.7372 -0.5810 -0.7315
  157SAPE  H15R17458   6.770   6.313   5.338 -1.1108 -0.1627 -0.1727
  157SAPE  C21617459   6.649   6.404   5.182  0.7845  0.0383 -0.0093
  157SAPE  H16R17460   6.592   6.364   5.095 -0.4013 -1.0711  1.2288
  157SAPE  H16S17461   6.738   6.452   5.137  1.1821 -0.3802  0.3326
  157SAPE  C21717462   6.551   6.517   5.222  0.3372  0.2610 -0.7038
  157SAPE  H17R17463   6.587   6.569   5.314 -0.9874 -0.8895  0.5206
  157SAPE  H17S17464   6.452   6.476   5.250  0.6317 -0.0048 -0.0149
  157SAPE  C21817465   6.528   6.630   5.121 -0.0052 -0.1487  0.6667
  157SAPE  H18R17466   6.477   6.570   5.043  0.5777  1.2959 -0.8875
  157SAPE  H18S17467   6.627   6.663   5.083 -0.9280  0.9950 -0.8409
  157SAPE  C21917468   6.446   6.746   5.168  0.7014  0.0827 -0.2201
  157SAPE  H19R17469   6.506   6.788   5.251 -1.9568  3.1111  0.3809
  157SAPE  H19S17470   6.348   6.715   5.209 -0.0623  1.8359 -0.5899
  157SAPE  C22017471   6.416   6.862   5.067 -0.0735 -0.7266 -0.1587
  157SAPE  H20R17472   6.510   6.877   5.009 -1.0063  2.9050 -0.9843
  157SAPE  H20S17473   6.396   6.958   5.121 -0.0951  0.2764 -1.8864
  157SAPE  H20T17474   6.322   6.835   5.015 -0.8712  1.3395  0.1134
  157SAPE   C3317475   5.902   6.438   6.073  0.5052 -0.4088  0.5016
  157SAPE   H3X17476   5.927   6.525   6.007 -0.0162 -0.9428 -0.4288
  157SAPE   H3Y17477   5.796   6.411   6.051  0.4110 -1.5358  2.2041
  157SAPE   C3417478   5.994   6.324   6.038 -0.0644  0.1368  0.3120
  157SAPE   H4X17479   5.948   6.228   6.070  0.6193 -0.8116 -1.4037
  157SAPE   H4Y17480   6.085   6.342   6.099  0.2031 -1.0947  0.3044
  157SAPE   C3517481   6.018   6.327   5.883 -0.3503 -0.0619 -0.1136
  157SAPE   H5X17482   6.106   6.265   5.856 -1.1462 -0.6984 -1.3196
  157SAPE   H5Y17483   6.048   6.431   5.856 -0.4797 -0.0359 -0.1564
  157SAPE   C3617484   5.892   6.287   5.806  0.6368 -0.1289  0.6640
  157SAPE   H6X17485   5.829   6.379   5.798 -0.4334 -0.9207 -0.4245
  157SAPE   H6Y17486   5.845   6.206   5.865 -0.3218 -1.6665 -2.0473
  157SAPE   C3717487   5.919   6.235   5.662  0.2967  0.2577 -0.0498
  157SAPE   H7X17488   5.821   6.232   5.610  0.5506  0.8306 -0.5730
  157SAPE   H7Y17489   5.954   6.129   5.670 -2.3578 -0.7123 -0.4189
  157SAPE   C3817490   6.020   6.325   5.583  0.0417  0.9078 -0.6409
  157SAPE   H8X17491   6.119   6.319   5.634 -0.3103  0.2710 -0.0092
  157SAPE   H8Y17492   5.978   6.428   5.585  0.5487  1.1113  0.5608
  157SAPE   C3917493   6.032   6.268   5.442 -0.4618 -0.8224  0.4112
  157SAPE   H9X17494   5.932   6.257   5.396 -0.7170 -0.1785  0.8061
  157SAPE   H9Y17495   6.076   6.166   5.432 -0.7008 -0.8139 -1.0380
  157SAPE  C31017496   6.099   6.368   5.340  0.0572  0.2239 -0.4261
  157SAPE  H10X17497   6.204   6.382   5.373  0.2992 -0.6202 -0.8007
  157SAPE  H10Y17498   6.059   6.471   5.345  1.4336  0.8983 -2.4377
  157SAPE  C31117499   6.097   6.308   5.198 -0.2192  0.7001  0.0742
  157SAPE  H11X17500   5.997   6.265   5.175 -0.8686  2.2093 -0.0423
  157SAPE  H11Y17501   6.161   6.217   5.204 -1.7929 -0.4051  1.1632
  157SAPE  C31217502   6.150   6.415   5.099 -0.2118  0.1788 -0.4169
  157SAPE  H12X17503   6.246   6.458   5.136 -1.1425  1.7560  0.2645
  157SAPE  H12Y17504   6.070   6.492   5.098 -1.9332 -1.5296 -0.0797
  157SAPE  C31317505   6.173   6.357   4.955  0.6532  0.3902 -0.1230
  157SAPE  H13X17506   6.156   6.439   4.882 -1.5747 -1.4191 -1.7824
  157SAPE  H13Y17507   6.090   6.287   4.930  0.3128  1.4278 -2.1265
  157SAPE  C31417508   6.309   6.289   4.927 -0.1217  0.6557  0.3993
  157SAPE  H14X17509   6.319   6.188   4.973  0.6737  0.1149 -0.9120
  157SAPE  H14Y17510   6.378   6.360   4.977  0.5867  0.5912 -0.4718
  157SAPE  C31517511   6.352   6.273   4.784 -0.5040  0.2205  0.1437
  157SAPE  H15X17512   6.383   6.371   4.741  0.9092 -0.7985 -1.2851
  157SAPE  H15Y17513   6.270   6.235   4.719  0.0951 -0.9389  0.0435
  157SAPE  C31617514   6.471   6.176   4.756 -0.2343  0.5761 -0.0731
  157SAPE  H16X17515   6.562   6.202   4.815  0.0404 -0.0539 -0.2056
  157SAPE  H16Y17516   6.495   6.187   4.648 -1.0675 -2.3936 -0.6720
  157SAPE  C31717517   6.449   6.020   4.768 -0.4761  0.3175 -1.1166
  157SAPE  H17X17518   6.345   6.011   4.730 -0.7288 -0.9319 -0.1840
  157SAPE  H17Y17519   6.447   6.008   4.879  1.5088  0.4490 -1.0316
  157SAPE  C31817520   6.544   5.927   4.703 -0.6100  0.0268 -0.1867
  157SAPE  H18X17521   6.527   5.925   4.593 -0.6840 -2.0183 -0.1825
  157SAPE  H18Y17522   6.522   5.823   4.737 -0.6684 -0.3067 -1.2163
  157SAPE  H18Z17523   6.651   5.946   4.727 -0.9468 -0.5602  1.9368
  158SAPE     N17524   1.373   4.513   7.425  0.5345  0.4466 -0.2830
  158SAPE   HN117525   1.443   4.586   7.400  2.7656 -0.9646  1.3967
  158SAPE   HN217526   1.287   4.549   7.380  0.1786 -0.6061 -0.4588
  158SAPE   HN317527   1.366   4.525   7.528  0.7342 -0.5681 -0.1422
  158SAPE   C1217528   1.410   4.378   7.374  0.0858 -0.3990 -0.1176
  158SAPE  H12A17529   1.389   4.295   7.444  0.1889 -1.1143 -0.9151
  158SAPE  H12B17530   1.521   4.374   7.366  0.2194 -1.9771  1.8258
  158SAPE   C1117531   1.353   4.366   7.236  0.4461  1.2176  0.5298
  158SAPE  H11A17532   1.243   4.370   7.247  0.4465  1.3921  0.4716
  158SAPE  H11B17533   1.380   4.268   7.190  0.2175  0.5656  1.7421
  158SAPE     P17534   1.500   4.455   7.037  0.3233 -0.5210 -0.2100
  158SAPE   O1317535   1.623   4.437   7.106 -0.1503 -0.2390 -0.1557
  158SAPE   O1417536   1.452   4.347   6.945  0.0039 -0.1974  0.0713
  158SAPE   O1217537   1.391   4.469   7.153  0.3890  0.0958 -0.5002
  158SAPE   O1117538   1.501   4.590   6.954 -0.6667 -0.0150 -0.9735
  158SAPE    C117539   1.379   4.647   6.905 -0.0825  0.2237 -0.7099
  158SAPE    HA17540   1.300   4.652   6.984  3.0208  4.5574  2.7033
  158SAPE    HB17541   1.416   4.748   6.876  0.2622 -0.3567 -2.3995
  158SAPE    C217542   1.321   4.587   6.769 -0.6302 -0.1677 -0.4232
  158SAPE    HS17543   1.287   4.483   6.789  0.0397 -0.4256 -0.5774
  158SAPE   O2117544   1.421   4.603   6.665 -0.1808  0.2626  0.2575
  158SAPE   C2117545   1.433   4.497   6.593  0.2587 -0.2623  0.2711
  158SAPE   O2217546   1.375   4.388   6.603 -0.2487 -0.0887 -0.4234
  158SAPE   C2217547   1.517   4.535   6.474 -0.3627  0.4325  0.3153
  158SAPE   H2R17548   1.564   4.634   6.489 -2.2270  1.1935  1.5620
  158SAPE   H2S17549   1.597   4.458   6.468 -0.5938  0.2091  0.0957
  158SAPE    C317550   1.195   4.670   6.721 -0.0374 -0.8417 -0.0968
  158SAPE    HX17551   1.227   4.776   6.715 -0.9955 -0.4936  0.7000
  158SAPE    HY17552   1.117   4.674   6.800  0.4953 -1.1612  0.4493
  158SAPE   O3117553   1.139   4.623   6.593 -0.5962  0.1363 -0.4332
  158SAPE   C3117554   1.062   4.519   6.606 -0.0778 -0.9266  0.6557
  158SAPE   O3217555   1.027   4.461   6.708 -0.1159 -0.2631 -0.3433
  158SAPE   C3217556   1.026   4.475   6.462 -0.3390  0.2670  0.1170
  158SAPE   H2X17557   1.108   4.407   6.427 -0.2806  1.3808 -2.0952
  158SAPE   H2Y17558   1.030   4.562   6.393 -0.6913  0.6622  0.5915
  158SAPE   C2317559   1.427   4.564   6.345 -0.4086  0.2709 -0.1609
  158SAPE   H3R17560   1.344   4.619   6.395  0.5687 -0.1352  2.0494
  158SAPE   H3S17561   1.377   4.471   6.312 -0.8411 -0.5236  2.4520
  158SAPE   C2417562   1.492   4.641   6.232  1.7571 -0.3345 -0.9870
  158SAPE   H4R17563   1.552   4.729   6.265 -0.4851  0.9179 -0.0095
  158SAPE   H4S17564   1.427   4.691   6.157  2.1219  1.8570  0.0547
  158SAPE   C2517565   1.594   4.550   6.170 -0.1117  0.1268 -0.5203
  158SAPE   H5R17566   1.672   4.506   6.233  0.6077  1.0880 -0.7143
  158SAPE   C2617567   1.602   4.517   6.042 -0.5291 -0.0598  0.3545
  158SAPE   H6R17568   1.690   4.464   6.004  0.7956  2.5027 -0.4286
  158SAPE   C2717569   1.506   4.557   5.932 -0.3271 -0.0091  0.3928
  158SAPE   H7R17570   1.408   4.577   5.981 -1.0504  0.1612 -1.0799
  158SAPE   H7S17571   1.487   4.479   5.855  0.8400  2.3218 -2.4614
  158SAPE   C2817572   1.551   4.681   5.866  0.2894 -0.4465 -0.0522
  158SAPE   H8R17573   1.562   4.767   5.934 -0.9213 -2.6715  3.2068
  158SAPE   C2917574   1.570   4.703   5.734  1.0214 -0.2633  0.1686
  158SAPE   H9R17575   1.605   4.800   5.695  0.2195  0.2303  0.6622
  158SAPE  C21017576   1.560   4.605   5.618 -0.4335 -0.1793 -0.0903
  158SAPE  H10R17577   1.506   4.645   5.529  2.3529  1.4332 -1.2010
  158SAPE  H10S17578   1.516   4.507   5.645 -1.2965  0.5395  1.2062
  158SAPE  C21117579   1.704   4.567   5.579  0.0605 -0.0701  0.1884
  158SAPE  H11R17580   1.762   4.513   5.655  1.7513  0.7557 -0.4753
  158SAPE  C21217581   1.776   4.605   5.468  0.6030 -0.0502  0.5571
  158SAPE  H12R17582   1.875   4.562   5.445  0.8941  0.3110  1.1160
  158SAPE  C21317583   1.718   4.690   5.365 -0.1376 -0.4235 -0.1037
  158SAPE  H13R17584   1.621   4.726   5.405  0.6777  0.6127  1.0308
  158SAPE  H13S17585   1.693   4.642   5.269  2.6716 -0.9984 -0.6263
  158SAPE  C21417586   1.826   4.794   5.345  0.1973 -0.2896 -0.1101
  158SAPE  H14R17587   1.895   4.814   5.428  1.4365 -0.8783 -0.9707
  158SAPE  C21517588   1.846   4.880   5.237  0.2421  0.3172 -0.3603
  158SAPE  H15R17589   1.938   4.940   5.232 -0.3131  1.1772 -0.4922
  158SAPE  C21617590   1.769   4.876   5.107  0.3394 -0.0949 -0.5247
  158SAPE  H16R17591   1.673   4.930   5.114  0.4007  0.3520 -2.5991
  158SAPE  H16S17592   1.740   4.774   5.077 -0.8096  0.5270 -1.6148
  158SAPE  C21717593   1.838   4.958   5.003 -0.1380 -0.1343  0.6737
  158SAPE  H17R17594   1.777   4.966   4.911  0.2238  1.3413  0.5361
  158SAPE  H17S17595   1.937   4.915   4.978 -1.7838 -3.0456 -1.4738
  158SAPE  C21817596   1.872   5.104   5.051  0.1441  0.2240 -0.1748
  158SAPE  H18R17597   1.977   5.102   5.087  0.3669  0.4180 -0.8150
  158SAPE  H18S17598   1.807   5.129   5.138  0.2840 -0.0723  0.0189
  158SAPE  C21917599   1.850   5.213   4.948 -0.1793  0.1030  0.5017
  158SAPE  H19R17600   1.904   5.177   4.858  1.1246 -1.8388  1.9866
  158SAPE  H19S17601   1.905   5.303   4.984 -0.4626  0.5685 -0.2086
  158SAPE  C22017602   1.709   5.244   4.924  0.0120  0.4472 -0.1801
  158SAPE  H20R17603   1.715   5.317   4.840  0.7755 -0.7251 -1.1818
  158SAPE  H20S17604   1.663   5.285   5.016 -1.4787 -1.8127  0.1660
  158SAPE  H20T17605   1.657   5.147   4.906  0.6931  0.4646 -2.7109
  158SAPE   C3317606   0.893   4.398   6.450  0.1730  0.1192  0.1945
  158SAPE   H3X17607   0.804   4.462   6.463 -1.4585 -1.2800 -2.9049
  158SAPE   H3Y17608   0.892   4.330   6.537 -0.4321  0.9985  0.8867
  158SAPE   C3417609   0.864   4.322   6.318 -0.6206 -0.2833  0.2130
  158SAPE   H4X17610   0.832   4.389   6.235 -0.1881 -0.9324 -0.4869
  158SAPE   H4Y17611   0.782   4.248   6.329 -1.6721  0.8945  0.5350
  158SAPE   C3517612   0.992   4.248   6.270  0.1095  0.1984  0.3645
  158SAPE   H5X17613   1.050   4.208   6.356  1.0353 -1.3384 -0.9314
  158SAPE   H5Y17614   1.056   4.315   6.208 -1.3625 -0.6698 -2.2636
  158SAPE   C3617615   0.979   4.122   6.176  0.5633 -0.1889  0.4734
  158SAPE   H6X17616   0.902   4.053   6.217  0.4935 -3.6633 -4.5889
  158SAPE   H6Y17617   1.074   4.064   6.171 -0.1616 -1.3012 -2.1962
  158SAPE   C3717618   0.929   4.163   6.030 -0.1114  0.0431  0.0259
  158SAPE   H7X17619   0.986   4.253   5.998 -2.0283  1.5206  0.5839
  158SAPE   H7Y17620   0.825   4.201   6.038 -0.0309  0.3495 -0.3444
  158SAPE   C3817621   0.935   4.051   5.929 -0.0469 -0.6999 -0.4067
  158SAPE   H8X17622   0.844   3.989   5.944  0.1770 -0.7283  1.0195
  158SAPE   H8Y17623   1.021   3.985   5.955 -2.1840 -3.9068 -0.8369
  158SAPE   C3917624   0.950   4.099   5.785 -0.1762  0.3688 -0.3713
  158SAPE   H9X17625   0.982   4.007   5.732  0.2683 -0.1501  0.7617
  158SAPE   H9Y17626   1.027   4.178   5.776  1.4452 -1.3175 -2.0215
  158SAPE  C31017627   0.822   4.159   5.724  0.2891  0.0735 -0.8794
  158SAPE  H10X17628   0.801   4.264   5.753 -0.1994 -0.2256 -0.1114
  158SAPE  H10Y17629   0.731   4.101   5.750 -0.4168  2.1150  1.6891
  158SAPE  C31117630   0.828   4.168   5.578 -0.3543 -0.0898  0.3285
  158SAPE  H11X17631   0.893   4.257   5.558 -1.3191  0.6563  0.4197
  158SAPE  H11Y17632   0.731   4.198   5.533  0.3013  0.1313 -1.0111
  158SAPE  C31217633   0.881   4.037   5.506  0.5256 -0.1766 -0.3572
  158SAPE  H12X17634   0.828   3.947   5.545 -0.5735  0.0715 -1.2622
  158SAPE  H12Y17635   0.991   4.023   5.514  0.4049 -1.2286 -0.4294
  158SAPE  C31317636   0.849   4.041   5.357  0.0878  0.1480 -0.2028
  158SAPE  H13X17637   0.918   3.979   5.296 -3.3054 -2.9902 -1.2296
  158SAPE  H13Y17638   0.864   4.149   5.337 -2.2014  0.7159  0.8473
  158SAPE  C31417639   0.716   3.983   5.311 -0.0804 -0.3494  0.0826
  158SAPE  H14X17640   0.635   4.046   5.355  0.8227 -0.1702  1.5681
  158SAPE  H14Y17641   0.695   3.885   5.358 -2.4617  0.0120 -0.1365
  158SAPE  C31517642   0.708   3.964   5.154 -0.1005 -0.4892  0.4226
  158SAPE  H15X17643   0.614   3.910   5.130  0.3104 -0.9935 -0.0786
  158SAPE  H15Y17644   0.788   3.898   5.115 -2.2068 -2.7147 -0.4146
  158SAPE  C31617645   0.711   4.092   5.070  0.6265  0.6364  0.5250
  158SAPE  H16X17646   0.710   4.068   4.962 -0.0278 -0.1829  0.7013
  158SAPE  H16Y17647   0.813   4.135   5.083  1.2963 -0.5237 -0.6494
  158SAPE  C31717648   0.589   4.191   5.081 -1.0493 -0.3082 -0.0235
  158SAPE  H17X17649   0.583   4.266   4.999  2.8724  1.4080  1.0041
  158SAPE  H17Y17650   0.617   4.247   5.173  0.6525 -0.6840 -0.2854
  158SAPE  C31817651   0.450   4.118   5.095 -0.3903  0.5014  0.0474
  158SAPE  H18X17652   0.379   4.203   5.107  1.1764  1.7290  1.0535
  158SAPE  H18Y17653   0.452   4.050   5.182  3.5930  2.7492  1.9793
  158SAPE  H18Z17654   0.443   4.056   5.003  1.1679 -2.2383  1.6412
  159SAPE     N17655   3.158   2.044   2.433  0.9826  0.5935  0.3270
  159SAPE   HN117656   3.138   2.132   2.382  0.4400  0.3084  0.0363
  159SAPE   HN217657   3.067   1.994   2.425  1.4132 -0.0300 -1.1522
  159SAPE   HN317658   3.192   2.074   2.526  0.7563  3.3929 -0.4054
  159SAPE   C1217659   3.269   1.971   2.359  0.4634  0.0458  0.2786
  159SAPE  H12A17660   3.271   2.003   2.252 -0.4652 -1.1034 -0.0988
  159SAPE  H12B17661   3.270   1.862   2.379  4.4455 -0.2475 -0.5668
  159SAPE   C1117662   3.403   2.025   2.418 -0.6574  0.2082  0.8095
  159SAPE  H11A17663   3.477   1.979   2.349 -1.0619  0.5850  0.1139
  159SAPE  H11B17664   3.442   1.982   2.513 -1.3902  2.0400  1.9999
  159SAPE     P17665   3.516   2.254   2.369  0.2494 -0.1081 -0.1039
  159SAPE   O1317666   3.575   2.205   2.238 -0.3358  0.0643 -0.4780
  159SAPE   O1417667   3.468   2.394   2.370  0.0389 -0.0148 -1.0872
  159SAPE   O1217668   3.398   2.165   2.426  0.0176  0.0207  0.5821
  159SAPE   O1117669   3.627   2.227   2.479 -0.2164  0.1822  0.8033
  159SAPE    C117670   3.601   2.219   2.620  0.3043  0.0527  0.2425
  159SAPE    HA17671   3.501   2.180   2.651  1.3761 -1.8684  1.5698
  159SAPE    HB17672   3.670   2.142   2.661  1.0221  1.2217  1.3034
  159SAPE    C217673   3.611   2.359   2.699  0.0408  0.5996 -0.3374
  159SAPE    HS17674   3.598   2.326   2.804  0.2912  1.4220 -0.0481
  159SAPE   O2117675   3.494   2.435   2.664  0.4514 -0.3247  0.5500
  159SAPE   C2117676   3.385   2.395   2.713 -0.0747  0.0841  0.3316
  159SAPE   O2217677   3.365   2.320   2.809  0.1141  0.3355  0.0520
  159SAPE   C2217678   3.271   2.467   2.635  0.2815 -0.0003  0.2870
  159SAPE   H2R17679   3.316   2.564   2.604  1.9763 -0.5893  0.8387
  159SAPE   H2S17680   3.245   2.408   2.545 -0.1076 -0.0280  0.4130
  159SAPE    C317681   3.747   2.425   2.665  0.2653  0.1812 -0.8551
  159SAPE    HX17682   3.733   2.461   2.561 -1.5096  0.7045 -0.4810
  159SAPE    HY17683   3.814   2.338   2.648 -0.0929 -0.0533 -1.0874
  159SAPE   O3117684   3.792   2.519   2.769  0.0469 -0.2940 -0.2658
  159SAPE   C3117685   3.875   2.613   2.737 -0.1294  0.2747 -0.3060
  159SAPE   O3217686   3.910   2.647   2.627  0.1511 -0.3256  0.5376
  159SAPE   C3217687   3.929   2.698   2.856  0.2390  0.0372 -1.0042
  159SAPE   H2X17688   3.866   2.789   2.848  0.3101  0.0971 -0.8938
  159SAPE   H2Y17689   4.039   2.709   2.848  0.7487 -2.2499  1.3459
  159SAPE   C2317690   3.142   2.516   2.717 -0.2935  0.0168  0.1043
  159SAPE   H3R17691   3.087   2.428   2.757 -0.8644  0.8821  1.2454
  159SAPE   H3S17692   3.076   2.567   2.643  0.3774  1.9733  0.8128
  159SAPE   C2417693   3.176   2.601   2.840  0.2967 -0.0456  0.0961
  159SAPE   H4R17694   3.256   2.542   2.890  0.8459 -1.3099 -2.1449
  159SAPE   H4S17695   3.092   2.612   2.912 -1.6001  0.1449 -2.0233
  159SAPE   C2517696   3.226   2.737   2.798 -0.0249  0.0058  0.4232
  159SAPE   H5R17697   3.156   2.787   2.730  1.2707 -0.3801 -1.2704
  159SAPE   C2617698   3.341   2.799   2.827  0.2016 -0.7965  0.4335
  159SAPE   H6R17699   3.354   2.902   2.790 -2.6263 -0.4422  0.1737
  159SAPE   C2717700   3.446   2.757   2.912 -0.2543 -0.4520  0.2220
  159SAPE   H7R17701   3.538   2.785   2.856  0.3270  1.3990  1.9716
  159SAPE   H7S17702   3.451   2.648   2.933 -2.8932 -0.3444  1.8629
  159SAPE   C2817703   3.461   2.838   3.038 -0.4447 -0.1332 -0.0113
  159SAPE   H8R17704   3.485   2.945   3.038 -0.6099 -0.0762  1.6243
  159SAPE   C2917705   3.431   2.785   3.162  0.6236  0.0935 -0.8040
  159SAPE   H9R17706   3.432   2.848   3.252  1.3818  0.2924 -0.9490
  159SAPE  C21017707   3.384   2.646   3.203  0.1717  0.1836  0.2840
  159SAPE  H10R17708   3.348   2.600   3.108  0.6607 -0.5732  0.4537
  159SAPE  H10S17709   3.299   2.642   3.273  0.6683 -0.4107  0.8650
  159SAPE  C21117710   3.484   2.555   3.268 -0.3504  0.2554 -0.0206
  159SAPE  H11R17711   3.523   2.472   3.207  0.7250  0.7039  0.0288
  159SAPE  C21217712   3.532   2.561   3.395  0.0818 -0.4022  0.2609
  159SAPE  H12R17713   3.603   2.481   3.419 -1.3704 -1.7434  0.2573
  159SAPE  C21317714   3.496   2.664   3.500  0.0458  0.4596 -0.8120
  159SAPE  H13R17715   3.406   2.724   3.474 -0.6170 -0.5273 -0.8927
  159SAPE  H13S17716   3.587   2.727   3.503 -0.0649  0.5854  0.6450
  159SAPE  C21417717   3.472   2.614   3.635  0.4186 -0.7036 -0.3733
  159SAPE  H14R17718   3.465   2.506   3.656 -1.7133 -0.5022  0.1510
  159SAPE  C21517719   3.441   2.695   3.740 -0.1826 -0.0672 -0.3917
  159SAPE  H15R17720   3.424   2.654   3.840 -2.0116  1.0794 -0.1896
  159SAPE  C21617721   3.445   2.849   3.734  0.0357  0.2184 -0.3133
  159SAPE  H16R17722   3.351   2.899   3.704  0.7761 -0.8768 -5.2847
  159SAPE  H16S17723   3.518   2.879   3.656  0.2191 -0.3417 -0.3629
  159SAPE  C21717724   3.492   2.916   3.863  0.0781  0.3327 -0.3054
  159SAPE  H17R17725   3.529   3.019   3.843 -1.0304  1.4945  2.8982
  159SAPE  H17S17726   3.578   2.859   3.903 -1.4891 -2.5558 -0.7732
  159SAPE  C21817727   3.374   2.933   3.954  0.0303  0.4493 -0.5686
  159SAPE  H18R17728   3.307   2.845   3.940 -0.0077  0.3519  0.2143
  159SAPE  H18S17729   3.306   3.019   3.936 -1.2768 -0.7505 -1.5682
  159SAPE  C21917730   3.416   2.927   4.104  0.7462  0.0158 -0.2879
  159SAPE  H19R17731   3.505   2.862   4.109 -1.2055 -2.7583  1.3310
  159SAPE  H19S17732   3.330   2.880   4.156 -0.6927  0.9682 -1.6839
  159SAPE  C22017733   3.443   3.063   4.174  0.0081  0.1887 -0.3747
  159SAPE  H20R17734   3.545   3.095   4.143 -0.2004  0.7204 -0.5318
  159SAPE  H20S17735   3.447   3.060   4.285  3.7702 -0.7088 -0.4232
  159SAPE  H20T17736   3.370   3.135   4.130 -0.8330  1.3131  2.6280
  159SAPE   C3317737   3.907   2.635   3.000  0.2282 -0.1267 -0.0959
  159SAPE   H3X17738   3.808   2.597   3.031  0.3272 -0.7786 -0.5684
  159SAPE   H3Y17739   3.931   2.720   3.067  0.3470  2.8708 -3.5847
  159SAPE   C3417740   4.006   2.522   3.026 -0.3240  0.8992  0.1761
  159SAPE   H4X17741   4.109   2.560   3.048 -0.0784  0.0607  0.5027
  159SAPE   H4Y17742   4.026   2.462   2.935 -0.7155 -0.2559  0.8422
  159SAPE   C3517743   3.967   2.429   3.139  0.4048 -0.4434 -0.3480
  159SAPE   H5X17744   4.043   2.347   3.140  1.2585  0.3267 -1.0067
  159SAPE   H5Y17745   3.866   2.385   3.122  0.3825 -0.2927 -0.6140
  159SAPE   C3617746   3.946   2.487   3.278  0.1840 -0.3461  0.5734
  159SAPE   H6X17747   3.847   2.538   3.272  0.4594  0.0184 -2.0191
  159SAPE   H6Y17748   4.016   2.570   3.300 -0.6293  0.5943 -0.2951
  159SAPE   C3717749   3.953   2.388   3.389  0.0459  0.0684 -0.8023
  159SAPE   H7X17750   4.053   2.341   3.381  0.2215  0.4328 -0.7828
  159SAPE   H7Y17751   3.886   2.302   3.369 -0.4559  0.3610 -0.4119
  159SAPE   C3817752   3.941   2.440   3.529  0.4167 -0.0796 -0.2791
  159SAPE   H8X17753   3.839   2.478   3.552 -0.1341 -0.4207 -2.0151
  159SAPE   H8Y17754   4.005   2.530   3.536  0.0244  0.4520 -2.6511
  159SAPE   C3917755   3.978   2.337   3.635 -0.5796  0.6193  0.5209
  159SAPE   H9X17756   4.078   2.302   3.602 -0.5402  2.4833 -1.6066
  159SAPE   H9Y17757   3.906   2.252   3.637 -0.7281  0.5852 -2.2467
  159SAPE  C31017758   3.966   2.388   3.779  0.5070 -0.0545  0.5391
  159SAPE  H10X17759   4.043   2.467   3.786 -1.1023  1.6768 -0.3241
  159SAPE  H10Y17760   3.993   2.312   3.855  1.8981  1.6221  1.8082
  159SAPE  C31117761   3.835   2.453   3.815  0.2403  0.1617 -0.0806
  159SAPE  H11X17762   3.753   2.379   3.803  1.1715 -0.7623 -0.9703
  159SAPE  H11Y17763   3.807   2.541   3.753  0.6718  0.7111  0.4927
  159SAPE  C31217764   3.834   2.503   3.965 -0.3735  0.3214  0.0979
  159SAPE  H12X17765   3.923   2.567   3.980 -0.5533  0.9430 -1.3284
  159SAPE  H12Y17766   3.859   2.414   4.027  1.0585 -0.1330 -1.0781
  159SAPE  C31317767   3.708   2.575   4.004  0.2978  0.5551 -1.1517
  159SAPE  H13X17768   3.628   2.498   4.007  0.2377  0.3552  4.7677
  159SAPE  H13Y17769   3.695   2.652   3.926  2.0277 -0.7928 -2.8777
  159SAPE  C31417770   3.709   2.633   4.146  0.7550 -0.7533 -0.2747
  159SAPE  H14X17771   3.607   2.678   4.143  0.0583 -2.2073  0.2406
  159SAPE  H14Y17772   3.773   2.723   4.143 -0.1831 -0.0983 -2.6918
  159SAPE  C31517773   3.748   2.538   4.263  0.1712 -0.6551  0.1793
  159SAPE  H15X17774   3.841   2.479   4.249  0.7739  0.2484  0.2987
  159SAPE  H15Y17775   3.654   2.480   4.274 -1.7458  1.6101 -2.8464
  159SAPE  C31617776   3.759   2.624   4.394 -0.2543  0.1514  0.2034
  159SAPE  H16X17777   3.846   2.690   4.372  1.1171 -1.6416 -0.0986
  159SAPE  H16Y17778   3.773   2.552   4.478 -0.6810 -0.8246 -0.5433
  159SAPE  C31717779   3.643   2.719   4.430 -0.2543  0.1626 -1.1630
  159SAPE  H17X17780   3.546   2.667   4.446  0.8586 -1.3987  1.1365
  159SAPE  H17Y17781   3.633   2.797   4.352  0.0208  1.1071 -0.2781
  159SAPE  C31817782   3.663   2.787   4.566 -0.4387  0.6719 -0.7289
  159SAPE  H18X17783   3.661   2.713   4.649 -0.0625  0.8835 -0.5292
  159SAPE  H18Y17784   3.597   2.874   4.586 -0.2350  1.5553 -3.5395
  159SAPE  H18Z17785   3.768   2.824   4.570 -0.3491  0.3709 -0.1555
  160SAPE     N17786   3.943   2.575   2.353  0.2288  0.6578 -0.2880
  160SAPE   HN117787   3.945   2.612   2.450  1.7987  1.4933 -0.6126
  160SAPE   HN217788   3.848   2.599   2.318 -1.0772 -0.9982  1.8212
  160SAPE   HN317789   3.934   2.472   2.358 -1.4769  0.7372 -1.0336
  160SAPE   C1217790   4.057   2.603   2.266  0.0964 -0.1554  0.4433
  160SAPE  H12A17791   4.055   2.711   2.240 -1.9261  0.3749  2.4234
  160SAPE  H12B17792   4.041   2.551   2.169  2.2415  1.8910 -1.0971
  160SAPE   C1117793   4.188   2.554   2.324 -0.0096  0.1748 -0.1924
  160SAPE  H11A17794   4.197   2.592   2.428 -2.1560  0.7607 -0.1795
  160SAPE  H11B17795   4.276   2.586   2.265 -0.1868 -0.8417 -1.0272
  160SAPE     P17796   4.224   2.323   2.201  0.5610 -0.1837 -0.0780
  160SAPE   O1317797   4.097   2.269   2.147 -0.2229  0.3733  0.4240
  160SAPE   O1417798   4.314   2.391   2.109  0.2350 -0.2161  0.1246
  160SAPE   O1217799   4.193   2.411   2.323 -0.7133  0.2018  0.1453
  160SAPE   O1117800   4.298   2.209   2.274 -0.7919 -0.0969  0.0161
  160SAPE    C117801   4.233   2.090   2.323 -0.1995  0.2469 -0.4786
  160SAPE    HA17802   4.151   2.052   2.258 -2.2094  2.9874  0.2924
  160SAPE    HB17803   4.306   2.010   2.347 -0.0735  0.6274  0.4490
  160SAPE    C217804   4.174   2.124   2.463 -0.0666 -0.7574 -0.4663
  160SAPE    HS17805   4.088   2.191   2.444 -0.4093 -0.1574  2.6452
  160SAPE   O2117806   4.271   2.205   2.532  0.1480 -0.0730  0.0982
  160SAPE   C2117807   4.227   2.308   2.589 -0.3321 -0.5996 -0.6203
  160SAPE   O2217808   4.113   2.340   2.607 -0.1211  0.0213 -0.0608
  160SAPE   C2217809   4.348   2.394   2.637 -0.1909 -0.6034 -0.9609
  160SAPE   H2R17810   4.432   2.336   2.683  0.6803  1.8910  0.7927
  160SAPE   H2S17811   4.381   2.453   2.549 -2.2378  0.1148 -1.3007
  160SAPE    C317812   4.137   2.002   2.545  0.5232 -0.0706  0.2877
  160SAPE    HX17813   4.220   1.927   2.550  0.6140  0.0395  0.4508
  160SAPE    HY17814   4.055   1.949   2.493  0.6854  0.1121 -0.1557
  160SAPE   O3117815   4.112   2.026   2.683  0.1798 -0.2905 -0.0613
  160SAPE   C3117816   3.987   2.065   2.711 -0.4028 -0.3080 -0.5218
  160SAPE   O3217817   3.902   2.075   2.626  0.1202  0.3713  0.4316
  160SAPE   C3217818   3.980   2.100   2.865 -0.2175 -0.2516  0.1307
  160SAPE   H2X17819   4.061   2.172   2.893  0.3003 -1.5026  2.0443
  160SAPE   H2Y17820   4.014   2.006   2.914 -0.1495 -0.5866 -0.5539
  160SAPE   C2317821   4.299   2.504   2.741  0.2234  0.3208 -0.5151
  160SAPE   H3R17822   4.254   2.458   2.831  0.2474  0.5747 -0.3708
  160SAPE   H3S17823   4.213   2.560   2.698 -1.6571 -1.5587  0.6487
  160SAPE   C2417824   4.408   2.600   2.785 -0.5611  0.4493  0.8374
  160SAPE   H4R17825   4.445   2.652   2.694 -0.6912 -1.1869 -0.1871
  160SAPE   H4S17826   4.495   2.539   2.817 -1.2180 -0.7711  0.3548
  160SAPE   C2517827   4.366   2.696   2.892  0.1410  0.0828 -0.5234
  160SAPE   H5R17828   4.312   2.787   2.861 -0.4512  0.6802  2.0157
  160SAPE   C2617829   4.368   2.675   3.026 -0.8510  0.2127 -0.5386
  160SAPE   H6R17830   4.328   2.754   3.090 -2.5764 -0.3394 -0.8756
  160SAPE   C2717831   4.421   2.553   3.096  0.3471  0.3470 -0.2713
  160SAPE   H7R17832   4.525   2.569   3.131 -0.5218  0.6487  2.3947
  160SAPE   H7S17833   4.416   2.466   3.028 -0.0862  0.2947 -0.1764
  160SAPE   C2817834   4.343   2.518   3.217  0.5038 -0.8433 -1.1518
  160SAPE   H8R17835   4.270   2.436   3.211 -1.3114  0.7934 -2.8553
  160SAPE   C2917836   4.359   2.570   3.343 -0.3760 -0.0258 -0.9422
  160SAPE   H9R17837   4.311   2.527   3.433 -1.2011  1.8963 -0.4067
  160SAPE  C21017838   4.444   2.682   3.387 -0.3075 -0.0882 -0.6827
  160SAPE  H10R17839   4.383   2.759   3.440 -1.5693 -1.1230 -0.5932
  160SAPE  H10S17840   4.476   2.744   3.300  0.5285 -1.3148 -1.2823
  160SAPE  C21117841   4.555   2.651   3.486  0.2260 -0.5894 -0.1112
  160SAPE  H11R17842   4.649   2.648   3.430 -1.0670  1.7957 -2.6919
  160SAPE  C21217843   4.553   2.637   3.622 -0.7192 -0.2891  0.4516
  160SAPE  H12R17844   4.653   2.625   3.665  0.3995  2.4673 -1.1062
  160SAPE  C21317845   4.440   2.630   3.719  0.1208 -0.2376  1.0234
  160SAPE  H13R17846   4.345   2.612   3.664  2.3096 -0.5463 -2.9881
  160SAPE  H13S17847   4.430   2.725   3.776 -0.9111 -0.4037  1.1335
  160SAPE  C21417848   4.451   2.516   3.812  0.0273 -1.1869 -0.0503
  160SAPE  H14R17849   4.508   2.429   3.777  0.5508 -0.8143 -0.1371
  160SAPE  C21517850   4.393   2.491   3.932  0.2667  0.0781 -0.7324
  160SAPE  H15R17851   4.419   2.403   3.991  0.9573  2.2846  2.5164
  160SAPE  C21617852   4.303   2.600   3.996  0.8172 -0.1963  0.1735
  160SAPE  H16R17853   4.215   2.626   3.935  0.1068 -2.9934 -0.1330
  160SAPE  H16S17854   4.363   2.692   4.008  0.2511  0.3115 -0.7812
  160SAPE  C21717855   4.257   2.560   4.135  0.5901 -0.4578  0.4062
  160SAPE  H17R17856   4.197   2.643   4.179  0.1099 -1.6861  2.2169
  160SAPE  H17S17857   4.349   2.544   4.194  1.9216  0.1454 -1.4199
  160SAPE  C21817858   4.162   2.436   4.135 -0.7451 -0.1348 -0.4848
  160SAPE  H18R17859   4.215   2.360   4.075  0.9205  1.2820 -0.8860
  160SAPE  H18S17860   4.068   2.469   4.085 -1.5224  2.2301  2.2574
  160SAPE  C21917861   4.124   2.379   4.277  0.2583 -0.3608 -0.6794
  160SAPE  H19R17862   4.044   2.302   4.264  0.2449 -0.5003  0.1696
  160SAPE  H19S17863   4.075   2.470   4.318 -0.9062 -1.4616  0.4831
  160SAPE  C22017864   4.239   2.323   4.350 -0.6688 -0.0153 -0.2576
  160SAPE  H20R17865   4.329   2.389   4.358 -0.7147  0.3458 -2.2911
  160SAPE  H20S17866   4.279   2.229   4.305  0.9094  1.2171 -1.5648
  160SAPE  H20T17867   4.208   2.283   4.449 -0.5020  0.7457  0.1058
  160SAPE   C3317868   3.839   2.132   2.911 -0.2688  0.9686 -0.9856
  160SAPE   H3X17869   3.760   2.091   2.845  0.0730  0.4389 -1.0719
  160SAPE   H3Y17870   3.810   2.239   2.909 -3.0903  0.2720 -1.3698
  160SAPE   C3417871   3.813   2.071   3.050 -0.6302 -0.4099 -0.3155
  160SAPE   H4X17872   3.879   2.121   3.124 -2.3876  1.4793  0.0605
  160SAPE   H4Y17873   3.832   1.962   3.042  3.6316  0.0953  0.3803
  160SAPE   C3517874   3.677   2.082   3.107 -0.4466  0.3713  0.5423
  160SAPE   H5X17875   3.595   2.019   3.065 -0.0657  0.1738  0.0971
  160SAPE   H5Y17876   3.644   2.186   3.088 -1.5007 -0.0785 -0.1850
  160SAPE   C3617877   3.667   2.033   3.259 -0.4089 -1.0762  1.0546
  160SAPE   H6X17878   3.753   2.085   3.308 -0.3916 -0.9816  0.9258
  160SAPE   H6Y17879   3.677   1.923   3.268 -2.8943 -1.2201  2.8172
  160SAPE   C3717880   3.536   2.076   3.324  0.8310  0.4474 -0.1704
  160SAPE   H7X17881   3.459   2.018   3.268 -0.3056  0.6611  1.1269
  160SAPE   H7Y17882   3.528   2.186   3.310 -0.9510  0.6174  1.6836
  160SAPE   C3817883   3.524   2.057   3.476  0.2069 -0.1365  0.2673
  160SAPE   H8X17884   3.601   2.125   3.518  1.1137  1.0109 -2.8972
  160SAPE   H8Y17885   3.539   1.952   3.506  1.9295 -0.0529 -0.2000
  160SAPE   C3917886   3.389   2.104   3.534  0.4837  0.0547 -0.0435
  160SAPE   H9X17887   3.310   2.034   3.496 -0.6052  0.9325  0.5321
  160SAPE   H9Y17888   3.353   2.201   3.493  1.2703  0.6617  0.6649
  160SAPE  C31017889   3.379   2.114   3.682 -0.0980  0.5104  0.7609
  160SAPE  H10X17890   3.277   2.153   3.704 -0.1571  1.5356 -1.1063
  160SAPE  H10Y17891   3.447   2.188   3.727 -1.2307  0.4467  2.6772
  160SAPE  C31117892   3.388   1.978   3.755  0.4191  0.1530  0.1274
  160SAPE  H11X17893   3.486   1.931   3.733 -0.3850 -1.5715  0.1038
  160SAPE  H11Y17894   3.324   1.909   3.697  0.5283 -0.7748  1.0850
  160SAPE  C31217895   3.338   1.969   3.908 -0.2302 -0.1572  0.9424
  160SAPE  H12X17896   3.229   1.991   3.914  0.4349  3.5565  1.6474
  160SAPE  H12Y17897   3.393   2.042   3.971  0.9186 -0.2721  0.0906
  160SAPE  C31317898   3.342   1.825   3.951  0.0632 -0.0494 -0.4133
  160SAPE  H13X17899   3.440   1.776   3.931 -0.9681 -2.9039  0.9403
  160SAPE  H13Y17900   3.260   1.772   3.898 -2.2126  0.7146  2.1176
  160SAPE  C31417901   3.313   1.820   4.104 -0.1779  0.3401  0.2742
  160SAPE  H14X17902   3.217   1.875   4.116  0.5290  1.5289  0.6848
  160SAPE  H14Y17903   3.383   1.881   4.165 -0.5347  0.0317  0.9977
  160SAPE  C31517904   3.298   1.673   4.146  0.7060 -0.5246 -0.1196
  160SAPE  H15X17905   3.395   1.636   4.108 -0.3574 -1.2504 -2.2797
  160SAPE  H15Y17906   3.218   1.613   4.099  0.8286 -3.2764  2.8325
  160SAPE  C31617907   3.299   1.652   4.295 -0.1331  0.2024  0.2688
  160SAPE  H16X17908   3.356   1.728   4.352 -2.2727  2.1013  0.0596
  160SAPE  H16Y17909   3.348   1.555   4.316 -0.3898 -0.6495 -2.6334
  160SAPE  C31717910   3.156   1.656   4.349 -0.3348 -0.2394  0.8652
  160SAPE  H17X17911   3.096   1.604   4.272  1.1810  0.8430 -1.1470
  160SAPE  H17Y17912   3.122   1.762   4.341 -3.2939 -0.9245  2.8148
  160SAPE  C31817913   3.143   1.608   4.497 -0.5119  0.0893  0.8141
  160SAPE  H18X17914   3.169   1.501   4.516  0.2186  0.1498  0.1976
  160SAPE  H18Y17915   3.034   1.622   4.515 -1.2112 -3.9419  0.7301
  160SAPE  H18Z17916   3.203   1.678   4.558 -0.6665 -0.5941  1.7673
  161SAPE     N17917   2.113   2.883   2.442 -0.5156 -0.2776  0.6076
  161SAPE   HN117918   2.041   2.892   2.368  0.4574 -0.6976 -0.4205
  161SAPE   HN217919   2.181   2.822   2.393 -3.1769 -2.3734 -0.7237
  161SAPE   HN317920   2.077   2.826   2.521  0.1394 -2.3921 -0.5662
  161SAPE   C1217921   2.173   3.017   2.486  0.5250 -0.7830  0.0335
  161SAPE  H12A17922   2.242   3.046   2.403  1.8806 -0.1340  1.3523
  161SAPE  H12B17923   2.228   3.009   2.582  0.4079  0.7024  0.2370
  161SAPE   C1117924   2.059   3.116   2.506  0.0977  0.9242 -0.4429
  161SAPE  H11A17925   2.101   3.206   2.553 -0.5728 -0.4977  3.2007
  161SAPE  H11B17926   1.984   3.071   2.575 -2.9249  0.7331 -3.5321
  161SAPE     P17927   1.857   3.227   2.385  0.2080  0.2228  0.1574
  161SAPE   O1317928   1.875   3.369   2.418 -0.3820  0.0492  0.0561
  161SAPE   O1417929   1.787   3.194   2.262  0.2332  0.6321  0.3882
  161SAPE   O1217930   1.996   3.156   2.383  0.2940  0.3116 -0.0025
  161SAPE   O1117931   1.772   3.172   2.501  0.1200  0.5753  0.0057
  161SAPE    C117932   1.684   3.058   2.493 -0.2161  0.5595 -0.0533
  161SAPE    HA17933   1.608   3.076   2.414 -1.5695 -0.4954  0.9580
  161SAPE    HB17934   1.744   2.968   2.465 -0.0938  0.8168 -0.6412
  161SAPE    C217935   1.607   3.032   2.630  0.3867  0.4958  0.1883
  161SAPE    HS17936   1.503   2.998   2.612  0.1938 -0.0035  2.0903
  161SAPE   O2117937   1.606   3.150   2.710 -0.2234  0.5034  0.3748
  161SAPE   C2117938   1.529   3.244   2.658  0.1317 -0.1991  0.5183
  161SAPE   O2217939   1.470   3.244   2.553  0.3419  0.4159  0.0098
  161SAPE   C2217940   1.514   3.356   2.760 -0.6118 -0.0069 -0.0298
  161SAPE   H2R17941   1.497   3.311   2.860  0.4488  0.2080  0.2586
  161SAPE   H2S17942   1.610   3.410   2.756 -0.2847 -0.3890  1.9827
  161SAPE    C317943   1.696   2.926   2.700 -0.5439 -0.5523  0.4626
  161SAPE    HX17944   1.796   2.974   2.699 -0.9548  0.3944  1.6167
  161SAPE    HY17945   1.691   2.832   2.642 -0.3159  1.0392 -2.2963
  161SAPE   O3117946   1.652   2.917   2.838 -0.2071  0.4288 -0.2820
  161SAPE   C3117947   1.726   2.830   2.913 -0.2927  0.1678  0.7352
  161SAPE   O3217948   1.832   2.784   2.874 -0.0235 -0.3275 -0.6038
  161SAPE   C3217949   1.675   2.826   3.055  0.5938  0.9671 -0.2927
  161SAPE   H2X17950   1.571   2.789   3.038  0.3258  2.2284 -1.6042
  161SAPE   H2Y17951   1.668   2.932   3.087  0.0873  1.2753 -1.3827
  161SAPE   C2317952   1.394   3.449   2.721 -0.2644 -0.4656 -1.0525
  161SAPE   H3R17953   1.411   3.478   2.615  1.5706  2.6543 -0.0423
  161SAPE   H3S17954   1.404   3.545   2.776  4.0887 -1.5990  0.5732
  161SAPE   C2417955   1.257   3.387   2.748  0.4728 -0.1949 -0.6029
  161SAPE   H4R17956   1.230   3.295   2.692  0.1418  0.0369 -0.8273
  161SAPE   H4S17957   1.181   3.461   2.715 -0.7121 -0.9822  0.2754
  161SAPE   C2517958   1.234   3.372   2.896  0.4166  0.2353  0.5445
  161SAPE   H5R17959   1.209   3.471   2.937  1.1171  1.1684 -1.1429
  161SAPE   C2617960   1.233   3.261   2.975  0.5214 -0.1709 -0.3482
  161SAPE   H6R17961   1.202   3.252   3.081  0.7169 -0.3992 -0.3116
  161SAPE   C2717962   1.254   3.121   2.920 -0.1826  0.3348 -0.3958
  161SAPE   H7R17963   1.258   3.112   2.809 -0.9407  1.5584 -0.5406
  161SAPE   H7S17964   1.158   3.066   2.935 -1.0491  2.0514  0.7109
  161SAPE   C2817965   1.367   3.052   2.990  0.0331  0.1056  0.4392
  161SAPE   H8R17966   1.454   3.041   2.924 -1.6825  2.1096 -2.3720
  161SAPE   C2917967   1.366   2.999   3.118  0.7680 -0.2846 -0.2305
  161SAPE   H9R17968   1.454   2.942   3.149  1.6763  1.3191  0.2769
  161SAPE  C21017969   1.257   2.994   3.229  0.0716 -0.0532  0.0009
  161SAPE  H10R17970   1.217   2.890   3.228 -0.9544  0.2359  2.7433
  161SAPE  H10S17971   1.165   3.053   3.210 -0.2877 -0.2794  0.9992
  161SAPE  C21117972   1.309   3.038   3.369  0.0002  0.4732 -0.6071
  161SAPE  H11R17973   1.313   3.147   3.385  2.3520  0.5033 -0.9954
  161SAPE  C21217974   1.337   2.951   3.471  0.2648 -0.6205  0.5409
  161SAPE  H12R17975   1.366   2.991   3.569  1.1076 -1.0443  0.4799
  161SAPE  C21317976   1.317   2.800   3.452 -0.2451  0.1063 -0.2420
  161SAPE  H13R17977   1.419   2.757   3.454 -1.1883 -2.3246 -1.1620
  161SAPE  H13S17978   1.267   2.770   3.358  0.1446 -2.0452  0.1980
  161SAPE  C21417979   1.225   2.750   3.562 -0.1882 -0.0544  0.6403
  161SAPE  H14R17980   1.121   2.784   3.571 -0.3969 -0.9136  1.7219
  161SAPE  C21517981   1.268   2.667   3.660  0.4188  0.7348 -0.4279
  161SAPE  H15R17982   1.200   2.649   3.745  1.0058  2.3149  0.4085
  161SAPE  C21617983   1.412   2.607   3.679 -0.0265 -0.3907  0.2559
  161SAPE  H16R17984   1.469   2.615   3.584  0.3831  1.8141  0.6432
  161SAPE  H16S17985   1.416   2.499   3.705  1.0199 -0.2738  0.6513
  161SAPE  C21717986   1.496   2.679   3.778 -0.0949  0.6954  0.2430
  161SAPE  H17R17987   1.430   2.682   3.868 -2.2238 -2.7433 -1.0294
  161SAPE  H17S17988   1.524   2.777   3.735 -0.3465 -0.1450 -1.9511
  161SAPE  C21817989   1.609   2.586   3.831  0.8458  0.4482 -0.6565
  161SAPE  H18R17990   1.645   2.531   3.742  0.0371  1.8709 -1.8947
  161SAPE  H18S17991   1.562   2.512   3.900  0.5771  0.2265 -1.0705
  161SAPE  C21917992   1.722   2.650   3.902  0.1624  0.3055  0.3577
  161SAPE  H19R17993   1.679   2.697   3.993 -2.6808 -0.6282 -0.3914
  161SAPE  H19S17994   1.773   2.731   3.845 -3.1352  1.4463 -1.2061
  161SAPE  C22017995   1.820   2.541   3.955  0.3495  0.0620  0.5055
  161SAPE  H20R17996   1.790   2.498   4.053 -1.3245  2.0236  0.9212
  161SAPE  H20S17997   1.920   2.587   3.966  0.0717  0.5205  1.2185
  161SAPE  H20T17998   1.840   2.457   3.885 -1.7103  0.6282 -0.8448
  161SAPE   C3317999   1.753   2.736   3.157 -0.6171 -0.1151 -0.7786
  161SAPE   H3X18000   1.851   2.780   3.186  0.6311 -3.9047  1.5711
  161SAPE   H3Y18001   1.787   2.642   3.107  2.0837 -0.8312  2.0748
  161SAPE   C3418002   1.673   2.696   3.284 -0.3181 -0.1157  0.3899
  161SAPE   H4X18003   1.568   2.670   3.260 -0.4568 -0.0068  0.8584
  161SAPE   H4Y18004   1.682   2.793   3.338 -0.8572  1.0910 -1.5667
  161SAPE   C3518005   1.738   2.590   3.374  1.1422  0.0111  0.1559
  161SAPE   H5X18006   1.712   2.612   3.479  0.5933 -0.7285  0.1857
  161SAPE   H5Y18007   1.849   2.591   3.364  1.0333  1.3404 -1.2111
  161SAPE   C3618008   1.680   2.451   3.333  0.4527 -0.1504  0.1724
  161SAPE   H6X18009   1.724   2.455   3.231 -0.0284 -0.2526 -0.0416
  161SAPE   H6Y18010   1.569   2.460   3.331  0.3614 -1.3063 -1.2332
  161SAPE   C3718011   1.735   2.326   3.396  0.6478 -0.1832 -0.4047
  161SAPE   H7X18012   1.844   2.337   3.410  0.3422  1.0006  1.5012
  161SAPE   H7Y18013   1.703   2.241   3.333 -0.4385  0.2989 -0.5316
  161SAPE   C3818014   1.674   2.318   3.539  0.6442 -0.0330  0.5517
  161SAPE   H8X18015   1.564   2.334   3.533  0.9071  1.3058 -2.5769
  161SAPE   H8Y18016   1.717   2.382   3.620  2.3628 -1.7543  1.0800
  161SAPE   C3918017   1.707   2.181   3.609  0.3658  0.1185 -0.0579
  161SAPE   H9X18018   1.816   2.171   3.589  0.5687 -0.8312  1.3643
  161SAPE   H9Y18019   1.655   2.096   3.559 -0.6704  0.9669 -0.4625
  161SAPE  C31018020   1.698   2.172   3.762  0.1932  0.0565 -0.5302
  161SAPE  H10X18021   1.745   2.259   3.813  1.7430  0.1759 -2.0511
  161SAPE  H10Y18022   1.768   2.091   3.790 -0.6816 -0.6263 -0.2809
  161SAPE  C31118023   1.564   2.156   3.833  0.2766  0.2135 -0.3498
  161SAPE  H11X18024   1.507   2.079   3.776  0.1785 -0.6718  0.9066
  161SAPE  H11Y18025   1.505   2.250   3.838  0.5584  0.3383  1.0981
  161SAPE  C31218026   1.586   2.087   3.970 -0.5888 -0.5494 -0.0402
  161SAPE  H12X18027   1.664   2.145   4.024 -0.3639  1.9273 -2.7848
  161SAPE  H12Y18028   1.618   1.980   3.965  1.5940  0.0867 -0.8462
  161SAPE  C31318029   1.472   2.078   4.063  0.1591 -0.0825 -0.3513
  161SAPE  H13X18030   1.395   2.010   4.019 -1.3384  1.4746 -0.2452
  161SAPE  H13Y18031   1.429   2.181   4.060 -0.4202 -0.2997 -3.5418
  161SAPE  C31418032   1.503   2.027   4.201 -0.0090  0.2691 -0.1083
  161SAPE  H14X18033   1.570   2.094   4.259  0.8233 -1.6059  1.1931
  161SAPE  H14Y18034   1.556   1.929   4.200  0.2830  0.3649  1.9430
  161SAPE  C31518035   1.372   1.997   4.282  0.7254 -0.1821 -0.3601
  161SAPE  H15X18036   1.288   1.956   4.221  0.6512 -0.9848  0.2771
  161SAPE  H15Y18037   1.328   2.095   4.310 -0.9173 -1.6649  2.7008
  161SAPE  C31618038   1.388   1.933   4.419  0.2691  0.3171 -0.9237
  161SAPE  H16X18039   1.449   2.009   4.473 -0.4771  1.1961 -1.2814
  161SAPE  H16Y18040   1.444   1.837   4.419  0.1224  0.2267 -0.3463
  161SAPE  C31718041   1.250   1.903   4.495 -0.7067  0.2669 -0.3744
  161SAPE  H17X18042   1.269   1.840   4.585 -0.3057  0.6042 -0.2232
  161SAPE  H17Y18043   1.180   1.853   4.425  0.1813  2.2066 -2.7643
  161SAPE  C31818044   1.196   2.029   4.563 -0.3750  0.2324 -0.2024
  161SAPE  H18X18045   1.269   2.054   4.642 -1.1446 -0.4803  0.7532
  161SAPE  H18Y18046   1.106   2.012   4.624  0.5097 -1.5309  0.6933
  161SAPE  H18Z18047   1.178   2.108   4.487  1.1236 -0.1525 -1.0064
  162SAPE     N18048   0.274   6.031   2.394  0.0947 -0.3361 -0.2498
  162SAPE   HN118049   0.298   6.079   2.483  1.5336 -0.9155 -0.2967
  162SAPE   HN218050   0.363   6.015   2.343 -0.6767  1.1352 -2.2328
  162SAPE   HN318051   0.209   6.100   2.350 -0.1852  0.2690  1.0753
  162SAPE   C1218052   0.206   5.901   2.420 -0.0565 -0.4079 -0.5130
  162SAPE  H12A18053   0.281   5.851   2.485  0.2417 -1.0187 -1.3269
  162SAPE  H12B18054   0.188   5.844   2.327  1.3830 -0.2339 -0.9166
  162SAPE   C1118055   0.070   5.915   2.499  0.2321 -0.0601 -0.3906
  162SAPE  H11A18056   0.042   5.814   2.536  0.3360 -0.6258 -1.8092
  162SAPE  H11B18057   0.003   5.946   2.416 -0.5195  0.4203  0.3799
  162SAPE     P18058  -0.028   6.123   2.646 -0.0665  0.0316  0.0453
  162SAPE   O1318059   0.039   6.252   2.671 -0.4397 -0.2072 -0.2287
  162SAPE   O1418060  -0.134   6.123   2.545 -0.5398  0.3444 -0.2608
  162SAPE   O1218061   0.079   6.007   2.604 -0.1507  0.1487  0.2218
  162SAPE   O1118062  -0.098   6.064   2.776  0.6948 -0.5657 -0.5009
  162SAPE    C118063  -0.092   5.924   2.821  0.8259  0.3814  0.3155
  162SAPE    HA18064  -0.194   5.900   2.857  1.0134 -0.2169  0.4461
  162SAPE    HB18065  -0.072   5.860   2.733 -0.1403 -1.2658  1.2435
  162SAPE    C218066   0.011   5.885   2.924 -0.0824 -0.3038  0.1675
  162SAPE    HS18067  -0.020   5.785   2.960 -2.1944 -0.2150 -1.2178
  162SAPE   O2118068   0.025   5.971   3.038 -0.2158  0.5162  0.1354
  162SAPE   C2118069  -0.086   6.001   3.108  0.7609 -0.6434 -0.4489
  162SAPE   O2218070  -0.194   5.944   3.100 -0.3783 -0.4125  0.0354
  162SAPE   C2218071  -0.053   6.115   3.203 -0.1130 -0.4982 -0.5982
  162SAPE   H2R18072  -0.001   6.083   3.296 -1.0838  2.2657  1.0071
  162SAPE   H2S18073  -0.003   6.201   3.154 -0.6232  0.1253 -0.0481
  162SAPE    C318074   0.150   5.863   2.860 -0.8210  0.3388 -0.2094
  162SAPE    HX18075   0.192   5.950   2.806 -1.4232  0.4720 -0.4797
  162SAPE    HY18076   0.138   5.780   2.787  1.0971  0.2197 -0.4362
  162SAPE   O3118077   0.231   5.805   2.961 -0.6659  0.2051 -0.1148
  162SAPE   C3118078   0.348   5.864   2.986  0.7083  0.2928 -0.8627
  162SAPE   O3218079   0.384   5.969   2.934  0.3885 -0.2714 -0.4266
  162SAPE   C3218080   0.417   5.795   3.094 -0.4713  0.4350 -0.3224
  162SAPE   H2X18081   0.494   5.720   3.066 -1.1310 -1.4973  2.5668
  162SAPE   H2Y18082   0.333   5.742   3.143 -1.4267  1.5719 -0.6718
  162SAPE   C2318083  -0.185   6.174   3.262 -0.6036 -0.4159  0.7241
  162SAPE   H3R18084  -0.265   6.189   3.186  1.7348  0.1166 -1.7928
  162SAPE   H3S18085  -0.168   6.278   3.296 -0.3940 -0.8049  1.8634
  162SAPE   C2418086  -0.214   6.092   3.387 -0.2533 -0.5571  0.8968
  162SAPE   H4R18087  -0.121   6.105   3.446  0.2070  2.1105 -0.2652
  162SAPE   H4S18088  -0.229   5.987   3.353  0.8071 -0.5720  0.4448
  162SAPE   C2518089  -0.330   6.146   3.471  0.1387 -0.2379  1.0880
  162SAPE   H5R18090  -0.312   6.245   3.516  0.9349  0.8152 -1.3540
  162SAPE   C2618091  -0.442   6.086   3.509 -0.2761 -0.0727  0.0841
  162SAPE   H6R18092  -0.514   6.141   3.571  1.4539  1.4289  0.8131
  162SAPE   C2718093  -0.480   5.937   3.487 -0.2463  0.2903 -0.4102
  162SAPE   H7R18094  -0.512   5.898   3.586  1.4562 -0.5947 -0.1702
  162SAPE   H7S18095  -0.389   5.880   3.458  0.6145  0.6286  1.4943
  162SAPE   C2818096  -0.596   5.933   3.392 -0.1443  1.4566  0.3126
  162SAPE   H8R18097  -0.573   5.949   3.286 -0.5796 -1.8294 -0.3971
  162SAPE   C2918098  -0.725   5.910   3.424  0.9406 -0.0394  0.3604
  162SAPE   H9R18099  -0.799   5.922   3.345  0.1074  1.3512  1.3173
  162SAPE  C21018100  -0.774   5.889   3.563 -0.0694  0.3306 -0.5695
  162SAPE  H10R18101  -0.718   5.957   3.630  1.5379 -1.3863 -0.0840
  162SAPE  H10S18102  -0.718   5.800   3.597 -1.9708 -1.3693 -1.6538
  162SAPE  C21118103  -0.918   5.874   3.582  0.1043 -0.2513 -0.6071
  162SAPE  H11R18104  -0.980   5.889   3.492  1.0536  2.1543 -0.9424
  162SAPE  C21218105  -0.964   5.830   3.698  0.2993 -0.5341 -0.3593
  162SAPE  H12R18106  -1.074   5.829   3.708  0.2939 -1.5520 -0.4452
  162SAPE  C21318107  -0.892   5.822   3.834 -0.4351 -0.1727 -0.0082
  162SAPE  H13R18108  -0.950   5.890   3.900 -1.4807 -1.0836  0.0321
  162SAPE  H13S18109  -0.796   5.878   3.829 -0.9573  0.7410  0.0308
  162SAPE  C21418110  -0.878   5.689   3.902  0.4512 -0.6367  0.2324
  162SAPE  H14R18111  -0.850   5.624   3.818 -0.4560  0.8800 -1.3065
  162SAPE  C21518112  -0.897   5.655   4.026 -0.3703  0.5036  0.1815
  162SAPE  H15R18113  -0.889   5.547   4.048 -1.5047  0.2816 -0.4551
  162SAPE  C21618114  -0.924   5.742   4.149  0.5057 -0.1398  0.5015
  162SAPE  H16R18115  -0.919   5.670   4.233 -0.0155 -2.4570 -1.3325
  162SAPE  H16S18116  -1.028   5.782   4.150 -0.2734 -1.7866 -2.3691
  162SAPE  C21718117  -0.812   5.842   4.173 -0.4093 -0.0056  0.2200
  162SAPE  H17R18118  -0.819   5.929   4.104 -0.0022 -0.1036  0.0500
  162SAPE  H17S18119  -0.709   5.800   4.167 -0.9279 -1.2622 -0.0704
  162SAPE  C21818120  -0.820   5.886   4.321  0.3292  0.4698 -0.0128
  162SAPE  H18R18121  -0.835   5.800   4.390  1.4490 -0.4203 -0.8427
  162SAPE  H18S18122  -0.911   5.948   4.338  1.1083  2.0029 -1.1379
  162SAPE  C21918123  -0.693   5.966   4.360 -0.0408 -0.2910 -0.4514
  162SAPE  H19R18124  -0.679   6.042   4.280  0.6444  0.7598  0.6336
  162SAPE  H19S18125  -0.600   5.906   4.360  0.6839  0.8074  0.0014
  162SAPE  C22018126  -0.704   6.037   4.498 -0.2116  0.3638  0.5079
  162SAPE  H20R18127  -0.608   6.076   4.537  0.1180 -1.1842  1.3267
  162SAPE  H20S18128  -0.738   5.953   4.562  0.3684  2.2284  3.4114
  162SAPE  H20T18129  -0.782   6.116   4.493  1.1790  1.9287  2.3958
  162SAPE   C3318130   0.492   5.888   3.199  0.3411 -0.2604  0.3217
  162SAPE   H3X18131   0.437   5.984   3.207  1.6719  0.5237  0.4039
  162SAPE   H3Y18132   0.598   5.885   3.167  0.2202  1.5353 -0.3757
  162SAPE   C3418133   0.481   5.822   3.340 -0.1752  0.2208 -0.0106
  162SAPE   H4X18134   0.524   5.720   3.347 -2.4218 -0.8764 -1.1963
  162SAPE   H4Y18135   0.376   5.807   3.374 -0.1611 -1.5291 -0.6307
  162SAPE   C3518136   0.543   5.907   3.454 -0.3706  0.3324 -0.9483
  162SAPE   H5X18137   0.480   5.998   3.465 -0.9398 -0.2716  1.2790
  162SAPE   H5Y18138   0.640   5.943   3.415  0.9096 -2.2266 -0.3479
  162SAPE   C3618139   0.543   5.835   3.592  0.4109 -0.4546  0.8444
  162SAPE   H6X18140   0.604   5.743   3.584 -0.5591 -1.1591  1.4585
  162SAPE   H6Y18141   0.437   5.810   3.615 -0.3267 -0.1813 -1.9034
  162SAPE   C3718142   0.601   5.912   3.713  0.8383 -0.1812 -0.7089
  162SAPE   H7X18143   0.563   6.017   3.707  3.3568  0.7519 -1.6328
  162SAPE   H7Y18144   0.712   5.912   3.704  1.0929  2.5454  1.0950
  162SAPE   C3818145   0.565   5.839   3.845 -0.2483 -0.7320  0.4347
  162SAPE   H8X18146   0.608   5.737   3.841  1.6697  0.0033  1.2382
  162SAPE   H8Y18147   0.457   5.826   3.869 -0.7855  0.7205 -1.0214
  162SAPE   C3918148   0.622   5.919   3.959 -0.7972  0.3029  0.3545
  162SAPE   H9X18149   0.584   6.022   3.942 -3.6112 -0.6925  0.1710
  162SAPE   H9Y18150   0.732   5.922   3.942 -0.6301 -0.1248  1.3307
  162SAPE  C31018151   0.591   5.862   4.095 -0.1223  0.2855 -0.2535
  162SAPE  H10X18152   0.598   5.752   4.082  0.5957  0.0490  1.7264
  162SAPE  H10Y18153   0.496   5.899   4.140 -0.0252  0.2271  0.0020
  162SAPE  C31118154   0.697   5.907   4.199 -0.3911  0.4752  0.8244
  162SAPE  H11X18155   0.716   6.015   4.212  1.4447  0.2463  0.3618
  162SAPE  H11Y18156   0.788   5.859   4.156  0.0414  2.8299 -1.1128
  162SAPE  C31218157   0.658   5.837   4.329  0.2660 -0.6381  0.1108
  162SAPE  H12X18158   0.605   5.740   4.316 -0.2811 -0.3423  0.1198
  162SAPE  H12Y18159   0.589   5.906   4.381  2.4214  1.0661  0.9058
  162SAPE  C31318160   0.779   5.818   4.422 -0.4061 -0.6982 -0.5188
  162SAPE  H13X18161   0.832   5.915   4.432 -0.1062 -0.7189 -1.6820
  162SAPE  H13Y18162   0.857   5.751   4.379  1.2283  0.8040  0.0130
  162SAPE  C31418163   0.736   5.758   4.556 -0.8951  0.1881 -0.1919
  162SAPE  H14X18164   0.823   5.726   4.617 -0.5184  0.0170 -0.8067
  162SAPE  H14Y18165   0.678   5.668   4.526 -0.3542  0.0037 -0.7027
  162SAPE  C31518166   0.661   5.858   4.640 -0.2818 -0.7610 -0.1501
  162SAPE  H15X18167   0.562   5.880   4.595 -0.9210 -0.4455  1.3576
  162SAPE  H15Y18168   0.731   5.943   4.655  0.5890 -1.6017  0.7058
  162SAPE  C31618169   0.622   5.791   4.768  0.3802 -0.6180  0.4063
  162SAPE  H16X18170   0.708   5.754   4.827  1.9676  1.1437 -0.7072
  162SAPE  H16Y18171   0.567   5.698   4.739  0.1614  0.0616 -1.5068
  162SAPE  C31718172   0.525   5.870   4.855  0.5199 -0.0471  0.4346
  162SAPE  H17X18173   0.437   5.911   4.801 -0.4113  0.3515  2.1680
  162SAPE  H17Y18174   0.582   5.963   4.876 -0.9289  0.5678  1.9141
  162SAPE  C31818175   0.473   5.804   4.985 -0.4259 -0.5269 -0.0673
  162SAPE  H18X18176   0.398   5.728   4.957  0.2505 -0.3853 -2.5084
  162SAPE  H18Y18177   0.438   5.872   5.065  0.1620 -2.0560  1.5696
  162SAPE  H18Z18178   0.565   5.762   5.031  0.4290  0.0163 -1.2127
  163SAPE     N18179   1.296   2.631   2.251 -0.4222 -0.6630  0.4768
  163SAPE   HN118180   1.308   2.530   2.274 -1.6291 -0.9892 -0.2407
  163SAPE   HN218181   1.387   2.657   2.208 -1.3278  0.0990 -1.0598
  163SAPE   HN318182   1.282   2.684   2.339 -1.0776 -1.4027  0.8326
  163SAPE   C1218183   1.178   2.657   2.153  0.2217 -0.1539 -0.5770
  163SAPE  H12A18184   1.199   2.600   2.060 -1.0801  0.5370 -1.3180
  163SAPE  H12B18185   1.182   2.767   2.139  0.4251 -0.1465 -0.4670
  163SAPE   C1118186   1.047   2.617   2.220  0.3474 -0.9810 -0.0764
  163SAPE  H11A18187   1.037   2.506   2.228  1.3058 -0.9675  1.9078
  163SAPE  H11B18188   0.973   2.652   2.146  0.0103 -0.9988  0.2470
  163SAPE     P18189   0.903   2.635   2.431  0.7552 -0.5860  0.0136
  163SAPE   O1318190   0.776   2.643   2.350  0.2019  0.0038 -0.4257
  163SAPE   O1418191   0.935   2.502   2.484  0.3119  0.2423  0.1814
  163SAPE   O1218192   1.027   2.681   2.348 -0.0329  0.4088 -0.2055
  163SAPE   O1118193   0.897   2.733   2.555 -0.0044 -0.7371  0.2506
  163SAPE    C118194   1.018   2.762   2.631 -0.3020 -0.5771 -0.6477
  163SAPE    HA18195   1.113   2.758   2.574  1.7652 -0.0378  2.4893
  163SAPE    HB18196   1.001   2.868   2.659  0.7191 -0.2757 -1.1165
  163SAPE    C218197   1.048   2.686   2.769  0.3257  0.1484  0.9082
  163SAPE    HS18198   1.126   2.612   2.743 -1.2699 -0.9123 -1.1191
  163SAPE   O2118199   0.923   2.627   2.811 -0.0933 -0.4729  0.1913
  163SAPE   C2118200   0.934   2.498   2.855 -0.1228 -0.8418  0.3898
  163SAPE   O2218201   1.037   2.433   2.852  0.1770  0.2542 -0.3158
  163SAPE   C2218202   0.793   2.447   2.894  0.6788 -0.3740 -0.0531
  163SAPE   H2R18203   0.734   2.531   2.935 -0.7724 -0.8041 -1.1701
  163SAPE   H2S18204   0.738   2.411   2.804 -1.7962 -0.8610  1.5773
  163SAPE    C318205   1.096   2.786   2.879  1.2377  0.6700  0.5361
  163SAPE    HX18206   1.011   2.858   2.880  0.3603 -0.1736 -2.2888
  163SAPE    HY18207   1.187   2.833   2.836  0.2735  2.0568 -0.0571
  163SAPE   O3118208   1.111   2.716   3.007  0.4295 -0.2409  0.3706
  163SAPE   C3118209   1.226   2.650   3.023  0.1321  0.1497 -0.0769
  163SAPE   O3218210   1.314   2.646   2.939  0.0422  1.4037  0.5542
  163SAPE   C3218211   1.233   2.579   3.158 -0.3946 -0.2015 -0.0391
  163SAPE   H2X18212   1.139   2.603   3.214  0.1435 -1.5301  1.5023
  163SAPE   H2Y18213   1.313   2.619   3.224  0.5486 -1.7199 -0.2250
  163SAPE   C2318214   0.786   2.321   2.984 -0.3558  0.0649  0.3424
  163SAPE   H3R18215   0.836   2.240   2.927  0.0857  1.4641 -1.3438
  163SAPE   H3S18216   0.676   2.313   2.997 -0.5828  1.7830 -0.3118
  163SAPE   C2418217   0.853   2.336   3.123 -0.7435  0.1578  0.3222
  163SAPE   H4R18218   0.960   2.366   3.119 -0.9115  0.6832 -0.6258
  163SAPE   H4S18219   0.863   2.231   3.157  1.5947 -0.1438 -1.1080
  163SAPE   C2518220   0.770   2.423   3.215  0.9773  0.1542 -0.4286
  163SAPE   H5R18221   0.701   2.492   3.165 -0.7094  0.4395  2.0725
  163SAPE   C2618222   0.771   2.414   3.352 -0.5168 -0.2890  0.1524
  163SAPE   H6R18223   0.712   2.493   3.400 -0.0267  0.5170 -0.5433
  163SAPE   C2718224   0.860   2.333   3.443 -0.0624  1.0429 -0.6639
  163SAPE   H7R18225   0.950   2.398   3.453 -0.8186  2.1463 -0.9095
  163SAPE   H7S18226   0.894   2.242   3.389 -0.3210  0.4715  0.1228
  163SAPE   C2818227   0.799   2.300   3.579 -0.2708  0.5241 -0.0713
  163SAPE   H8R18228   0.722   2.222   3.578 -2.0320  1.9148  4.4094
  163SAPE   C2918229   0.854   2.332   3.698 -0.1729  0.8368 -0.3291
  163SAPE   H9R18230   0.800   2.298   3.788 -0.1122  0.6731 -0.3533
  163SAPE  C21018231   0.978   2.412   3.730 -0.1283 -0.8049  0.7169
  163SAPE  H10R18232   0.966   2.459   3.830 -0.8738 -1.5450  0.9927
  163SAPE  H10S18233   0.984   2.497   3.659  1.3878 -2.8248 -1.7461
  163SAPE  C21118234   1.107   2.327   3.719  0.1582  0.4665 -0.0591
  163SAPE  H11R18235   1.127   2.275   3.624 -0.1952 -0.4887  0.3815
  163SAPE  C21218236   1.200   2.291   3.813  0.3597 -0.0795  0.7180
  163SAPE  H12R18237   1.284   2.228   3.782 -1.2704 -1.4325 -1.1930
  163SAPE  C21318238   1.200   2.328   3.957  0.1069 -0.7018 -0.2570
  163SAPE  H13R18239   1.166   2.433   3.969  3.2259  0.3314  0.7131
  163SAPE  H13S18240   1.308   2.336   3.985  0.4450  0.3228 -1.7070
  163SAPE  C21418241   1.129   2.236   4.059  0.1798 -0.3597  0.1788
  163SAPE  H14R18242   1.094   2.137   4.026  4.0085 -2.6209  2.2376
  163SAPE  C21518243   1.101   2.280   4.184 -0.0689 -0.1818 -0.0901
  163SAPE  H15R18244   1.058   2.213   4.260  1.1010  0.0336  0.7953
  163SAPE  C21618245   1.146   2.412   4.247 -0.8405  0.6027  0.6912
  163SAPE  H16R18246   1.061   2.485   4.246 -1.3237  0.0498  0.6646
  163SAPE  H16S18247   1.225   2.466   4.191  0.0117 -0.7179  0.5814
  163SAPE  C21718248   1.204   2.385   4.386  0.1290 -0.2060  0.2966
  163SAPE  H17R18249   1.302   2.336   4.369  0.2974  0.1767  0.1510
  163SAPE  H17S18250   1.129   2.324   4.440 -1.4785  2.2355  0.9887
  163SAPE  C21818251   1.234   2.519   4.453  0.2668  0.4606 -0.7145
  163SAPE  H18R18252   1.140   2.572   4.478  0.9594  0.3821  2.4609
  163SAPE  H18S18253   1.300   2.576   4.384  0.9214  0.5055 -0.0725
  163SAPE  C21918254   1.300   2.509   4.590  0.4623 -0.0721  0.3067
  163SAPE  H19R18255   1.396   2.457   4.570  0.3043  0.7103 -3.1159
  163SAPE  H19S18256   1.231   2.454   4.657 -0.0187  3.3651  2.9709
  163SAPE  C22018257   1.322   2.642   4.647 -0.2339 -0.1170 -0.2497
  163SAPE  H20R18258   1.370   2.711   4.575  0.0136 -0.8447 -0.7968
  163SAPE  H20S18259   1.392   2.631   4.733  0.9982 -2.9134 -1.4486
  163SAPE  H20T18260   1.224   2.674   4.688 -1.2959 -2.1762 -1.0275
  163SAPE   C3318261   1.265   2.435   3.144 -0.6940  0.7486  0.1936
  163SAPE   H3X18262   1.371   2.426   3.109 -1.3143 -0.3361 -1.5752
  163SAPE   H3Y18263   1.202   2.387   3.066 -1.5178  0.6622  0.8975
  163SAPE   C3418264   1.251   2.353   3.282 -1.2349  0.5340  0.0386
  163SAPE   H4X18265   1.149   2.370   3.323 -1.1826 -1.2649  1.0011
  163SAPE   H4Y18266   1.316   2.396   3.361 -1.5365  0.1741  0.4812
  163SAPE   C3518267   1.282   2.201   3.268 -0.2195 -0.3963  0.0214
  163SAPE   H5X18268   1.379   2.191   3.215 -0.4582 -1.4137 -0.2430
  163SAPE   H5Y18269   1.208   2.156   3.199 -0.3478 -4.3102  2.3813
  163SAPE   C3618270   1.292   2.127   3.408 -0.8488  0.4564  0.5594
  163SAPE   H6X18271   1.325   2.192   3.492 -0.6084  0.9798  0.0639
  163SAPE   H6Y18272   1.364   2.043   3.400 -0.4657  0.9672 -2.8264
  163SAPE   C3718273   1.170   2.042   3.445  0.2934 -0.1287 -0.0294
  163SAPE   H7X18274   1.167   1.964   3.366  4.3367 -0.8504  0.3098
  163SAPE   H7Y18275   1.083   2.111   3.445  0.0412 -0.4426 -0.0022
  163SAPE   C3818276   1.184   1.965   3.577 -0.7845 -0.2082  0.9247
  163SAPE   H8X18277   1.236   2.027   3.653  2.6501 -1.4527 -0.1924
  163SAPE   H8Y18278   1.252   1.879   3.560  1.5940  1.9017 -0.9773
  163SAPE   C3918279   1.051   1.925   3.639 -0.2361  0.1458  0.2858
  163SAPE   H9X18280   1.031   1.823   3.601 -1.9502 -0.2932  2.2260
  163SAPE   H9Y18281   0.976   2.001   3.606  0.0929  0.2847 -0.1611
  163SAPE  C31018282   1.071   1.924   3.799 -0.5654  0.1837  0.1404
  163SAPE  H10X18283   0.974   1.905   3.849 -0.1295  1.8325  1.7459
  163SAPE  H10Y18284   1.084   2.031   3.827 -0.6493  0.5533 -1.1940
  163SAPE  C31118285   1.188   1.837   3.837  0.3658  0.5409  0.3610
  163SAPE  H11X18286   1.278   1.900   3.819 -0.2028  1.2296 -0.1032
  163SAPE  H11Y18287   1.193   1.747   3.773  2.2068  0.5935  0.3795
  163SAPE  C31218288   1.183   1.781   3.981 -0.0454  0.6076 -0.0760
  163SAPE  H12X18289   1.076   1.750   3.979 -0.4698  2.0810 -1.0566
  163SAPE  H12Y18290   1.201   1.860   4.057  0.0680  0.7763 -0.2818
  163SAPE  C31318291   1.274   1.663   4.007 -0.2152 -0.1134 -0.5246
  163SAPE  H13X18292   1.378   1.698   3.990 -0.1457  0.3749  0.7853
  163SAPE  H13Y18293   1.257   1.576   3.940  2.2644 -1.1361  0.0649
  163SAPE  C31418294   1.257   1.604   4.154 -0.3431  0.5776 -0.2286
  163SAPE  H14X18295   1.150   1.624   4.176 -0.4892  0.6754 -0.9997
  163SAPE  H14Y18296   1.319   1.668   4.220  0.0565  0.2775 -0.3097
  163SAPE  C31518297   1.309   1.461   4.162  0.6443  0.2038 -0.3196
  163SAPE  H15X18298   1.382   1.445   4.080  0.8678  0.9544 -0.2748
  163SAPE  H15Y18299   1.226   1.389   4.144 -2.0139  2.4509  1.9192
  163SAPE  C31618300   1.364   1.429   4.298  0.5927  0.2192 -0.3767
  163SAPE  H16X18301   1.452   1.496   4.304 -1.0211  2.3427  0.6483
  163SAPE  H16Y18302   1.398   1.323   4.304  1.5984  0.5820  1.0479
  163SAPE  C31718303   1.274   1.465   4.422 -0.2091 -0.0823 -0.1549
  163SAPE  H17X18304   1.233   1.567   4.406  1.2773  0.4844 -0.4993
  163SAPE  H17Y18305   1.339   1.476   4.511 -0.9559  1.8174  0.2099
  163SAPE  C31818306   1.166   1.365   4.438  0.0447  0.1623  0.6610
  163SAPE  H18X18307   1.204   1.280   4.498 -0.6834  0.8611  2.1407
  163SAPE  H18Y18308   1.129   1.332   4.338  1.6665 -0.0762  0.1057
  163SAPE  H18Z18309   1.084   1.401   4.503 -2.2109 -0.8514 -1.5052
  164SAPE     N18310   2.917   3.702   2.764  0.0349 -0.1752  0.0120
  164SAPE   HN118311   3.017   3.678   2.780  0.4422  0.4423 -1.4513
  164SAPE   HN218312   2.894   3.788   2.818  2.3936  0.5683 -0.0884
  164SAPE   HN318313   2.855   3.626   2.800 -0.7603 -0.5055 -1.8806
  164SAPE   C1218314   2.865   3.706   2.622 -0.0321 -0.4567 -0.3385
  164SAPE  H12A18315   2.776   3.773   2.622 -0.0316 -0.4490 -1.1684
  164SAPE  H12B18316   2.833   3.605   2.590  1.8515 -1.3777  0.5506
  164SAPE   C1118317   2.958   3.779   2.522 -0.3414 -1.1037  0.0572
  164SAPE  H11A18318   2.932   3.885   2.542 -2.0479 -1.4368 -0.2095
  164SAPE  H11B18319   2.931   3.772   2.415  1.9701  1.4686 -0.7999
  164SAPE     P18320   3.168   3.622   2.486 -0.0542 -0.3955 -0.4043
  164SAPE   O1318321   3.144   3.628   2.344 -0.2831  0.0519 -0.1571
  164SAPE   O1418322   3.313   3.626   2.526  0.2897 -0.1213  0.2036
  164SAPE   O1218323   3.088   3.740   2.555  0.2613 -0.2037  0.1475
  164SAPE   O1118324   3.091   3.492   2.542  0.9473 -0.2101  0.1739
  164SAPE    C118325   3.180   3.380   2.574 -0.2194  1.0194 -0.3953
  164SAPE    HA18326   3.133   3.290   2.530  1.9670 -0.3276 -0.1068
  164SAPE    HB18327   3.283   3.380   2.532  0.5612  1.3990  1.4193
  164SAPE    C218328   3.206   3.352   2.722  0.5309  0.1743 -0.2843
  164SAPE    HS18329   3.112   3.376   2.778  0.0926  0.0764 -0.9733
  164SAPE   O2118330   3.313   3.430   2.779  0.1922  0.1866 -0.6761
  164SAPE   C2118331   3.275   3.543   2.821 -0.2929  0.3482  0.6822
  164SAPE   O2218332   3.162   3.592   2.818 -0.1544  0.0055 -0.7140
  164SAPE   C2218333   3.389   3.628   2.866 -0.5630  0.7875  0.0592
  164SAPE   H2R18334   3.463   3.635   2.783  0.7664 -0.2629  1.1001
  164SAPE   H2S18335   3.351   3.730   2.885 -0.7834  0.5218  1.1255
  164SAPE    C318336   3.245   3.202   2.746 -0.3778 -0.4099 -0.7631
  164SAPE    HX18337   3.351   3.193   2.715  0.4574 -0.4488  1.8209
  164SAPE    HY18338   3.179   3.134   2.688 -0.1508  0.3776 -1.9841
  164SAPE   O3118339   3.222   3.165   2.886  0.0963  0.2295 -0.2139
  164SAPE   C3118340   3.324   3.160   2.969  0.7054 -0.7134  0.6377
  164SAPE   O3218341   3.441   3.170   2.934  0.0729 -0.0626 -0.6319
  164SAPE   C3218342   3.268   3.120   3.100 -0.5951  0.0381 -0.3956
  164SAPE   H2X18343   3.237   3.014   3.091 -2.3816  0.4849  0.0876
  164SAPE   H2Y18344   3.180   3.187   3.116 -1.5290 -0.3770 -3.2337
  164SAPE   C2318345   3.449   3.569   2.997  0.5758  0.0261  0.8214
  164SAPE   H3R18346   3.500   3.472   2.975  1.4953  1.1764 -2.6026
  164SAPE   H3S18347   3.364   3.553   3.067  0.0700  1.1923  0.4870
  164SAPE   C2418348   3.554   3.658   3.070  0.2129  0.8988  0.0872
  164SAPE   H4R18349   3.573   3.617   3.171 -0.9702 -0.0458 -0.0452
  164SAPE   H4S18350   3.515   3.760   3.087 -1.3291  0.5319 -1.0116
  164SAPE   C2518351   3.679   3.666   2.986  0.3007 -0.8396 -0.2979
  164SAPE   H5R18352   3.662   3.680   2.878 -1.9952 -2.6144 -0.2488
  164SAPE   C2618353   3.806   3.650   3.023  0.8553 -0.3864  0.0752
  164SAPE   H6R18354   3.884   3.652   2.945  0.3981  2.1037 -0.4040
  164SAPE   C2718355   3.864   3.620   3.160 -0.5326 -0.1358  0.7595
  164SAPE   H7R18356   3.779   3.580   3.220 -0.4459 -2.1041 -0.3336
  164SAPE   H7S18357   3.896   3.716   3.205  0.4449 -0.7652  1.4513
  164SAPE   C2818358   3.978   3.518   3.159  0.0916  0.9466  0.3732
  164SAPE   H8R18359   4.039   3.519   3.067  0.5605  1.6087  0.6870
  164SAPE   C2918360   3.990   3.428   3.254  0.2221 -0.1317  0.4013
  164SAPE   H9R18361   4.070   3.355   3.238 -1.4374 -2.0550  0.4072
  164SAPE  C21018362   3.911   3.420   3.376 -0.0009  0.2537  0.1895
  164SAPE  H10R18363   3.805   3.393   3.352 -0.1734  0.8025  0.3253
  164SAPE  H10S18364   3.909   3.514   3.435  3.5039  0.8486 -0.4447
  164SAPE  C21118365   3.948   3.290   3.455  0.3626  0.2215  0.2240
  164SAPE  H11R18366   3.984   3.207   3.392  1.5001  0.2865  0.7572
  164SAPE  C21218367   3.926   3.269   3.587 -0.0955  0.5746 -0.2499
  164SAPE  H12R18368   3.935   3.168   3.629 -1.5016  0.4457 -0.2158
  164SAPE  C21318369   3.879   3.375   3.684  0.4175  0.7149  0.0164
  164SAPE  H13R18370   3.903   3.477   3.649 -0.6141  0.6185 -1.0545
  164SAPE  H13S18371   3.917   3.363   3.787 -0.0884 -0.4203  0.0876
  164SAPE  C21418372   3.726   3.374   3.697 -0.9980  0.2652  0.5553
  164SAPE  H14R18373   3.676   3.389   3.601  1.3788  2.2878 -0.4483
  164SAPE  C21518374   3.648   3.360   3.804  0.0902 -0.6003 -0.7424
  164SAPE  H15R18375   3.540   3.348   3.784 -0.0379  0.7812 -0.9959
  164SAPE  C21618376   3.685   3.340   3.952  0.5198  0.0852  0.2480
  164SAPE  H16R18377   3.793   3.316   3.965  1.0547  2.3959  0.5175
  164SAPE  H16S18378   3.631   3.249   3.985  0.0103 -0.5437 -2.1429
  164SAPE  C21718379   3.650   3.453   4.052  0.5168 -0.3736  0.0164
  164SAPE  H17R18380   3.680   3.543   3.995  1.3876 -0.8186 -0.2374
  164SAPE  H17S18381   3.705   3.451   4.148  0.0740 -0.1352  0.2796
  164SAPE  C21818382   3.496   3.448   4.088 -0.6255  0.0261  0.0886
  164SAPE  H18R18383   3.481   3.361   4.155 -1.9388  1.3529  1.6128
  164SAPE  H18S18384   3.436   3.427   3.997 -0.6275  0.0137  0.0926
  164SAPE  C21918385   3.451   3.567   4.172  0.3162 -0.3225 -0.3153
  164SAPE  H19R18386   3.519   3.598   4.254 -1.2953  1.5475  0.3697
  164SAPE  H19S18387   3.362   3.542   4.233  0.5066 -0.6937 -0.1805
  164SAPE  C22018388   3.414   3.691   4.090 -0.0860  0.1765  0.5196
  164SAPE  H20R18389   3.330   3.661   4.024  1.3368 -1.0183 -0.8248
  164SAPE  H20S18390   3.500   3.713   4.024  0.1669 -1.1023  0.3872
  164SAPE  H20T18391   3.388   3.783   4.147 -1.9991  0.4936 -0.8031
  164SAPE   C3318392   3.364   3.127   3.216 -0.4017  1.4755 -0.5048
  164SAPE   H3X18393   3.464   3.083   3.194 -1.5200 -1.5296 -0.0602
  164SAPE   H3Y18394   3.324   3.061   3.296  0.5365  0.7776 -0.5909
  164SAPE   C3418395   3.388   3.270   3.276 -0.2218 -0.4790  0.5050
  164SAPE   H4X18396   3.298   3.331   3.299  1.0542  1.1472  1.3691
  164SAPE   H4Y18397   3.425   3.324   3.186  0.6311  1.8521  2.1933
  164SAPE   C3518398   3.487   3.278   3.390  0.5168 -0.0140  0.4533
  164SAPE   H5X18399   3.590   3.282   3.351  0.5337 -1.1884  0.3439
  164SAPE   H5Y18400   3.469   3.189   3.455 -0.4250  0.5163  0.9479
  164SAPE   C3618401   3.447   3.398   3.480  0.1553  1.1038 -0.3216
  164SAPE   H6X18402   3.472   3.365   3.583 -0.8244  0.7468 -0.1813
  164SAPE   H6Y18403   3.337   3.403   3.492 -0.1365 -3.3865  0.5099
  164SAPE   C3718404   3.505   3.527   3.428 -0.2649 -0.0650  0.4446
  164SAPE   H7X18405   3.464   3.540   3.325  0.3641  0.3197  0.2408
  164SAPE   H7Y18406   3.616   3.528   3.422 -0.1349 -0.5165  2.2092
  164SAPE   C3818407   3.471   3.650   3.510  1.0776 -0.2275  0.2710
  164SAPE   H8X18408   3.487   3.638   3.619 -0.1714 -0.9247  0.3996
  164SAPE   H8Y18409   3.363   3.670   3.502  1.2732  0.1151 -3.4666
  164SAPE   C3918410   3.560   3.772   3.464 -0.5872  0.3245 -0.1715
  164SAPE   H9X18411   3.521   3.872   3.493  1.0069  0.9596 -0.1039
  164SAPE   H9Y18412   3.544   3.773   3.354  0.9857 -2.1439 -0.4924
  164SAPE  C31018413   3.717   3.779   3.485  0.1724  0.3278 -0.1208
  164SAPE  H10X18414   3.752   3.879   3.451  2.6875 -0.5376 -0.2560
  164SAPE  H10Y18415   3.773   3.702   3.428  0.7616  0.2264  0.5856
  164SAPE  C31118416   3.763   3.782   3.626  0.4236  0.7302 -0.3420
  164SAPE  H11X18417   3.732   3.686   3.672  1.8527  1.1337  1.6025
  164SAPE  H11Y18418   3.717   3.868   3.680 -0.9056 -0.5528  0.6290
  164SAPE  C31218419   3.914   3.788   3.649  0.2015  0.3885  0.0599
  164SAPE  H12X18420   3.953   3.877   3.595  2.6936 -0.7459 -0.1505
  164SAPE  H12Y18421   3.967   3.704   3.600 -0.2775 -0.1985  0.5366
  164SAPE  C31318422   3.961   3.798   3.800  0.0753  0.0799 -0.1416
  164SAPE  H13X18423   3.895   3.870   3.854  0.6261  1.2879 -1.0336
  164SAPE  H13Y18424   4.066   3.833   3.796  0.2143  0.0962  2.1770
  164SAPE  C31418425   3.961   3.668   3.881  0.0999 -0.0087 -0.2498
  164SAPE  H14X18426   3.994   3.585   3.816  0.8504 -0.1570  0.2934
  164SAPE  H14Y18427   3.857   3.649   3.913  0.6452 -1.3779  0.8601
  164SAPE  C31518428   4.043   3.687   4.009 -0.2510  0.5367 -0.2273
  164SAPE  H15X18429   4.017   3.784   4.055 -0.9208  0.1692  0.1678
  164SAPE  H15Y18430   4.148   3.708   3.979 -0.5995  2.3872 -0.2237
  164SAPE  C31618431   4.036   3.580   4.115 -0.0038 -0.4583 -0.2723
  164SAPE  H16X18432   4.024   3.476   4.079 -1.2798 -0.2685 -0.4473
  164SAPE  H16Y18433   3.946   3.605   4.176  0.5701 -0.8055  0.7344
  164SAPE  C31718434   4.163   3.596   4.211  0.6002  0.0246 -0.2636
  164SAPE  H17X18435   4.260   3.606   4.159  0.5286 -0.5061 -0.5028
  164SAPE  H17Y18436   4.144   3.502   4.267  1.2192 -0.1978 -0.4216
  164SAPE  C31818437   4.153   3.721   4.311  0.1344 -0.7699 -0.2121
  164SAPE  H18X18438   4.061   3.725   4.373  0.9631  0.2504  0.9976
  164SAPE  H18Y18439   4.171   3.818   4.260 -1.3228 -1.6854 -2.6265
  164SAPE  H18Z18440   4.241   3.710   4.379  0.3963  2.5442  0.1511
  165SAPE     N18441   3.014   4.964   2.385 -0.3556 -0.2269  0.4102
  165SAPE   HN118442   2.927   4.914   2.354  0.2850 -0.8464 -0.4340
  165SAPE   HN218443   3.067   4.908   2.455 -0.2421 -0.6422 -0.0040
  165SAPE   HN318444   2.984   5.053   2.430  0.2029  0.6921 -0.9865
  165SAPE   C1218445   3.100   4.987   2.264  0.1419  0.0333  0.1546
  165SAPE  H12A18446   3.058   5.067   2.200  0.6990  1.3636  1.3836
  165SAPE  H12B18447   3.098   4.895   2.201  0.7661  0.0680  0.0719
  165SAPE   C1118448   3.245   5.019   2.307  0.8651  0.3320 -0.8320
  165SAPE  H11A18449   3.243   5.111   2.368  0.9589 -1.8653  2.7865
  165SAPE  H11B18450   3.302   5.041   2.215  3.1485 -0.8829  0.2107
  165SAPE     P18451   3.399   4.797   2.338  0.0712 -0.0147  0.2682
  165SAPE   O1318452   3.347   4.664   2.376  0.4129 -0.2174 -0.0508
  165SAPE   O1418453   3.446   4.815   2.206  0.6234 -0.3266  0.2961
  165SAPE   O1218454   3.290   4.903   2.381 -0.5597  0.5012  0.6787
  165SAPE   O1118455   3.516   4.845   2.430 -0.0134  0.1516  0.4016
  165SAPE    C118456   3.523   4.973   2.496 -0.8076 -0.4192  0.3701
  165SAPE    HA18457   3.523   5.049   2.415  0.5176  0.4136  1.1221
  165SAPE    HB18458   3.433   4.986   2.561 -0.0053  3.0931  0.9500
  165SAPE    C218459   3.649   4.990   2.572 -0.3466 -0.5601 -0.5674
  165SAPE    HS18460   3.663   5.099   2.585 -0.1265 -0.4338 -1.8039
  165SAPE   O2118461   3.769   4.935   2.506  0.1465 -0.2751 -0.4758
  165SAPE   C2118462   3.830   5.012   2.420  0.0972 -0.2878 -0.0726
  165SAPE   O2218463   3.792   5.119   2.384 -0.1159  0.2311 -0.4913
  165SAPE   C2218464   3.958   4.937   2.381  0.1148 -0.0355 -0.0891
  165SAPE   H2R18465   4.005   4.899   2.474  1.4159  1.7207  0.0153
  165SAPE   H2S18466   3.924   4.854   2.315 -3.1428  1.9514 -1.1697
  165SAPE    C318467   3.647   4.935   2.720  0.2905  0.0551  0.5558
  165SAPE    HX18468   3.659   4.825   2.719  1.1569  0.1412  0.6591
  165SAPE    HY18469   3.547   4.960   2.763  0.0844 -1.1294  0.7874
  165SAPE   O3118470   3.752   4.996   2.801 -0.6601 -0.1538 -0.6189
  165SAPE   C3118471   3.842   4.921   2.860 -0.0965 -0.4036  0.2128
  165SAPE   O3218472   3.864   4.802   2.836  0.1567  0.1515 -0.0538
  165SAPE   C3218473   3.901   5.002   2.972 -0.9817  0.0132 -0.1393
  165SAPE   H2X18474   3.943   5.094   2.925 -0.8484  1.3845  2.4735
  165SAPE   H2Y18475   3.989   4.941   3.002 -0.7400  0.3904 -0.0628
  165SAPE   C2318476   4.061   5.018   2.304 -0.0202  0.0558  0.4300
  165SAPE   H3R18477   4.023   5.049   2.204  2.3495  0.6876 -0.3324
  165SAPE   H3S18478   4.141   4.948   2.274 -0.3373 -0.6557  1.2046
  165SAPE   C2418479   4.124   5.133   2.385  0.6279  0.4466  0.1731
  165SAPE   H4R18480   4.039   5.200   2.414 -0.5422 -0.9221  0.0319
  165SAPE   H4S18481   4.198   5.182   2.320 -0.0093 -0.4992 -1.3136
  165SAPE   C2518482   4.183   5.069   2.510 -0.0986 -0.9693 -0.0474
  165SAPE   H5R18483   4.268   5.004   2.485 -0.6599 -1.8577  0.3294
  165SAPE   C2618484   4.160   5.096   2.642  0.1027  0.0815  0.6660
  165SAPE   H6R18485   4.231   5.052   2.714  1.0823  2.4044  1.2465
  165SAPE   C2718486   4.057   5.201   2.689 -0.0041 -0.3170 -0.3968
  165SAPE   H7R18487   3.954   5.161   2.699 -0.1803  0.4483  1.0810
  165SAPE   H7S18488   4.052   5.271   2.603 -0.0029 -1.8756 -1.7182
  165SAPE   C2818489   4.086   5.279   2.807  0.1329 -0.5838 -0.4548
  165SAPE   H8R18490   4.149   5.228   2.881 -0.3673  1.2646  1.3474
  165SAPE   C2918491   4.042   5.399   2.846 -0.7023 -0.5426 -0.8030
  165SAPE   H9R18492   4.081   5.446   2.938 -3.0202 -1.0930  0.5328
  165SAPE  C21018493   3.956   5.488   2.772  0.4334  0.9718  0.6000
  165SAPE  H10R18494   3.934   5.453   2.669 -0.1424  1.9996  0.3621
  165SAPE  H10S18495   4.007   5.584   2.747  0.8415  0.2290 -1.6760
  165SAPE  C21118496   3.819   5.512   2.837 -0.2650 -0.2549  0.1783
  165SAPE  H11R18497   3.773   5.433   2.898 -0.4545  0.0483  0.4351
  165SAPE  C21218498   3.754   5.632   2.851 -0.0822  0.4411  0.2421
  165SAPE  H12R18499   3.658   5.635   2.904 -0.7436 -2.7328 -0.5248
  165SAPE  C21318500   3.793   5.764   2.786  1.1948 -0.7113  0.3814
  165SAPE  H13R18501   3.868   5.742   2.707  1.6708 -2.6435  1.3140
  165SAPE  H13S18502   3.829   5.848   2.849 -1.4140  0.3581  0.5723
  165SAPE  C21418503   3.667   5.810   2.712  0.0413  0.4433 -0.1827
  165SAPE  H14R18504   3.620   5.731   2.651  0.9346 -1.4716  1.4849
  165SAPE  C21518505   3.606   5.921   2.741  0.1265 -0.4382  0.1419
  165SAPE  H15R18506   3.518   5.933   2.676  0.0876 -0.5040  0.1822
  165SAPE  C21618507   3.658   6.027   2.833  0.5750  0.0822 -0.7641
  165SAPE  H16R18508   3.633   6.130   2.799  1.2720  0.3993 -0.3328
  165SAPE  H16S18509   3.768   6.026   2.822  0.6365 -0.2464 -0.1532
  165SAPE  C21718510   3.623   6.010   2.974  0.1873  0.2034 -0.0890
  165SAPE  H17R18511   3.669   5.917   3.015 -0.3831  0.4270  1.1238
  165SAPE  H17S18512   3.513   6.016   2.986 -0.0448 -1.0790 -1.3446
  165SAPE  C21818513   3.678   6.123   3.067 -0.4729  0.0796  0.2492
  165SAPE  H18R18514   3.788   6.112   3.073 -0.4178  0.4043 -0.1608
  165SAPE  H18S18515   3.640   6.089   3.166 -0.0521  0.5811  0.5863
  165SAPE  C21918516   3.639   6.258   3.034 -0.2534  0.3496  0.1047
  165SAPE  H19R18517   3.628   6.318   3.127 -3.1039 -0.7375  0.5529
  165SAPE  H19S18518   3.533   6.260   3.000 -0.4818  4.4965  0.5237
  165SAPE  C22018519   3.732   6.335   2.931 -0.0425 -1.0539  0.3212
  165SAPE  H20R18520   3.750   6.283   2.834 -1.0788 -0.9404  0.0621
  165SAPE  H20S18521   3.828   6.341   2.988 -0.1190 -0.8747  0.4324
  165SAPE  H20T18522   3.686   6.433   2.907  1.1431 -0.5595 -0.0420
  165SAPE   C3318523   3.818   5.038   3.099 -0.2556  0.8962  0.2812
  165SAPE   H3X18524   3.746   4.954   3.105  1.3290 -0.6717 -1.2078
  165SAPE   H3Y18525   3.772   5.136   3.075  0.5125  1.2655  0.3094
  165SAPE   C3418526   3.908   5.051   3.222  0.2941 -0.0502  1.2129
  165SAPE   H4X18527   3.963   5.145   3.200  1.1767 -0.9044 -0.4655
  165SAPE   H4Y18528   3.985   4.971   3.229  1.0797  0.4932 -0.6807
  165SAPE   C3518529   3.828   5.070   3.351  0.1451 -0.2630  0.1317
  165SAPE   H5X18530   3.741   5.004   3.369 -0.4372  0.6656  0.8614
  165SAPE   H5Y18531   3.785   5.172   3.343 -0.4388 -0.3023  2.3114
  165SAPE   C3618532   3.917   5.052   3.475  0.2897 -0.5819  0.1828
  165SAPE   H6X18533   4.012   5.110   3.482 -0.4932  0.7945 -0.3100
  165SAPE   H6Y18534   3.944   4.944   3.472  1.8871 -0.2051 -0.3157
  165SAPE   C3718535   3.847   5.087   3.605 -0.7278  0.0661  0.2978
  165SAPE   H7X18536   3.758   5.025   3.631 -0.0085 -1.4241 -0.6727
  165SAPE   H7Y18537   3.821   5.194   3.595 -1.2848  0.0342  1.2506
  165SAPE   C3818538   3.956   5.077   3.716  0.9252 -0.3539 -0.0362
  165SAPE   H8X18539   4.009   5.174   3.721 -2.5274  1.6065  2.0994
  165SAPE   H8Y18540   4.030   4.996   3.692  2.3589  1.5975 -2.8227
  165SAPE   C3918541   3.897   5.056   3.857  0.2139 -0.4316 -0.5317
  165SAPE   H9X18542   3.847   4.957   3.854  0.0131 -0.4401  1.5256
  165SAPE   H9Y18543   3.812   5.126   3.868  0.0561 -0.7934  0.7703
  165SAPE  C31018544   3.996   5.084   3.967  0.1177  0.1945 -0.1659
  165SAPE  H10X18545   4.101   5.051   3.950  0.6370  2.1361 -0.8909
  165SAPE  H10Y18546   3.971   5.037   4.065  1.6745  0.6080  0.4525
  165SAPE  C31118547   4.008   5.229   3.997 -0.9598 -0.2110  0.2331
  165SAPE  H11X18548   4.007   5.283   3.900 -1.6336 -1.2790 -0.3803
  165SAPE  H11Y18549   4.104   5.247   4.048 -1.7051  1.8166  1.0237
  165SAPE  C31218550   3.900   5.283   4.096 -0.7042 -0.0916 -0.1030
  165SAPE  H12X18551   3.796   5.259   4.068 -0.7865 -0.9758  0.9153
  165SAPE  H12Y18552   3.916   5.393   4.099  2.6886 -0.4967  0.9976
  165SAPE  C31318553   3.925   5.232   4.243  0.3673 -0.0706  0.8117
  165SAPE  H13X18554   4.031   5.220   4.271  0.5090  1.2311  0.8795
  165SAPE  H13Y18555   3.892   5.126   4.237 -0.7356  0.3518 -2.2783
  165SAPE  C31418556   3.850   5.307   4.350  0.2048 -0.0935  0.0757
  165SAPE  H14X18557   3.899   5.407   4.356  1.2388 -0.6871  2.0974
  165SAPE  H14Y18558   3.851   5.256   4.448 -1.7925  0.2774  0.3280
  165SAPE  C31518559   3.701   5.323   4.314 -0.2884  0.3372  0.0413
  165SAPE  H15X18560   3.653   5.225   4.296  1.9392 -0.6615 -0.7727
  165SAPE  H15Y18561   3.695   5.385   4.222  0.3817  1.1470  0.5289
  165SAPE  C31618562   3.620   5.384   4.435  0.3387  0.1381 -0.1740
  165SAPE  H16X18563   3.633   5.493   4.448  0.3646  0.3573 -1.8361
  165SAPE  H16Y18564   3.664   5.336   4.525 -1.0936  1.5194  1.3219
  165SAPE  C31718565   3.479   5.344   4.411 -0.5718 -0.2100 -0.1685
  165SAPE  H17X18566   3.481   5.234   4.393  1.4170 -0.2548  0.1076
  165SAPE  H17Y18567   3.441   5.389   4.317 -1.1065 -0.0086  0.1424
  165SAPE  C31818568   3.369   5.364   4.520 -0.7334  0.2410  0.1658
  165SAPE  H18X18569   3.373   5.468   4.558  3.5429  0.3278 -0.0694
  165SAPE  H18Y18570   3.401   5.308   4.611 -1.1519  2.1387  1.5606
  165SAPE  H18Z18571   3.266   5.331   4.493 -0.5454 -0.8986  0.7812
  166SAPE     N18572   3.280   4.536   2.620  0.3940 -0.3468  1.2110
  166SAPE   HN118573   3.262   4.627   2.574 -0.2163  1.1715  4.2104
  166SAPE   HN218574   3.301   4.466   2.546  0.6346 -0.0260  0.9771
  166SAPE   HN318575   3.194   4.502   2.668 -0.0895 -0.3335  0.3821
  166SAPE   C1218576   3.400   4.569   2.704 -0.8874 -0.0837  0.2898
  166SAPE  H12A18577   3.475   4.605   2.631  0.1808 -2.7945 -0.0328
  166SAPE  H12B18578   3.431   4.470   2.743 -1.0719  0.1260  0.9910
  166SAPE   C1118579   3.365   4.687   2.812 -0.0363 -0.2158  0.0954
  166SAPE  H11A18580   3.453   4.700   2.878  0.1191  2.0344 -0.4477
  166SAPE  H11B18581   3.279   4.650   2.871 -0.9488  0.9162 -0.4843
  166SAPE     P18582   3.198   4.877   2.729  0.2631 -0.4042  0.2515
  166SAPE   O1318583   3.198   5.017   2.678 -0.6771  0.4113 -0.0923
  166SAPE   O1418584   3.115   4.779   2.656 -0.2323  0.1818  0.5700
  166SAPE   O1218585   3.339   4.816   2.746  0.2964 -0.4168  0.2766
  166SAPE   O1118586   3.144   4.882   2.885 -0.2845  0.0896  0.2029
  166SAPE    C118587   3.231   4.925   2.989  0.7836  0.3467 -0.2199
  166SAPE    HA18588   3.338   4.902   2.967  0.5534  0.6015 -1.6702
  166SAPE    HB18589   3.219   5.033   3.013 -0.8944  0.5700 -1.8722
  166SAPE    C218590   3.193   4.858   3.120  0.0643  0.3896 -0.1809
  166SAPE    HS18591   3.188   4.748   3.104  4.6918  0.0778 -1.1799
  166SAPE   O2118592   3.064   4.902   3.148 -0.2933 -0.1173  0.0854
  166SAPE   C2118593   3.015   4.857   3.264 -0.4609  0.2904 -0.6493
  166SAPE   O2218594   3.051   4.757   3.319 -0.2759  0.0555  0.0184
  166SAPE   C2218595   2.905   4.957   3.306 -0.3767 -0.1465  0.1417
  166SAPE   H2R18596   2.862   4.998   3.212  0.1315  1.3194  0.5222
  166SAPE   H2S18597   2.828   4.910   3.370  0.2519 -0.1734  0.8940
  166SAPE    C318598   3.297   4.887   3.229 -0.3686 -0.2627 -0.1763
  166SAPE    HX18599   3.268   4.824   3.316 -1.3698  0.5967  0.1220
  166SAPE    HY18600   3.288   4.990   3.269 -1.7581 -0.2500 -0.4958
  166SAPE   O3118601   3.438   4.855   3.195  0.5227  0.1614  0.0670
  166SAPE   C3118602   3.461   4.724   3.184  0.0411 -0.2636  0.1073
  166SAPE   O3218603   3.388   4.631   3.202  0.3568 -0.6406 -0.0446
  166SAPE   C3218604   3.609   4.709   3.158  0.1802 -0.5881 -0.5977
  166SAPE   H2X18605   3.656   4.781   3.228 -0.4094  2.2744 -2.9227
  166SAPE   H2Y18606   3.634   4.743   3.055  1.0652  2.6992  0.5552
  166SAPE   C2318607   2.964   5.077   3.383  0.7602 -0.0501  0.5756
  166SAPE   H3R18608   3.039   5.129   3.320 -1.1423  0.0489 -1.7546
  166SAPE   H3S18609   3.005   5.044   3.481  0.2413 -1.7129  0.2641
  166SAPE   C2418610   2.846   5.182   3.400 -0.2754  0.2399 -0.3526
  166SAPE   H4R18611   2.885   5.256   3.473 -1.5809 -0.2161  0.8617
  166SAPE   H4S18612   2.754   5.149   3.453 -1.9005  2.3137 -1.7260
  166SAPE   C2518613   2.793   5.250   3.279  0.2910  0.5249  0.7512
  166SAPE   H5R18614   2.863   5.322   3.236  2.3653 -1.3255  0.8325
  166SAPE   C2618615   2.679   5.226   3.212  0.0772 -0.1879  0.7235
  166SAPE   H6R18616   2.655   5.287   3.124 -1.5428 -1.2877  0.3607
  166SAPE   C2718617   2.572   5.123   3.244 -0.2558  0.3119  0.0262
  166SAPE   H7R18618   2.474   5.173   3.262 -0.2985  0.4520 -0.5853
  166SAPE   H7S18619   2.584   5.078   3.345 -0.8621  0.3067  0.1005
  166SAPE   C2818620   2.566   5.010   3.145  0.4931  0.4704  0.1683
  166SAPE   H8R18621   2.651   4.997   3.077  0.2592  0.7146 -0.1696
  166SAPE   C2918622   2.465   4.925   3.153 -0.4547  0.4354  0.1136
  166SAPE   H9R18623   2.464   4.856   3.067 -1.5180  0.9591 -0.3082
  166SAPE  C21018624   2.352   4.921   3.256 -0.3730  0.1955 -0.4224
  166SAPE  H10R18625   2.276   4.996   3.225  2.0145  1.9931 -2.3711
  166SAPE  H10S18626   2.381   4.948   3.360 -0.5299 -0.5948 -0.1666
  166SAPE  C21118627   2.292   4.783   3.257 -0.5247 -0.6670 -0.2699
  166SAPE  H11R18628   2.264   4.745   3.157  1.1083  0.2708 -1.1047
  166SAPE  C21218629   2.253   4.702   3.352 -0.0658  0.4457 -1.1238
  166SAPE  H12R18630   2.221   4.601   3.323  0.2659  0.0703 -0.2096
  166SAPE  C21318631   2.293   4.718   3.494 -0.1820  0.5041 -0.2772
  166SAPE  H13R18632   2.371   4.797   3.507  1.2458 -1.1949  2.5867
  166SAPE  H13S18633   2.347   4.627   3.527  0.2011  0.2718 -1.4860
  166SAPE  C21418634   2.180   4.742   3.586 -0.9511  0.9753 -0.5822
  166SAPE  H14R18635   2.082   4.767   3.544 -0.2535  1.3447 -2.0366
  166SAPE  C21518636   2.190   4.745   3.723 -0.4717  0.6726  0.2455
  166SAPE  H15R18637   2.099   4.754   3.784 -0.4836  0.4963  0.2529
  166SAPE  C21618638   2.318   4.722   3.800  0.2915 -0.1069  0.0117
  166SAPE  H16R18639   2.402   4.763   3.739 -0.4321 -0.5262 -1.2943
  166SAPE  H16S18640   2.328   4.613   3.785  0.8664  0.2743 -3.0692
  166SAPE  C21718641   2.320   4.772   3.947 -0.2323  0.2855  0.2650
  166SAPE  H17R18642   2.243   4.718   4.006  1.0871 -0.6406  1.2092
  166SAPE  H17S18643   2.288   4.877   3.964 -2.1300 -0.0507 -0.9785
  166SAPE  C21818644   2.458   4.756   4.009  0.0392  0.1036 -0.2657
  166SAPE  H18R18645   2.527   4.825   3.956  1.1289  0.8822  2.0602
  166SAPE  H18S18646   2.499   4.655   3.989  0.4609  0.6620 -2.4473
  166SAPE  C21918647   2.471   4.780   4.161  0.3584 -0.5727  0.0090
  166SAPE  H19R18648   2.434   4.882   4.187  0.4754 -0.9084  1.5363
  166SAPE  H19S18649   2.576   4.783   4.198  0.2006 -0.6465  0.4583
  166SAPE  C22018650   2.389   4.683   4.244 -1.1102 -0.6048 -0.6196
  166SAPE  H20R18651   2.420   4.577   4.226  1.4018 -0.2870  1.3126
  166SAPE  H20S18652   2.279   4.693   4.238 -1.3518 -0.2323  2.6084
  166SAPE  H20T18653   2.421   4.704   4.348 -0.3556  3.6393 -1.5328
  166SAPE   C3318654   3.673   4.566   3.175 -0.0734  0.7927 -0.6497
  166SAPE   H3X18655   3.629   4.491   3.106  0.4085  0.5607 -0.7060
  166SAPE   H3Y18656   3.644   4.543   3.279 -3.9638 -0.3067 -1.8239
  166SAPE   C3418657   3.820   4.568   3.155 -0.1002  0.0552  0.4100
  166SAPE   H4X18658   3.851   4.617   3.060 -1.5783  0.8579  0.3065
  166SAPE   H4Y18659   3.858   4.464   3.153  1.6526  0.6733 -0.0930
  166SAPE   C3518660   3.901   4.644   3.260  0.3415 -0.3246 -0.2939
  166SAPE   H5X18661   3.872   4.600   3.358 -0.6868 -0.2063 -0.5327
  166SAPE   H5Y18662   3.873   4.751   3.266 -1.3995 -0.6662 -1.4707
  166SAPE   C3618663   4.042   4.620   3.222 -0.5535 -0.3310 -0.1427
  166SAPE   H6X18664   4.053   4.629   3.112 -1.4010 -2.0612 -0.4083
  166SAPE   H6Y18665   4.070   4.518   3.255  0.3085 -0.9278 -2.4970
  166SAPE   C3718666   4.143   4.714   3.288 -0.3612 -0.4757 -0.3375
  166SAPE   H7X18667   4.111   4.817   3.262 -1.9735 -0.7960  0.2634
  166SAPE   H7Y18668   4.242   4.688   3.245  0.0335  0.7786 -0.2254
  166SAPE   C3818669   4.154   4.706   3.442  0.4022  0.2769  0.4054
  166SAPE   H8X18670   4.143   4.602   3.480  2.3580  0.3725  1.3719
  166SAPE   H8Y18671   4.057   4.754   3.468  0.0774 -0.4183  0.4844
  166SAPE   C3918672   4.274   4.781   3.495  0.5641 -0.2156  0.6123
  166SAPE   H9X18673   4.280   4.884   3.453  2.4620  0.8703  3.2401
  166SAPE   H9Y18674   4.363   4.724   3.461 -0.2430 -1.4636  0.5181
  166SAPE  C31018675   4.272   4.784   3.652 -0.6486 -0.0170  0.2929
  166SAPE  H10X18676   4.170   4.812   3.688  0.0248 -0.5368  2.7884
  166SAPE  H10Y18677   4.332   4.874   3.679 -0.6094  0.6608 -1.8276
  166SAPE  C31118678   4.324   4.664   3.727  0.0821 -0.5854 -0.0084
  166SAPE  H11X18679   4.421   4.648   3.675 -0.1950 -0.7900 -0.4694
  166SAPE  H11Y18680   4.265   4.570   3.712  1.1925 -1.4882  1.1123
  166SAPE  C31218681   4.342   4.691   3.878 -0.9639 -0.7636  0.2406
  166SAPE  H12X18682   4.405   4.782   3.889 -1.6043 -0.6222  4.7204
  166SAPE  H12Y18683   4.389   4.604   3.928 -0.3561 -0.2713  0.5370
  166SAPE  C31318684   4.219   4.716   3.958  0.3303  0.4260  0.5476
  166SAPE  H13X18685   4.180   4.819   3.944 -1.0115 -0.1154  0.1380
  166SAPE  H13Y18686   4.244   4.710   4.066 -2.6851  1.7992  1.4426
  166SAPE  C31418687   4.096   4.627   3.924  0.4564 -0.0990 -0.2649
  166SAPE  H14X18688   4.131   4.524   3.901  0.1308 -0.0001 -1.2463
  166SAPE  H14Y18689   4.052   4.671   3.832  3.1870 -0.7357 -2.0201
  166SAPE  C31518690   3.978   4.626   4.028 -1.1426 -0.1189  0.0063
  166SAPE  H15X18691   3.944   4.731   4.040  1.7696  1.1169 -1.5552
  166SAPE  H15Y18692   4.018   4.585   4.124 -0.1972  0.2219 -0.2363
  166SAPE  C31618693   3.864   4.537   3.982 -0.3590 -0.1432  0.8154
  166SAPE  H16X18694   3.920   4.451   3.939  0.0855  0.2130  0.6646
  166SAPE  H16Y18695   3.798   4.592   3.912 -0.6617 -1.7450 -0.1872
  166SAPE  C31718696   3.773   4.512   4.095  0.4036 -0.5117 -0.4346
  166SAPE  H17X18697   3.667   4.502   4.062  0.1721 -2.5875  0.7650
  166SAPE  H17Y18698   3.778   4.593   4.171 -3.6992 -0.8111  0.4026
  166SAPE  C31818699   3.810   4.392   4.187  0.1100 -0.0925 -0.0850
  166SAPE  H18X18700   3.823   4.308   4.116 -1.2382  3.2296 -4.7590
  166SAPE  H18Y18701   3.728   4.369   4.258 -0.6701  0.3983 -0.8033
  166SAPE  H18Z18702   3.904   4.411   4.243  0.9830 -0.9018 -1.2419
  167SAPE     N18703   6.349   2.837   2.323 -0.5549 -0.5560  0.0314
  167SAPE   HN118704   6.411   2.820   2.242  1.0642  1.7152  0.6966
  167SAPE   HN218705   6.273   2.896   2.283 -0.3839 -0.4968 -0.2069
  167SAPE   HN318706   6.405   2.876   2.401 -2.4156 -2.5590  2.5613
  167SAPE   C1218707   6.285   2.711   2.367 -0.3326  0.4515  0.6539
  167SAPE  H12A18708   6.366   2.636   2.370 -0.6264 -0.0401 -1.7143
  167SAPE  H12B18709   6.221   2.689   2.279  0.7179  2.7026 -0.7583
  167SAPE   C1118710   6.205   2.724   2.491 -0.1593  0.3991  1.0875
  167SAPE  H11A18711   6.273   2.759   2.571  1.6106  1.4269 -0.7598
  167SAPE  H11B18712   6.174   2.627   2.535  1.3721 -0.9639 -0.6832
  167SAPE     P18713   6.057   2.915   2.567  0.0396 -0.0387  0.4353
  167SAPE   O1318714   6.170   3.010   2.567 -0.0440 -0.0834 -0.0204
  167SAPE   O1418715   5.929   2.979   2.550 -0.0833 -0.5848  0.8646
  167SAPE   O1218716   6.087   2.806   2.462 -0.1649  0.2182  0.7568
  167SAPE   O1118717   6.059   2.825   2.697 -0.5014 -0.2936 -0.4519
  167SAPE    C118718   6.124   2.881   2.814  0.7714 -0.0075  0.7064
  167SAPE    HA18719   6.220   2.829   2.834  2.3450  2.5396  0.3508
  167SAPE    HB18720   6.164   2.985   2.803 -2.0439  1.6633  4.1738
  167SAPE    C218721   6.044   2.864   2.944  0.0301 -0.3119 -0.0742
  167SAPE    HS18722   5.981   2.773   2.931  1.2404 -0.9778 -1.6483
  167SAPE   O2118723   5.969   2.980   2.959  0.3244  0.2948 -0.4803
  167SAPE   C2118724   5.841   2.989   2.925  0.6701  0.2739  0.3513
  167SAPE   O2218725   5.775   2.898   2.880  0.7867  0.1551 -0.2485
  167SAPE   C2218726   5.789   3.122   2.985  0.0471 -0.2594  0.6764
  167SAPE   H2R18727   5.875   3.187   3.011 -0.5229 -0.7534  4.2492
  167SAPE   H2S18728   5.733   3.169   2.901  0.1921 -0.0828  0.6793
  167SAPE    C318729   6.138   2.833   3.064 -0.5718  0.2656  0.0350
  167SAPE    HX18730   6.212   2.916   3.065 -1.3983  1.0213  0.0534
  167SAPE    HY18731   6.185   2.739   3.027  3.1163  0.6515  3.0938
  167SAPE   O3118732   6.067   2.822   3.186 -0.0656 -0.3100 -0.5518
  167SAPE   C3118733   6.133   2.754   3.280 -0.9003  0.3062 -0.8584
  167SAPE   O3218734   6.241   2.700   3.263  0.2085  0.1638 -0.2334
  167SAPE   C3218735   6.054   2.754   3.411 -0.3723 -0.2818  0.2736
  167SAPE   H2X18736   5.997   2.849   3.416 -1.6430 -0.7917 -2.6188
  167SAPE   H2Y18737   6.139   2.768   3.481 -0.4755 -1.7461  0.7258
  167SAPE   C2318738   5.687   3.099   3.096  0.0800 -0.0920 -0.9264
  167SAPE   H3R18739   5.741   3.044   3.175 -0.5564 -0.8933 -1.0307
  167SAPE   H3S18740   5.601   3.036   3.063 -0.0441 -0.0971 -0.5915
  167SAPE   C2418741   5.616   3.231   3.127 -0.0061 -0.7599  0.2462
  167SAPE   H4R18742   5.514   3.203   3.163  0.0777 -1.9403 -0.3697
  167SAPE   H4S18743   5.604   3.303   3.044  1.5083  1.3776  1.7632
  167SAPE   C2518744   5.685   3.305   3.237 -0.8807 -0.9148  0.4610
  167SAPE   H5R18745   5.752   3.384   3.201 -0.8384 -0.2467  1.9437
  167SAPE   C2618746   5.681   3.278   3.367  0.6780  0.1995  0.1490
  167SAPE   H6R18747   5.736   3.349   3.431  0.7977  1.0410 -0.8683
  167SAPE   C2718748   5.594   3.170   3.435  0.4614 -0.2700 -0.3877
  167SAPE   H7R18749   5.655   3.078   3.449 -0.7365 -0.8906  1.0604
  167SAPE   H7S18750   5.504   3.143   3.377 -1.3819 -0.6031  2.4274
  167SAPE   C2818751   5.551   3.205   3.579  0.5386  0.5093  0.0265
  167SAPE   H8R18752   5.457   3.261   3.575  1.5945  2.2804 -1.6291
  167SAPE   C2918753   5.618   3.186   3.694  0.2749  0.1285  0.1566
  167SAPE   H9R18754   5.560   3.192   3.788  0.6021  0.9190  0.3199
  167SAPE  C21018755   5.751   3.116   3.711  0.0081  0.1772 -0.3716
  167SAPE  H10R18756   5.811   3.189   3.770  1.3013  0.5140 -2.0433
  167SAPE  H10S18757   5.800   3.102   3.613  1.3342  1.1598  0.1216
  167SAPE  C21118758   5.730   2.987   3.776  0.6095  0.7715 -0.3564
  167SAPE  H11R18759   5.715   2.912   3.696  0.3165 -0.2176  0.5970
  167SAPE  C21218760   5.736   2.949   3.912  0.6187  0.2228  1.3753
  167SAPE  H12R18761   5.710   2.844   3.932  0.7100 -0.3744 -1.2160
  167SAPE  C21318762   5.769   3.038   4.027  0.6869  0.5071 -0.5992
  167SAPE  H13R18763   5.683   3.044   4.097  1.6484 -0.0823  0.6725
  167SAPE  H13S18764   5.788   3.136   3.979  0.0813  0.1463 -1.6234
  167SAPE  C21418765   5.892   2.992   4.106  0.3385  0.2605 -0.3743
  167SAPE  H14R18766   5.979   3.004   4.041 -1.6081 -2.2457 -3.7616
  167SAPE  C21518767   5.898   2.936   4.226  0.7811  0.0595  0.3313
  167SAPE  H15R18768   5.994   2.926   4.277  2.8122  2.1120 -2.7255
  167SAPE  C21618769   5.779   2.901   4.308 -0.2163  0.0622  0.0667
  167SAPE  H16R18770   5.751   2.794   4.291 -0.6688  0.2790 -0.5883
  167SAPE  H16S18771   5.689   2.964   4.290 -1.0574 -1.0294  0.2711
  167SAPE  C21718772   5.808   2.909   4.459 -0.1679  0.8205 -0.2596
  167SAPE  H17R18773   5.711   2.928   4.510 -0.9442 -0.9916 -0.9783
  167SAPE  H17S18774   5.883   2.987   4.484  0.4042  0.0340  0.5334
  167SAPE  C21818775   5.860   2.777   4.520  0.1963 -0.9487  0.8064
  167SAPE  H18R18776   5.946   2.744   4.458  0.2597 -1.9424  1.4122
  167SAPE  H18S18777   5.776   2.706   4.511 -0.8110  0.3705 -0.7598
  167SAPE  C21918778   5.908   2.784   4.666 -0.3006  0.2122  0.1551
  167SAPE  H19R18779   5.818   2.789   4.731 -0.4873 -2.2324  0.1670
  167SAPE  H19S18780   5.958   2.882   4.682  1.0422 -0.6004  1.2754
  167SAPE  C22018781   5.978   2.655   4.725 -0.1137 -0.0622 -0.4088
  167SAPE  H20R18782   5.972   2.667   4.835 -1.5500  0.2399 -0.4994
  167SAPE  H20S18783   6.084   2.645   4.694  0.1877  1.6174 -0.0144
  167SAPE  H20T18784   5.937   2.555   4.697 -0.7911  0.2073 -0.3998
  167SAPE   C3318785   5.968   2.632   3.441  0.1432  0.1950  0.1260
  167SAPE   H3X18786   6.026   2.537   3.445 -0.1216  0.0596  1.8982
  167SAPE   H3Y18787   5.886   2.625   3.367 -2.6640  3.0789  2.6269
  167SAPE   C3418788   5.903   2.652   3.576 -0.1894  0.3242 -0.6372
  167SAPE   H4X18789   5.839   2.561   3.574  1.5831 -1.0341  0.9902
  167SAPE   H4Y18790   5.846   2.748   3.580  2.0896  1.7386  0.0766
  167SAPE   C3518791   5.987   2.646   3.700 -0.1524 -0.2309  0.0475
  167SAPE   H5X18792   6.079   2.589   3.676 -0.3787 -0.0869 -1.2607
  167SAPE   H5Y18793   5.938   2.597   3.786  2.2218 -0.0631  1.5689
  167SAPE   C3618794   6.037   2.779   3.754 -0.3064 -0.1359  0.1834
  167SAPE   H6X18795   5.957   2.855   3.749 -1.6678 -1.3862  1.5376
  167SAPE   H6Y18796   6.114   2.815   3.683 -2.0361  0.6278 -1.3752
  167SAPE   C3718797   6.096   2.776   3.899 -0.7410 -0.3033 -0.6901
  167SAPE   H7X18798   6.022   2.731   3.970 -2.1163 -0.5948 -2.2496
  167SAPE   H7Y18799   6.131   2.873   3.939 -1.7449  1.1023 -3.0280
  167SAPE   C3818800   6.221   2.687   3.902  0.4558  0.7690 -0.0161
  167SAPE   H8X18801   6.307   2.733   3.955  0.2819  1.7426 -0.5463
  167SAPE   H8Y18802   6.250   2.651   3.801 -1.6062 -0.7931 -0.1054
  167SAPE   C3918803   6.196   2.558   3.982  0.0579  1.0289  0.0843
  167SAPE   H9X18804   6.290   2.500   3.992 -0.6708 -0.1145  0.5724
  167SAPE   H9Y18805   6.121   2.489   3.937 -0.1404  1.0520  0.3791
  167SAPE  C31018806   6.166   2.583   4.133  0.3704  0.2980 -0.4643
  167SAPE  H10X18807   6.064   2.628   4.141 -0.5149 -1.8613  1.4593
  167SAPE  H10Y18808   6.248   2.648   4.169  0.6388 -1.1099  1.5972
  167SAPE  C31118809   6.156   2.456   4.216 -0.8713 -0.2809  0.6404
  167SAPE  H11X18810   6.236   2.379   4.212  1.9909  2.5075  0.3817
  167SAPE  H11Y18811   6.067   2.398   4.181 -1.0959  0.0756  0.6203
  167SAPE  C31218812   6.127   2.487   4.361  0.4859  0.7349 -0.4276
  167SAPE  H12X18813   6.018   2.480   4.382  1.0352  0.9274  3.0625
  167SAPE  H12Y18814   6.150   2.594   4.383  2.9933  0.7589 -2.6522
  167SAPE  C31318815   6.214   2.395   4.458  0.4052 -0.6826  0.1037
  167SAPE  H13X18816   6.186   2.422   4.562  2.6349 -2.1622  1.1595
  167SAPE  H13Y18817   6.319   2.426   4.441  0.5728 -1.3146 -0.0106
  167SAPE  C31418818   6.189   2.242   4.448  0.1799  0.7206 -0.2402
  167SAPE  H14X18819   6.287   2.204   4.414 -0.3858  0.9213 -2.2130
  167SAPE  H14Y18820   6.111   2.210   4.375 -2.6843  0.3286  2.7317
  167SAPE  C31518821   6.152   2.174   4.588  0.6475  0.0141 -0.0619
  167SAPE  H15X18822   6.058   2.221   4.621 -0.5594 -2.9445  1.0291
  167SAPE  H15Y18823   6.224   2.185   4.672 -0.3236 -0.9846  0.9347
  167SAPE  C31618824   6.143   2.023   4.569 -0.2098 -0.2358 -0.1132
  167SAPE  H16X18825   6.248   1.998   4.545  0.3924  1.7866  0.2434
  167SAPE  H16Y18826   6.076   1.982   4.491  0.2689 -2.9443  0.7846
  167SAPE  C31718827   6.106   1.956   4.705 -0.8719  0.1458 -0.1460
  167SAPE  H17X18828   6.004   1.980   4.742 -0.6186  2.4334 -0.7870
  167SAPE  H17Y18829   6.174   1.997   4.784  1.3873  1.4847 -2.5993
  167SAPE  C31818830   6.141   1.807   4.710  0.3678 -0.1170  0.1159
  167SAPE  H18X18831   6.119   1.748   4.801  2.0026  0.1997  0.7534
  167SAPE  H18Y18832   6.250   1.800   4.691  0.1744 -0.0032 -1.1156
  167SAPE  H18Z18833   6.088   1.762   4.623  1.7993  2.1364 -2.0709
  168SAPE     N18834   6.745   4.705   2.190 -0.0781  0.1590  0.2160
  168SAPE   HN118835   6.699   4.717   2.097 -1.7253  1.8499  1.1750
  168SAPE   HN218836   6.669   4.694   2.260 -1.4038  2.6241 -0.7075
  168SAPE   HN318837   6.805   4.787   2.214  0.8365 -0.2352 -0.6782
  168SAPE   C1218838   6.826   4.580   2.190  0.4085  0.2341 -0.4707
  168SAPE  H12A18839   6.871   4.559   2.091 -0.3208 -2.2448 -0.3704
  168SAPE  H12B18840   6.760   4.492   2.213  1.6799 -0.5603  0.2744
  168SAPE   C1118841   6.933   4.589   2.300 -0.7840 -0.2285 -0.1758
  168SAPE  H11A18842   6.997   4.670   2.259 -1.6998  0.6527  0.0913
  168SAPE  H11B18843   6.990   4.494   2.303 -0.4074  0.0185  1.7027
  168SAPE     P18844   6.851   4.521   2.536 -0.4611  0.0197 -0.2646
  168SAPE   O1318845   6.712   4.484   2.514 -0.3964  0.1122 -0.5317
  168SAPE   O1418846   6.948   4.408   2.530 -0.1037  0.0463 -0.4463
  168SAPE   O1218847   6.894   4.636   2.427  0.1465 -0.0889 -0.5097
  168SAPE   O1118848   6.858   4.592   2.676 -1.0412 -0.2328  0.0685
  168SAPE    C118849   6.972   4.679   2.706 -0.2670 -0.0006  0.9731
  168SAPE    HA18850   7.040   4.693   2.619 -1.1438 -0.9223  0.1058
  168SAPE    HB18851   6.933   4.778   2.739 -0.4473  0.3291 -0.1494
  168SAPE    C218852   7.047   4.620   2.826  0.4568  0.4307 -0.1111
  168SAPE    HS18853   7.065   4.518   2.784  2.9820  0.7864 -0.0023
  168SAPE   O2118854   6.968   4.632   2.948 -0.1487  0.3279 -0.4922
  168SAPE   C2118855   6.962   4.517   3.012  0.7615  0.6536 -0.6636
  168SAPE   O2218856   7.010   4.413   2.979 -0.5281  0.4342 -0.2626
  168SAPE   C2218857   6.882   4.541   3.139  0.0958 -0.1318  0.5781
  168SAPE   H2R18858   6.862   4.650   3.142  1.7127  0.1673  1.3700
  168SAPE   H2S18859   6.789   4.482   3.125 -0.4688  0.9086 -0.2093
  168SAPE    C318860   7.180   4.687   2.845 -0.4991  0.0584  0.1019
  168SAPE    HX18861   7.158   4.794   2.869 -0.3282 -0.1314  1.1359
  168SAPE    HY18862   7.233   4.677   2.748  0.5792 -0.5681  0.7470
  168SAPE   O3118863   7.265   4.634   2.950  0.0115 -0.1435  0.5462
  168SAPE   C3118864   7.250   4.693   3.065  0.2513  0.6007 -0.6227
  168SAPE   O3218865   7.169   4.781   3.101 -0.6248 -0.0278 -0.0198
  168SAPE   C3218866   7.366   4.653   3.161  0.4510 -0.5397 -0.5248
  168SAPE   H2X18867   7.461   4.687   3.113  1.2631  1.0098  2.0303
  168SAPE   H2Y18868   7.372   4.542   3.165  0.4375 -0.5050  0.8329
  168SAPE   C2318869   6.954   4.494   3.264 -0.3682 -0.0453 -0.2368
  168SAPE   H3R18870   7.061   4.523   3.266 -0.4481  0.2336 -0.0047
  168SAPE   H3S18871   6.964   4.384   3.251  1.1545 -0.1791  1.5885
  168SAPE   C2418872   6.894   4.528   3.402 -0.3004 -0.1812  0.1750
  168SAPE   H4R18873   6.958   4.473   3.473 -1.0322 -0.5063  0.5939
  168SAPE   H4S18874   6.795   4.479   3.417  0.7414 -2.0605  1.1716
  168SAPE   C2518875   6.889   4.674   3.434 -0.4447 -0.1105  0.8394
  168SAPE   H5R18876   6.868   4.743   3.351  0.7991  1.2215  1.5760
  168SAPE   C2618877   6.932   4.723   3.547 -0.6729 -0.4672 -0.1771
  168SAPE   H6R18878   6.950   4.832   3.547 -0.3573 -0.4170  2.7479
  168SAPE   C2718879   6.980   4.651   3.673  0.0511  0.4766 -0.5840
  168SAPE   H7R18880   7.007   4.544   3.655  1.2282  0.5368  0.6407
  168SAPE   H7S18881   6.893   4.654   3.742  0.0564  0.2894 -0.5666
  168SAPE   C2818882   7.106   4.717   3.730 -0.0969 -0.0918 -0.7010
  168SAPE   H8R18883   7.195   4.720   3.666 -0.7466 -1.1479 -1.6900
  168SAPE   C2918884   7.122   4.761   3.854  0.0187 -0.5889  0.5006
  168SAPE   H9R18885   7.214   4.808   3.890 -0.8627  1.3778  0.3346
  168SAPE  C21018886   7.013   4.744   3.958 -0.2293  0.5607  0.3205
  168SAPE  H10R18887   6.977   4.640   3.965 -0.6796  0.8376  3.4838
  168SAPE  H10S18888   6.921   4.805   3.937  0.6572  2.0432  0.5784
  168SAPE  C21118889   7.052   4.788   4.097  0.5095  0.2834 -0.2597
  168SAPE  H11R18890   7.034   4.891   4.131 -2.4099  0.4483 -1.9198
  168SAPE  C21218891   7.088   4.704   4.193 -0.5161 -0.6750  0.0161
  168SAPE  H12R18892   7.104   4.748   4.293 -3.1632  0.1754  0.1580
  168SAPE  C21318893   7.105   4.554   4.187 -0.1071  0.1466  0.2823
  168SAPE  H13R18894   7.190   4.535   4.256  0.6038  1.4030 -0.2249
  168SAPE  H13S18895   7.139   4.510   4.090 -0.7234 -2.8814  1.3254
  168SAPE  C21418896   6.982   4.478   4.236 -0.1515  0.6090  0.5750
  168SAPE  H14R18897   6.891   4.515   4.188  0.3381  1.7425  0.4779
  168SAPE  C21518898   6.979   4.389   4.336 -0.0247  1.2649 -0.0464
  168SAPE  H15R18899   6.882   4.345   4.364 -0.0247  2.3991  1.9411
  168SAPE  C21618900   7.101   4.333   4.418  0.1662 -0.5072  0.3473
  168SAPE  H16R18901   7.195   4.349   4.360 -0.7032 -1.7606 -1.4923
  168SAPE  H16S18902   7.094   4.224   4.437 -2.3475 -0.5044 -0.1929
  168SAPE  C21718903   7.122   4.400   4.557 -0.3970 -0.6046 -0.3823
  168SAPE  H17R18904   7.200   4.353   4.620  0.1891  3.1785  1.9939
  168SAPE  H17S18905   7.026   4.385   4.610  0.1022  0.8770  1.0104
  168SAPE  C21818906   7.137   4.556   4.561 -0.4727 -0.0826  0.9701
  168SAPE  H18R18907   7.074   4.593   4.477  1.3584  1.7492  0.2879
  168SAPE  H18S18908   7.231   4.600   4.521 -0.9261  2.2086  2.2370
  168SAPE  C21918909   7.086   4.628   4.688 -0.1785 -0.4310  0.0796
  168SAPE  H19R18910   7.130   4.590   4.783  3.3364 -1.4178 -1.7810
  168SAPE  H19S18911   6.980   4.593   4.691  0.3012 -1.9151  1.4168
  168SAPE  C22018912   7.074   4.783   4.676 -0.8539  0.3537  0.1205
  168SAPE  H20R18913   6.971   4.817   4.701 -0.7499 -0.6558  2.0830
  168SAPE  H20S18914   7.084   4.816   4.570 -0.5868  1.2901  0.4252
  168SAPE  H20T18915   7.146   4.839   4.739 -2.3798 -1.3566  3.7065
  168SAPE   C3318916   7.347   4.703   3.305  0.6228 -0.1410 -0.1899
  168SAPE   H3X18917   7.245   4.683   3.344  0.1196 -0.9145 -1.7909
  168SAPE   H3Y18918   7.345   4.814   3.294  1.4441 -0.2189 -1.3844
  168SAPE   C3418919   7.452   4.662   3.404  0.4895 -0.1812 -0.2652
  168SAPE   H4X18920   7.469   4.552   3.407 -0.1395 -0.2865 -0.4453
  168SAPE   H4Y18921   7.425   4.708   3.502  1.4225  2.4389 -1.1582
  168SAPE   C3518922   7.585   4.724   3.366 -0.3147 -0.2116 -0.0617
  168SAPE   H5X18923   7.577   4.835   3.356  1.7430 -0.0402 -0.3520
  168SAPE   H5Y18924   7.630   4.685   3.272 -1.1114  0.4764 -0.7556
  168SAPE   C3618925   7.685   4.692   3.477  0.3507 -0.0101  0.8191
  168SAPE   H6X18926   7.791   4.682   3.447  0.6716 -4.3326  2.6432
  168SAPE   H6Y18927   7.647   4.597   3.520 -1.3673 -0.4122 -1.4102
  168SAPE   C3718928   7.689   4.803   3.590 -0.5213  0.2885  0.3411
  168SAPE   H7X18929   7.582   4.816   3.617 -0.7092 -0.4135 -0.0419
  168SAPE   H7Y18930   7.717   4.897   3.537 -3.1384  0.4098 -1.0132
  168SAPE   C3818931   7.787   4.759   3.708 -0.2761 -0.2831  0.1714
  168SAPE   H8X18932   7.891   4.740   3.673 -0.2129  0.2811  0.0397
  168SAPE   H8Y18933   7.754   4.666   3.759  0.2639 -1.6954 -1.9283
  168SAPE   C3918934   7.793   4.870   3.816 -0.4607  0.1892  0.2791
  168SAPE   H9X18935   7.690   4.880   3.854 -0.5853  1.0410 -0.2518
  168SAPE   H9Y18936   7.835   4.966   3.779  0.1698 -0.7902 -1.7051
  168SAPE  C31018937   7.884   4.838   3.939  0.5709  0.3731  0.1630
  168SAPE  H10X18938   7.991   4.863   3.927  0.7389  0.1817  1.1866
  168SAPE  H10Y18939   7.878   4.729   3.960  0.6985  0.1465 -0.9300
  168SAPE  C31118940   7.837   4.915   4.058 -0.9716 -0.5776 -0.1898
  168SAPE  H11X18941   7.730   4.909   4.089 -0.1463  1.0246  3.5802
  168SAPE  H11Y18942   7.868   5.017   4.028  1.4852 -0.7838  1.3990
  168SAPE  C31218943   7.911   4.893   4.183 -0.1728  0.4684  0.1803
  168SAPE  H12X18944   8.018   4.894   4.152 -0.0886  2.2788  0.4152
  168SAPE  H12Y18945   7.878   4.795   4.223 -1.1995  0.8085  0.1862
  168SAPE  C31318946   7.874   5.003   4.286  0.3820  0.2589 -0.0497
  168SAPE  H13X18947   7.764   5.006   4.297  0.2132  1.6003 -1.8167
  168SAPE  H13Y18948   7.913   5.097   4.242  0.4868  0.5158  0.5714
  168SAPE  C31418949   7.917   4.980   4.431  0.3572  0.0611 -0.7564
  168SAPE  H14X18950   7.886   5.071   4.486  0.1178  0.6230 -1.8005
  168SAPE  H14Y18951   8.028   4.980   4.437  0.2872  1.2869  1.2405
  168SAPE  C31518952   7.865   4.854   4.507 -0.5141  0.6357 -0.1034
  168SAPE  H15X18953   7.932   4.766   4.498 -0.6823  0.3721  1.1364
  168SAPE  H15Y18954   7.772   4.822   4.454 -0.8093  1.3921 -0.0659
  168SAPE  C31618955   7.848   4.875   4.657  0.2809  0.7941 -0.0150
  168SAPE  H16X18956   7.755   4.934   4.675  1.8866  2.7114  2.7990
  168SAPE  H16Y18957   7.921   4.945   4.703  1.6547 -1.5401  1.5430
  168SAPE  C31718958   7.851   4.745   4.729 -0.0938  0.3820 -0.1670
  168SAPE  H17X18959   7.816   4.788   4.825  0.7271  0.7059 -0.0065
  168SAPE  H17Y18960   7.955   4.706   4.731  0.7949  2.2835 -3.2582
  168SAPE  C31818961   7.757   4.630   4.688  0.4446  0.8859 -0.1893
  168SAPE  H18X18962   7.791   4.528   4.716  2.4163  0.8673 -2.3258
  168SAPE  H18Y18963   7.748   4.619   4.578  3.2509 -2.1022 -0.2544
  168SAPE  H18Z18964   7.658   4.657   4.733  1.1482  0.8835  1.4267
  169SAPE     N18965   5.729   2.680   2.690  0.0984  0.1783 -0.1997
  169SAPE   HN118966   5.804   2.636   2.747 -0.7421  1.1503  1.7379
  169SAPE   HN218967   5.730   2.779   2.721 -0.6846 -0.2560  1.3375
  169SAPE   HN318968   5.644   2.628   2.720  2.0846 -2.9936  0.4039
  169SAPE   C1218969   5.745   2.661   2.545  0.4787 -0.3144 -0.1247
  169SAPE  H12A18970   5.744   2.550   2.533 -2.8996 -0.6376  1.8012
  169SAPE  H12B18971   5.836   2.715   2.512  0.6527  0.7122  1.9218
  169SAPE   C1118972   5.635   2.735   2.465 -0.2660 -0.3060 -0.0893
  169SAPE  H11A18973   5.646   2.702   2.360 -2.0268 -3.1327  0.5035
  169SAPE  H11B18974   5.651   2.845   2.461  0.5438 -0.2283  2.8868
  169SAPE     P18975   5.403   2.608   2.421  0.1545  0.5474  0.6047
  169SAPE   O1318976   5.452   2.610   2.280 -0.6621 -0.0359  0.3313
  169SAPE   O1418977   5.406   2.478   2.484 -0.1309  0.2583  0.2681
  169SAPE   O1218978   5.502   2.700   2.506 -0.0852 -0.3656 -0.0924
  169SAPE   O1118979   5.261   2.675   2.425  0.1894 -0.0861  0.1906
  169SAPE    C118980   5.255   2.795   2.505  1.0763  0.3611 -0.0938
  169SAPE    HA18981   5.301   2.778   2.605  1.5951 -1.3758 -0.5857
  169SAPE    HB18982   5.304   2.874   2.446  0.8469 -0.8850 -2.0272
  169SAPE    C218983   5.109   2.850   2.523  0.2431 -0.3915  0.0176
  169SAPE    HS18984   5.119   2.945   2.580 -0.2182 -0.6084  0.4706
  169SAPE   O2118985   5.023   2.755   2.583 -0.2157  0.2301  0.0625
  169SAPE   C2118986   5.056   2.685   2.689  0.3110 -0.4992 -0.2914
  169SAPE   O2218987   5.155   2.694   2.756  1.0047 -0.0454 -0.0346
  169SAPE   C2218988   4.947   2.574   2.714 -0.9425 -0.5695  0.7890
  169SAPE   H2R18989   4.853   2.619   2.751 -0.9780 -0.7171  0.8767
  169SAPE   H2S18990   4.927   2.525   2.616  0.3285 -1.1835  0.8029
  169SAPE    C318991   5.050   2.898   2.387  0.0049  0.2487 -0.2698
  169SAPE    HX18992   5.028   2.806   2.329  0.9536  0.3426 -0.7924
  169SAPE    HY18993   5.120   2.952   2.320  1.0258 -1.2082 -0.4058
  169SAPE   O3118994   4.942   2.984   2.415  0.1550 -0.3323  0.4156
  169SAPE   C3118995   4.821   2.924   2.428 -1.0588  0.3382 -0.4900
  169SAPE   O3218996   4.802   2.806   2.407 -0.2238  0.8545 -0.3499
  169SAPE   C3218997   4.708   3.026   2.458 -0.4654 -0.0065  0.7937
  169SAPE   H2X18998   4.676   3.059   2.357 -0.8254  0.2267  0.9852
  169SAPE   H2Y18999   4.758   3.104   2.519  0.5283 -0.9894  1.2822
  169SAPE   C2319000   4.995   2.474   2.820  0.6134  0.1794  0.1990
  169SAPE   H3R19001   5.038   2.524   2.910 -0.8918 -0.4113  1.3024
  169SAPE   H3S19002   5.077   2.414   2.775  1.2692  0.9990  0.2814
  169SAPE   C2419003   4.889   2.367   2.873  0.0809  0.1701 -0.4822
  169SAPE   H4R19004   4.855   2.316   2.781 -2.0581  0.9948 -0.2091
  169SAPE   H4S19005   4.812   2.432   2.921  1.9039  2.6248 -0.6836
  169SAPE   C2519006   4.956   2.269   2.970  0.2236 -0.2877  0.0004
  169SAPE   H5R19007   5.015   2.181   2.938 -1.0743 -0.7109 -1.3554
  169SAPE   C2619008   4.944   2.276   3.102  0.4499 -0.0068 -0.8770
  169SAPE   H6R19009   5.009   2.217   3.168 -0.5801 -0.4072 -0.1818
  169SAPE   C2719010   4.881   2.387   3.186  0.1832  0.2608 -0.0891
  169SAPE   H7R19011   4.857   2.478   3.126  0.0993  0.3812  0.1244
  169SAPE   H7S19012   4.950   2.431   3.262 -1.4961  0.4696  1.4037
  169SAPE   C2819013   4.756   2.360   3.266  0.4578 -0.0530  0.5390
  169SAPE   H8R19014   4.661   2.390   3.218  1.4038  1.9977 -0.1985
  169SAPE   C2919015   4.746   2.325   3.395 -0.1173  0.6035  0.7420
  169SAPE   H9R19016   4.646   2.316   3.440 -0.1609  2.6150  1.1337
  169SAPE  C21019017   4.868   2.300   3.492 -0.0245 -0.3004 -0.0803
  169SAPE  H10R19018   4.966   2.287   3.441  1.4587  2.3408  1.8785
  169SAPE  H10S19019   4.849   2.211   3.556  0.2081 -0.9348 -0.8735
  169SAPE  C21119020   4.892   2.427   3.562  0.4392  0.4356  0.0249
  169SAPE  H11R19021   4.943   2.512   3.516  0.8218  0.3782  0.3432
  169SAPE  C21219022   4.862   2.428   3.694 -0.4399  0.1060  0.2984
  169SAPE  H12R19023   4.881   2.519   3.752 -1.2482  0.4282  0.0619
  169SAPE  C21319024   4.768   2.335   3.759 -0.2861 -0.1167  0.5572
  169SAPE  H13R19025   4.694   2.284   3.694  0.6963 -0.8175 -0.0263
  169SAPE  H13S19026   4.705   2.403   3.821 -0.3631 -0.7094  1.1501
  169SAPE  C21419027   4.848   2.223   3.836 -0.2415 -0.7151 -0.0857
  169SAPE  H14R19028   4.915   2.170   3.766 -0.1163  0.1678 -0.6512
  169SAPE  C21519029   4.841   2.191   3.963 -0.5571 -0.2160  0.3810
  169SAPE  H15R19030   4.879   2.091   3.988 -1.8650 -1.6945 -3.0379
  169SAPE  C21619031   4.761   2.263   4.066  0.4574 -0.2173  0.0022
  169SAPE  H16R19032   4.686   2.195   4.112 -0.3315  0.9503  0.4992
  169SAPE  H16S19033   4.700   2.344   4.021  1.2962 -0.3624 -1.4627
  169SAPE  C21719034   4.844   2.322   4.184 -0.0376 -0.6503  0.3795
  169SAPE  H17R19035   4.897   2.412   4.146  0.7693 -1.2015  0.1619
  169SAPE  H17S19036   4.933   2.263   4.217  0.8517  1.2421  1.5088
  169SAPE  C21819037   4.759   2.375   4.299 -0.8031 -0.3658  0.0870
  169SAPE  H18R19038   4.828   2.402   4.382 -2.1146  1.3988  0.6459
  169SAPE  H18S19039   4.694   2.296   4.341 -0.6346 -1.3155 -1.3536
  169SAPE  C21919040   4.670   2.492   4.248 -0.4735 -0.2753 -0.7911
  169SAPE  H19R19041   4.590   2.445   4.187 -0.1829 -2.6520  0.5437
  169SAPE  H19S19042   4.737   2.550   4.181  0.4243  0.5183  0.7321
  169SAPE  C22019043   4.609   2.583   4.357 -0.5687 -0.2476  0.5868
  169SAPE  H20R19044   4.529   2.536   4.419 -0.8205 -2.8196 -1.5147
  169SAPE  H20S19045   4.570   2.673   4.305 -1.2250 -0.7930  0.1235
  169SAPE  H20T19046   4.695   2.616   4.419 -0.5950  0.3364  0.3196
  169SAPE   C3319047   4.597   2.962   2.540 -0.4111  0.3216  0.6336
  169SAPE   H3X19048   4.552   2.876   2.485  0.1587 -0.0129  0.6793
  169SAPE   H3Y19049   4.514   3.035   2.549 -0.5555  0.7641 -2.8689
  169SAPE   C3419050   4.646   2.929   2.681 -0.3512  0.0630  0.0839
  169SAPE   H4X19051   4.727   2.854   2.681 -0.4688 -0.0723 -0.8344
  169SAPE   H4Y19052   4.560   2.886   2.738  1.7092 -1.0549  2.5262
  169SAPE   C3519053   4.714   3.032   2.770 -0.0748 -0.9364  0.8202
  169SAPE   H5X19054   4.649   3.120   2.794  1.8614  0.7792  0.0644
  169SAPE   H5Y19055   4.799   3.077   2.715 -0.3321  0.4568  1.4998
  169SAPE   C3619056   4.761   2.976   2.904  0.5048 -0.0152  0.4044
  169SAPE   H6X19057   4.821   3.059   2.947 -1.1634  1.9132 -0.8232
  169SAPE   H6Y19058   4.835   2.893   2.909  1.0190  0.5094  3.5793
  169SAPE   C3719059   4.649   2.960   3.014 -0.2214  0.7628 -0.9281
  169SAPE   H7X19060   4.583   2.876   2.980 -0.0889  0.1068  0.3904
  169SAPE   H7Y19061   4.582   3.049   3.019  0.7467  1.5311 -1.4061
  169SAPE   C3819062   4.704   2.941   3.157 -0.3364 -0.0390  0.5123
  169SAPE   H8X19063   4.622   2.932   3.231 -0.4657  0.9056  0.4921
  169SAPE   H8Y19064   4.773   3.024   3.184  1.0555 -1.2859  0.9526
  169SAPE   C3919065   4.785   2.809   3.174 -0.0772  0.1344 -0.1132
  169SAPE   H9X19066   4.866   2.803   3.098 -0.3094  0.5290 -0.3956
  169SAPE   H9Y19067   4.718   2.726   3.143  1.5624 -0.9672 -0.8329
  169SAPE  C31019068   4.843   2.792   3.312 -0.3670 -0.7757 -0.8502
  169SAPE  H10X19069   4.874   2.685   3.314 -0.3174 -0.7599 -0.7009
  169SAPE  H10Y19070   4.763   2.808   3.388  2.0033  0.0289  1.6740
  169SAPE  C31119071   4.948   2.893   3.348 -0.2985  1.1706  0.9523
  169SAPE  H11X19072   4.906   2.996   3.343 -3.1067  0.0703 -1.2746
  169SAPE  H11Y19073   5.029   2.877   3.274 -1.4018 -2.2239  0.3163
  169SAPE  C31219074   4.988   2.875   3.493 -0.5790  0.3592 -0.2225
  169SAPE  H12X19075   5.047   2.963   3.527 -1.4914  1.0346 -0.3450
  169SAPE  H12Y19076   5.053   2.785   3.499 -0.4211  0.3762 -1.4260
  169SAPE  C31319077   4.880   2.836   3.588 -0.1917  0.2107 -0.4712
  169SAPE  H13X19078   4.834   2.735   3.579 -0.3218  0.3069 -0.8886
  169SAPE  H13Y19079   4.804   2.914   3.567 -1.0801  0.2027  2.3734
  169SAPE  C31419080   4.922   2.846   3.731 -0.2857 -0.0521  0.2039
  169SAPE  H14X19081   4.978   2.942   3.736  0.4264 -0.4939  0.6689
  169SAPE  H14Y19082   4.983   2.756   3.753 -1.1447 -0.4431  1.0316
  169SAPE  C31519083   4.808   2.853   3.835 -0.6205 -0.4678 -0.6881
  169SAPE  H15X19084   4.731   2.773   3.827 -2.0540  0.9003 -1.0047
  169SAPE  H15Y19085   4.755   2.950   3.826 -0.7190 -0.3435  0.8883
  169SAPE  C31619086   4.877   2.864   3.970  0.1219  0.6879 -0.0581
  169SAPE  H16X19087   4.946   2.950   3.956  1.0805 -0.5081 -3.8021
  169SAPE  H16Y19088   4.943   2.776   3.978 -0.6113 -0.4444 -4.0662
  169SAPE  C31719089   4.797   2.872   4.096  0.2523  0.4996  0.0948
  169SAPE  H17X19090   4.747   2.775   4.117  0.9801 -0.0776 -0.7891
  169SAPE  H17Y19091   4.715   2.944   4.077  1.1228  1.3789 -0.3949
  169SAPE  C31819092   4.882   2.911   4.218  0.4697 -0.0564 -0.4287
  169SAPE  H18X19093   4.818   2.917   4.308  0.4622  1.1602 -0.5007
  169SAPE  H18Y19094   4.925   3.013   4.213  1.2533 -0.3687 -0.2604
  169SAPE  H18Z19095   4.972   2.847   4.231  0.9028  0.9532  1.9259
  170SAPE     N19096   3.184   5.684   2.461  0.1238  0.1005 -0.5606
  170SAPE   HN119097   3.143   5.775   2.492 -0.9214 -0.4635 -0.2774
  170SAPE   HN219098   3.229   5.641   2.544  0.9921 -0.3785 -1.2535
  170SAPE   HN319099   3.254   5.699   2.385  0.2142  0.2110 -0.4562
  170SAPE   C1219100   3.070   5.605   2.404  0.6651  0.4335 -0.0983
  170SAPE  H12A19101   3.059   5.645   2.300 -0.2850 -0.0819 -0.2021
  170SAPE  H12B19102   2.980   5.631   2.463  1.1348 -1.7820  1.7297
  170SAPE   C1119103   3.105   5.458   2.389 -0.1735 -0.0060  0.8753
  170SAPE  H11A19104   3.145   5.411   2.481  1.8090 -2.0977 -0.9247
  170SAPE  H11B19105   3.190   5.466   2.319  0.3279  1.6099  1.6015
  170SAPE     P19106   2.881   5.328   2.425 -0.4466 -0.2119  0.0346
  170SAPE   O1319107   2.752   5.338   2.357  0.0496 -0.3421 -0.2425
  170SAPE   O1419108   2.917   5.193   2.473 -0.1459  0.1501  0.3469
  170SAPE   O1219109   2.996   5.382   2.328  0.8513 -0.0196  0.2062
  170SAPE   O1119110   2.883   5.419   2.552 -0.2558  0.4609  0.2329
  170SAPE    C119111   2.781   5.395   2.652  0.6019  1.0418 -0.0082
  170SAPE    HA19112   2.683   5.392   2.601 -0.9400 -0.3051  2.7921
  170SAPE    HB19113   2.791   5.295   2.700 -0.7051  0.8276 -0.1383
  170SAPE    C219114   2.774   5.505   2.762  0.4192  0.7155 -0.9623
  170SAPE    HS19115   2.773   5.599   2.703 -2.0399  1.0483 -0.5283
  170SAPE   O2119116   2.884   5.488   2.850 -0.9047 -0.3005  0.5314
  170SAPE   C2119117   2.998   5.555   2.834  0.1693  0.6556 -0.6690
  170SAPE   O2219118   3.023   5.623   2.738  0.1533  0.2621 -0.5282
  170SAPE   C2219119   3.076   5.550   2.965 -0.0664  0.4820 -0.4090
  170SAPE   H2R19120   3.002   5.534   3.046 -1.8079 -2.0716 -2.3549
  170SAPE   H2S19121   3.151   5.469   2.953 -1.1885 -0.4421 -1.4941
  170SAPE    C319122   2.644   5.494   2.841  0.0545 -0.3608 -0.8099
  170SAPE    HX19123   2.645   5.394   2.889  0.0780  1.6338  3.9107
  170SAPE    HY19124   2.557   5.496   2.772 -0.7259  2.5512  0.1463
  170SAPE   O3119125   2.632   5.599   2.934  0.1049 -0.0152  0.4158
  170SAPE   C3119126   2.551   5.579   3.037 -0.4941 -0.4458  0.6730
  170SAPE   O3219127   2.486   5.480   3.060  0.1679 -0.2899 -0.8419
  170SAPE   C3219128   2.546   5.713   3.117  0.3817  0.0076 -0.4540
  170SAPE   H2X19129   2.446   5.707   3.164  0.2996  0.8736 -0.4963
  170SAPE   H2Y19130   2.539   5.795   3.043 -0.4775 -0.4850 -0.9388
  170SAPE   C2319131   3.155   5.674   2.988 -0.4759  0.1419  0.5192
  170SAPE   H3R19132   3.212   5.696   2.895 -0.3168 -0.9564  0.3400
  170SAPE   H3S19133   3.231   5.649   3.064 -0.6736  0.3704  0.7968
  170SAPE   C2419134   3.079   5.798   3.031  0.7339 -0.2471  0.2000
  170SAPE   H4R19135   2.997   5.774   3.103  0.3546  1.6882  0.4719
  170SAPE   H4S19136   3.012   5.832   2.949 -0.5431 -1.2492  0.7804
  170SAPE   C2519137   3.178   5.903   3.084 -0.7057  0.3640 -0.1269
  170SAPE   H5R19138   3.206   5.880   3.188  0.2634 -0.2937 -0.5227
  170SAPE   C2619139   3.218   6.009   3.018 -0.6502  0.7247  0.7595
  170SAPE   H6R19140   3.289   6.078   3.065  1.3138 -0.8081  0.1844
  170SAPE   C2719141   3.183   6.053   2.878 -0.1331  0.1366  0.0281
  170SAPE   H7R19142   3.089   6.110   2.895  0.0157  0.6219 -0.7269
  170SAPE   H7S19143   3.167   5.969   2.807 -0.1194 -0.1494  0.3577
  170SAPE   C2819144   3.289   6.154   2.827 -0.1146  0.4029  0.0991
  170SAPE   H8R19145   3.368   6.112   2.764  0.7060  0.7458  0.8691
  170SAPE   C2919146   3.307   6.284   2.855  0.2271 -0.2408 -0.5117
  170SAPE   H9R19147   3.386   6.340   2.804 -0.5893 -0.4798 -2.1003
  170SAPE  C21019148   3.213   6.367   2.949  0.0610  0.6357 -0.6727
  170SAPE  H10R19149   3.138   6.293   2.986  2.6186 -1.3852  0.8553
  170SAPE  H10S19150   3.176   6.457   2.896 -1.4701 -0.3043 -1.2563
  170SAPE  C21119151   3.290   6.413   3.073  0.0854 -0.5601  0.8346
  170SAPE  H11R19152   3.399   6.419   3.058 -0.2824  1.9943 -1.8937
  170SAPE  C21219153   3.243   6.453   3.191  0.4244 -0.1192 -0.3425
  170SAPE  H12R19154   3.306   6.495   3.271  0.4467 -0.2593 -0.2848
  170SAPE  C21319155   3.098   6.441   3.238 -0.0284 -0.0752 -0.1538
  170SAPE  H13R19156   3.039   6.413   3.149  0.3194 -2.8952  0.4111
  170SAPE  H13S19157   3.067   6.545   3.263  2.0190  0.4576  0.3785
  170SAPE  C21419158   3.064   6.333   3.340  0.6518 -0.1442 -0.6638
  170SAPE  H14R19159   3.022   6.238   3.302 -2.1321 -1.2592  4.3699
  170SAPE  C21519160   3.114   6.322   3.467  0.6376 -0.2240 -0.0662
  170SAPE  H15R19161   3.083   6.240   3.532 -0.2182 -0.7030 -1.0456
  170SAPE  C21619162   3.196   6.426   3.545 -0.1181 -0.3692 -0.2978
  170SAPE  H16R19163   3.213   6.512   3.476 -0.8642  0.8830  1.0270
  170SAPE  H16S19164   3.294   6.388   3.580 -1.3942 -1.5826  2.1738
  170SAPE  C21719165   3.129   6.483   3.673 -0.1602 -0.4066 -0.1077
  170SAPE  H17R19166   3.122   6.404   3.752  1.9275  0.0990  0.6530
  170SAPE  H17S19167   3.028   6.506   3.633  0.5392  2.0571 -0.6259
  170SAPE  C21819168   3.183   6.617   3.722  0.0126  0.1210 -0.1067
  170SAPE  H18R19169   3.194   6.683   3.633 -0.8275 -0.1695 -0.4404
  170SAPE  H18S19170   3.286   6.594   3.757  0.3108  1.1312 -0.2849
  170SAPE  C21919171   3.098   6.692   3.835 -0.4349  0.0391  0.0722
  170SAPE  H19R19172   3.173   6.769   3.862 -0.8498  0.0854  1.1436
  170SAPE  H19S19173   3.084   6.632   3.927 -1.7055 -1.0117 -0.7693
  170SAPE  C22019174   2.974   6.764   3.794 -0.9657  0.0421  0.3975
  170SAPE  H20R19175   2.991   6.830   3.706  0.4264 -1.1845 -0.3094
  170SAPE  H20S19176   2.926   6.816   3.879 -3.5086 -0.1774 -0.7882
  170SAPE  H20T19177   2.913   6.688   3.740  1.4086 -1.0722 -0.9033
  170SAPE   C3319178   2.654   5.726   3.234  0.2713 -0.6157  0.4770
  170SAPE   H3X19179   2.630   5.822   3.285  1.7222  0.5391 -0.9355
  170SAPE   H3Y19180   2.756   5.740   3.194  0.7662  1.4593  2.2408
  170SAPE   C3419181   2.624   5.616   3.339 -0.3326 -0.5616  0.4341
  170SAPE   H4X19182   2.624   5.513   3.297 -0.8889  0.3543 -2.0041
  170SAPE   H4Y19183   2.517   5.627   3.368 -0.4076 -1.1374  0.3745
  170SAPE   C3519184   2.713   5.644   3.459 -0.7442  0.0147  0.8642
  170SAPE   H5X19185   2.670   5.739   3.495 -0.6336 -0.2411  1.6914
  170SAPE   H5Y19186   2.818   5.655   3.424 -1.7489  3.9368 -1.4436
  170SAPE   C3619187   2.686   5.544   3.567 -0.4197  0.2750 -0.2899
  170SAPE   H6X19188   2.742   5.452   3.537  0.4014  0.4256  0.7204
  170SAPE   H6Y19189   2.577   5.523   3.566 -0.4457  0.3816 -2.0781
  170SAPE   C3719190   2.747   5.574   3.698 -0.4672  0.4103 -0.2436
  170SAPE   H7X19191   2.721   5.491   3.767 -0.9366 -0.9746 -2.0143
  170SAPE   H7Y19192   2.708   5.666   3.747  1.5379  0.6273  1.1080
  170SAPE   C3819193   2.902   5.581   3.701  0.0479 -0.4173  0.3418
  170SAPE   H8X19194   2.940   5.676   3.658  0.2190 -0.8144 -0.4062
  170SAPE   H8Y19195   2.940   5.495   3.641  0.6369 -0.9426  1.4514
  170SAPE   C3919196   2.957   5.577   3.844 -0.4087 -0.0147  0.0734
  170SAPE   H9X19197   3.066   5.595   3.852 -0.7251  1.4043  1.6727
  170SAPE   H9Y19198   2.939   5.472   3.874 -1.8953  0.1397 -0.1890
  170SAPE  C31019199   2.894   5.680   3.942  0.7317 -0.0211  0.0497
  170SAPE  H10X19200   2.784   5.676   3.949  0.5194  1.7873 -1.3502
  170SAPE  H10Y19201   2.912   5.783   3.904  1.0851 -0.1066 -0.0257
  170SAPE  C31119202   2.950   5.666   4.082 -0.3985 -0.8466 -0.3716
  170SAPE  H11X19203   2.915   5.756   4.137 -1.1553 -1.3401 -0.0338
  170SAPE  H11Y19204   3.060   5.679   4.088 -0.7322  3.0230  0.0605
  170SAPE  C31219205   2.893   5.533   4.139  0.4049 -1.0585 -0.0505
  170SAPE  H12X19206   2.931   5.539   4.243  0.1595  0.1696 -0.0144
  170SAPE  H12Y19207   2.952   5.448   4.098  0.7536 -0.3430 -1.0826
  170SAPE  C31319208   2.742   5.512   4.117  0.4079  0.0047 -0.0637
  170SAPE  H13X19209   2.716   5.439   4.037 -0.2463  0.3931 -0.2031
  170SAPE  H13Y19210   2.691   5.610   4.116  0.0985 -0.1337  0.8942
  170SAPE  C31419211   2.693   5.446   4.252  0.0882 -0.6950  0.2961
  170SAPE  H14X19212   2.691   5.525   4.331 -5.3839 -1.3678  1.2256
  170SAPE  H14Y19213   2.767   5.366   4.269  0.1570 -1.2859 -2.3273
  170SAPE  C31519214   2.552   5.397   4.245  0.2665  0.0426 -0.0617
  170SAPE  H15X19215   2.555   5.302   4.187 -0.5552  2.2392 -4.0832
  170SAPE  H15Y19216   2.494   5.471   4.185  0.1000 -1.1387 -1.4010
  170SAPE  C31619217   2.483   5.377   4.380  0.2519  0.4267 -0.7486
  170SAPE  H16X19218   2.474   5.471   4.438 -2.0021  1.0778 -2.0205
  170SAPE  H16Y19219   2.551   5.306   4.431  0.0368  2.4732  2.6624
  170SAPE  C31719220   2.348   5.306   4.371 -0.0172 -0.6788  0.2275
  170SAPE  H17X19221   2.278   5.379   4.324  0.2046 -0.5358  0.1155
  170SAPE  H17Y19222   2.317   5.299   4.478 -1.8136 -1.4470 -0.2972
  170SAPE  C31819223   2.342   5.175   4.303  0.3916  0.3059  0.2816
  170SAPE  H18X19224   2.365   5.186   4.195 -1.6436  0.3117 -0.1966
  170SAPE  H18Y19225   2.252   5.110   4.311  1.1791 -0.8719 -0.1422
  170SAPE  H18Z19226   2.422   5.110   4.344 -0.2087 -0.5224  0.1793
  171SAPE     N19227   1.703   4.280   2.462 -0.7323  0.5684 -0.6854
  171SAPE   HN119228   1.732   4.193   2.413 -0.8034  1.0040 -1.5276
  171SAPE   HN219229   1.665   4.348   2.392  0.9881  2.0720 -0.2511
  171SAPE   HN319230   1.793   4.322   2.494 -0.2211  0.0288 -1.3716
  171SAPE   C1219231   1.616   4.270   2.587 -0.1136 -0.1750  0.3396
  171SAPE  H12A19232   1.663   4.187   2.644  0.8175  0.6542  0.8283
  171SAPE  H12B19233   1.512   4.259   2.551 -0.0338 -1.9375  0.5840
  171SAPE   C1119234   1.637   4.395   2.671 -0.0668  0.1791 -0.4012
  171SAPE  H11A19235   1.743   4.384   2.705  0.6996 -1.4641 -3.0160
  171SAPE  H11B19236   1.573   4.396   2.761  1.1912 -1.1858  0.5614
  171SAPE     P19237   1.654   4.648   2.652 -0.0723  0.3386  0.0974
  171SAPE   O1319238   1.791   4.687   2.616 -0.4929 -0.2980  0.1960
  171SAPE   O1419239   1.548   4.744   2.617  0.2061 -0.4685  0.4485
  171SAPE   O1219240   1.623   4.511   2.582 -0.4230  0.6041  0.0275
  171SAPE   O1119241   1.642   4.627   2.813 -0.5343  0.6540  0.5149
  171SAPE    C119242   1.757   4.625   2.898  0.4161  0.4271 -0.1838
  171SAPE    HA19243   1.786   4.518   2.896 -1.6848 -0.4929  4.4508
  171SAPE    HB19244   1.830   4.701   2.862 -2.0899  2.1079 -2.0374
  171SAPE    C219245   1.724   4.657   3.049  0.1591 -0.3522  0.1317
  171SAPE    HS19246   1.822   4.647   3.101  0.3522 -0.7944 -0.3132
  171SAPE   O2119247   1.624   4.556   3.081 -0.2532 -0.5555 -0.5029
  171SAPE   C2119248   1.596   4.530   3.208  0.2781  0.7319 -0.3349
  171SAPE   O2219249   1.661   4.576   3.304  0.4185  0.2930  0.5305
  171SAPE   C2219250   1.466   4.451   3.222 -0.0045 -0.5898 -0.1939
  171SAPE   H2R19251   1.390   4.532   3.229  0.4114 -0.3046  2.1085
  171SAPE   H2S19252   1.441   4.399   3.128  0.2473  0.2324 -0.7278
  171SAPE    C319253   1.660   4.805   3.061 -0.2840 -0.4995 -0.4213
  171SAPE    HX19254   1.566   4.818   3.003 -0.4353  2.7621  0.3367
  171SAPE    HY19255   1.724   4.881   3.010 -2.0595  2.5741  1.5737
  171SAPE   O3119256   1.640   4.842   3.200  0.4161 -0.7031  0.1917
  171SAPE   C3119257   1.750   4.860   3.276 -0.2997  0.4808 -0.3146
  171SAPE   O3219258   1.865   4.869   3.236  0.6718 -0.5449  0.0061
  171SAPE   C3219259   1.708   4.864   3.420  0.3713  0.4621  0.2304
  171SAPE   H2X19260   1.676   4.763   3.454 -2.9025  1.0959 -0.6717
  171SAPE   H2Y19261   1.611   4.918   3.426  0.3098  0.4872 -0.8387
  171SAPE   C2319262   1.479   4.349   3.339 -0.5057  0.0776  0.6926
  171SAPE   H3R19263   1.521   4.397   3.429  1.7163 -0.6940  0.1330
  171SAPE   H3S19264   1.562   4.278   3.322  1.1337  1.9431  0.5069
  171SAPE   C2419265   1.344   4.289   3.378 -0.0193 -0.4233  0.1149
  171SAPE   H4R19266   1.342   4.208   3.454 -0.7527 -0.7526 -0.2447
  171SAPE   H4S19267   1.304   4.249   3.282  0.8642 -2.1420  0.4190
  171SAPE   C2519268   1.245   4.400   3.418  0.6012 -0.1675 -0.0120
  171SAPE   H5R19269   1.187   4.446   3.336  0.8955 -2.2345 -1.4498
  171SAPE   C2619270   1.214   4.425   3.548  0.3991  0.3976  0.9950
  171SAPE   H6R19271   1.158   4.518   3.568 -4.4708 -1.8250 -0.8144
  171SAPE   C2719272   1.275   4.355   3.662  0.1670  0.5260  0.4538
  171SAPE   H7R19273   1.252   4.246   3.661 -0.4434  0.6552  0.1309
  171SAPE   H7S19274   1.213   4.391   3.747  0.7002  0.6433  0.7945
  171SAPE   C2819275   1.417   4.386   3.685  0.8515  0.5927  0.0326
  171SAPE   H8R19276   1.484   4.304   3.653  0.3205 -0.6326  1.9513
  171SAPE   C2919277   1.469   4.496   3.743 -0.2146  0.4235  0.6015
  171SAPE   H9R19278   1.578   4.506   3.755 -0.3448  1.7235  0.8508
  171SAPE  C21019279   1.398   4.613   3.807 -0.2296 -0.5324  0.4050
  171SAPE  H10R19280   1.305   4.637   3.752  0.0354  1.4067  0.7218
  171SAPE  H10S19281   1.461   4.703   3.790 -1.3999  0.1098 -0.7396
  171SAPE  C21119282   1.356   4.582   3.951 -0.4270 -0.0900 -0.1380
  171SAPE  H11R19283   1.317   4.480   3.961 -0.8467  0.0754 -0.0873
  171SAPE  C21219284   1.376   4.659   4.060 -1.2864 -0.3622  0.0985
  171SAPE  H12R19285   1.329   4.624   4.154 -1.7504  1.6182  0.6422
  171SAPE  C21319286   1.434   4.800   4.065 -0.2054 -0.9171  0.3865
  171SAPE  H13R19287   1.375   4.869   4.130 -1.0352  0.1670 -1.4546
  171SAPE  H13S19288   1.434   4.835   3.960 -0.9754 -1.2631  0.2635
  171SAPE  C21419289   1.574   4.790   4.126 -0.0412 -0.3214  0.4161
  171SAPE  H14R19290   1.644   4.719   4.081 -1.5360 -2.2894  1.0599
  171SAPE  C21519291   1.621   4.862   4.228  0.6582 -0.2915 -0.2244
  171SAPE  H15R19292   1.715   4.828   4.273  0.2337 -1.8731 -0.4617
  171SAPE  C21619293   1.553   4.980   4.289  0.0888  0.2094 -0.5495
  171SAPE  H16R19294   1.466   5.018   4.231 -0.1381 -1.8755 -1.6880
  171SAPE  H16S19295   1.622   5.067   4.294 -0.2058  0.6160 -2.5137
  171SAPE  C21719296   1.491   4.953   4.428  0.3267  0.1338  0.1736
  171SAPE  H17R19297   1.561   4.884   4.480 -0.0437 -1.7288 -1.6361
  171SAPE  H17S19298   1.396   4.894   4.424 -0.8041  1.8717  0.3701
  171SAPE  C21819299   1.477   5.091   4.499 -0.2225 -0.4574  0.2625
  171SAPE  H18R19300   1.394   5.141   4.444  0.7045 -0.6124 -1.3346
  171SAPE  H18S19301   1.565   5.158   4.486  0.4969 -1.7575 -2.2311
  171SAPE  C21919302   1.452   5.101   4.656  0.2548 -0.2329 -0.2186
  171SAPE  H19R19303   1.444   5.203   4.697  0.6523  0.7519 -2.4322
  171SAPE  H19S19304   1.544   5.061   4.705 -1.0731 -0.2006  2.4491
  171SAPE  C22019305   1.330   5.020   4.696 -0.8484  0.0167  0.0036
  171SAPE  H20R19306   1.332   4.917   4.656 -1.9375 -0.2054  0.4888
  171SAPE  H20S19307   1.238   5.074   4.666  0.8042  1.8341 -2.1727
  171SAPE  H20T19308   1.339   5.012   4.807  0.1628  1.4748  0.0601
  171SAPE   C3319309   1.809   4.915   3.523 -0.3235 -0.7446  0.4227
  171SAPE   H3X19310   1.815   5.026   3.514  1.0071 -0.9103 -1.0173
  171SAPE   H3Y19311   1.911   4.881   3.496  0.2510  2.2929 -1.8598
  171SAPE   C3419312   1.773   4.869   3.660 -0.5509 -0.0165 -0.8463
  171SAPE   H4X19313   1.771   4.758   3.654 -1.0428  0.0160 -1.3629
  171SAPE   H4Y19314   1.676   4.907   3.698 -0.1691 -0.2448  0.3910
  171SAPE   C3519315   1.880   4.921   3.755  0.8203 -0.3502 -0.5047
  171SAPE   H5X19316   1.865   5.029   3.779  0.9615 -0.8452  2.1294
  171SAPE   H5Y19317   1.983   4.907   3.716  0.9218 -2.1962  0.3331
  171SAPE   C3619318   1.869   4.854   3.889  0.0347  0.0246 -0.3312
  171SAPE   H6X19319   1.899   4.747   3.888 -1.5708 -0.5042  1.9037
  171SAPE   H6Y19320   1.767   4.853   3.931 -0.4456 -0.7467 -1.4574
  171SAPE   C3719321   1.965   4.926   3.988 -0.2888 -0.3732  0.2619
  171SAPE   H7X19322   1.926   5.029   4.004 -1.7263 -0.8072 -0.2512
  171SAPE   H7Y19323   2.069   4.939   3.950 -0.1037  0.7461  1.1172
  171SAPE   C3819324   1.980   4.864   4.128  0.6387 -0.4938  0.4251
  171SAPE   H8X19325   2.071   4.802   4.133  1.2052  0.2680 -0.2318
  171SAPE   H8Y19326   1.894   4.795   4.144  1.2862 -1.1532  1.1874
  171SAPE   C3919327   1.979   4.967   4.246  0.5711 -0.0663 -0.2716
  171SAPE   H9X19328   1.885   5.025   4.232  0.0804 -0.9933 -0.9188
  171SAPE   H9Y19329   2.068   5.033   4.234 -0.6973  1.5589 -1.1965
  171SAPE  C31019330   1.971   4.902   4.380  0.1190  0.0748 -0.1953
  171SAPE  H10X19331   2.059   4.835   4.391  0.3159  0.4378  0.4859
  171SAPE  H10Y19332   1.884   4.833   4.384  1.7066 -1.9400  1.3460
  171SAPE  C31119333   1.950   5.006   4.496  0.6777 -0.6556  0.1547
  171SAPE  H11X19334   1.854   5.060   4.482  0.7351 -0.0795  1.7553
  171SAPE  H11Y19335   2.032   5.081   4.491  1.3806 -1.3964  0.3092
  171SAPE  C31219336   1.957   4.956   4.639 -0.0475  0.3559 -0.1304
  171SAPE  H12X19337   1.895   4.864   4.646  2.0920 -1.0766  1.2044
  171SAPE  H12Y19338   1.917   5.042   4.696 -0.7488  0.4394 -0.7375
  171SAPE  C31319339   2.097   4.911   4.694 -0.2651 -0.0118  0.1662
  171SAPE  H13X19340   2.162   4.863   4.619 -0.7401  1.8922 -1.5473
  171SAPE  H13Y19341   2.077   4.839   4.777  0.7143  0.9882  1.3263
  171SAPE  C31419342   2.177   5.036   4.744 -0.2389  0.1992 -0.6160
  171SAPE  H14X19343   2.111   5.088   4.817  1.5096  0.0149  1.1883
  171SAPE  H14Y19344   2.191   5.099   4.654 -0.8835 -2.3020 -2.5938
  171SAPE  C31519345   2.312   5.000   4.803  0.5423  0.1763 -0.0225
  171SAPE  H15X19346   2.300   4.917   4.876 -1.4691  0.5100  0.0850
  171SAPE  H15Y19347   2.350   5.090   4.857 -1.5310  0.2376  1.4333
  171SAPE  C31619348   2.407   4.967   4.683 -1.3239 -0.0703  0.2057
  171SAPE  H16X19349   2.399   5.048   4.606 -0.0932 -0.9062 -0.8599
  171SAPE  H16Y19350   2.385   4.867   4.642 -0.5129  0.5407 -1.8521
  171SAPE  C31719351   2.562   4.971   4.711  0.2700 -0.8011 -0.6025
  171SAPE  H17X19352   2.581   4.891   4.786 -2.5458 -0.2423  0.8705
  171SAPE  H17Y19353   2.588   5.066   4.763 -0.1415 -0.6406 -0.6793
  171SAPE  C31819354   2.647   4.942   4.592 -0.5299 -0.0313  0.3415
  171SAPE  H18X19355   2.752   4.921   4.621 -0.8157 -1.5526  0.3530
  171SAPE  H18Y19356   2.662   5.029   4.524  0.6394 -1.1842 -0.9508
  171SAPE  H18Z19357   2.616   4.852   4.536  0.5784 -0.0836 -0.2172
  172SAPE     N19358   4.256   5.544   2.293  0.0276 -0.0894 -0.2843
  172SAPE   HN119359   4.289   5.476   2.221  0.4317 -0.2284  0.0238
  172SAPE   HN219360   4.158   5.520   2.319  0.1280 -0.3969 -0.1773
  172SAPE   HN319361   4.260   5.642   2.259 -2.3323  0.0573 -0.2653
  172SAPE   C1219362   4.349   5.544   2.419 -0.6578 -0.1976  0.4830
  172SAPE  H12A19363   4.294   5.604   2.494  0.3471 -0.3021  1.3252
  172SAPE  H12B19364   4.443   5.594   2.389 -0.5830  0.5420  1.8824
  172SAPE   C1119365   4.378   5.400   2.466  0.2752  0.3156 -0.2159
  172SAPE  H11A19366   4.280   5.355   2.494 -0.0599 -0.4476 -2.4063
  172SAPE  H11B19367   4.450   5.407   2.549  2.5766  0.7505 -2.1372
  172SAPE     P19368   4.586   5.321   2.316  0.3664  0.1492 -0.2044
  172SAPE   O1319369   4.614   5.182   2.264 -0.2736  0.2723  0.6989
  172SAPE   O1419370   4.621   5.432   2.223 -0.3296 -0.0309 -0.5093
  172SAPE   O1219371   4.442   5.319   2.364 -0.0272  0.2833 -0.0430
  172SAPE   O1119372   4.663   5.337   2.458  0.0351  0.1848  0.2743
  172SAPE    C119373   4.789   5.285   2.463 -0.3754 -0.1767 -0.1967
  172SAPE    HA19374   4.808   5.189   2.410 -0.4736 -0.2367 -0.1220
  172SAPE    HB19375   4.858   5.361   2.419 -0.3598  0.1857  0.4504
  172SAPE    C219376   4.825   5.277   2.610 -0.5929 -0.2670 -0.2250
  172SAPE    HS19377   4.935   5.273   2.628  0.0333  1.5373 -3.0199
  172SAPE   O2119378   4.760   5.170   2.686 -0.2082 -0.1368 -0.2419
  172SAPE   C2119379   4.811   5.050   2.651  0.0432 -0.8974  0.4487
  172SAPE   O2219380   4.906   5.033   2.579 -0.4786 -0.3651 -0.2958
  172SAPE   C2219381   4.728   4.938   2.714  0.5852 -0.8988  0.0847
  172SAPE   H2R19382   4.699   4.962   2.818  1.4971  2.3863 -0.3174
  172SAPE   H2S19383   4.635   4.938   2.653  0.8334  1.6114 -0.4017
  172SAPE    C319384   4.787   5.413   2.677  0.1438  0.1656 -0.5484
  172SAPE    HX19385   4.677   5.410   2.688  0.0762 -0.8038 -1.4361
  172SAPE    HY19386   4.801   5.492   2.600 -0.1890  1.9428  1.1345
  172SAPE   O3119387   4.866   5.432   2.795  0.8028  0.0576  0.4876
  172SAPE   C3119388   4.858   5.556   2.844 -0.7900  0.0689 -0.6028
  172SAPE   O3219389   4.784   5.646   2.801 -0.7048 -0.0102 -0.1586
  172SAPE   C3219390   4.977   5.562   2.942  0.0280  0.3668 -0.2970
  172SAPE   H2X19391   5.033   5.654   2.917  0.1706  0.5286  0.5726
  172SAPE   H2Y19392   5.052   5.482   2.931  0.9493  1.0205  0.9423
  172SAPE   C2319393   4.791   4.802   2.725 -0.1285  0.0848  0.2536
  172SAPE   H3R19394   4.843   4.770   2.633  2.1028 -0.1594  1.5200
  172SAPE   H3S19395   4.712   4.725   2.737 -2.2008  2.0731  0.1642
  172SAPE   C2419396   4.880   4.780   2.847 -0.0628  0.2216  0.1223
  172SAPE   H4R19397   4.883   4.672   2.871 -0.1494  0.2580  0.2995
  172SAPE   H4S19398   4.823   4.820   2.934 -1.7038  2.9190 -2.0324
  172SAPE   C2519399   5.019   4.837   2.830  0.5417  0.4313 -0.4205
  172SAPE   H5R19400   5.081   4.773   2.765  1.9498  1.3503 -0.0179
  172SAPE   C2619401   5.066   4.955   2.869 -0.1382  1.4418  0.3590
  172SAPE   H6R19402   5.167   4.988   2.841  0.1290 -1.7477 -3.3394
  172SAPE   C2719403   4.987   5.035   2.965 -0.5308 -0.4348 -0.2581
  172SAPE   H7R19404   4.959   4.975   3.054 -1.1658 -1.7019 -1.2840
  172SAPE   H7S19405   4.891   5.059   2.915 -0.7177 -0.4922  0.0747
  172SAPE   C2819406   5.057   5.155   3.025  0.9114 -0.4234  0.5595
  172SAPE   H8R19407   5.071   5.231   2.947 -0.1592  0.2261  0.9833
  172SAPE   C2919408   5.088   5.166   3.156 -0.1146  0.1803  0.6917
  172SAPE   H9R19409   5.140   5.260   3.182 -0.7945  0.8215 -0.1770
  172SAPE  C21019410   5.056   5.074   3.268 -0.1114  1.2563 -0.2971
  172SAPE  H10R19411   5.153   5.021   3.257 -0.2123  1.2064 -0.9585
  172SAPE  H10S19412   4.969   5.012   3.238  0.7883 -1.0895  1.6202
  172SAPE  C21119413   5.014   5.143   3.397  0.5388  0.3358 -0.9717
  172SAPE  H11R19414   4.923   5.204   3.383  0.4843  0.8715  1.2326
  172SAPE  C21219415   5.078   5.157   3.510 -0.0426  0.1142 -0.0102
  172SAPE  H12R19416   5.022   5.207   3.590 -0.2372  0.7978 -0.5642
  172SAPE  C21319417   5.208   5.095   3.530  0.7360 -0.1327  0.0422
  172SAPE  H13R19418   5.276   5.090   3.443 -0.1522 -1.9274 -0.6133
  172SAPE  H13S19419   5.191   4.989   3.561  1.4833  0.3310  2.2250
  172SAPE  C21419420   5.294   5.151   3.639  0.5574 -0.7393  0.1998
  172SAPE  H14R19421   5.396   5.177   3.608 -0.0598  3.1547  0.9271
  172SAPE  C21519422   5.259   5.160   3.771 -0.2136  0.0403 -0.6500
  172SAPE  H15R19423   5.344   5.177   3.838  0.3890 -2.0816 -0.8106
  172SAPE  C21619424   5.142   5.118   3.854  0.2866  0.1422  0.4952
  172SAPE  H16R19425   5.072   5.066   3.785 -0.2699  0.0006  1.1477
  172SAPE  H16S19426   5.086   5.210   3.882  2.1875  0.8002  2.4062
  172SAPE  C21719427   5.150   5.022   3.980  0.5038  0.6558  0.6283
  172SAPE  H17R19428   5.200   4.930   3.942  2.3295  0.5057  3.1416
  172SAPE  H17S19429   5.054   4.994   4.027  1.9738 -1.1474  2.7647
  172SAPE  C21819430   5.244   5.081   4.089 -0.4667  0.2339  0.3710
  172SAPE  H18R19431   5.343   5.108   4.045 -0.4871 -0.6497 -0.2324
  172SAPE  H18S19432   5.267   4.997   4.158  1.6481  0.3264 -0.1329
  172SAPE  C21919433   5.186   5.204   4.158 -0.5590  0.2035 -0.3622
  172SAPE  H19R19434   5.150   5.278   4.083  2.0687  3.6513  1.4775
  172SAPE  H19S19435   5.277   5.243   4.209  0.0292 -0.0716 -1.1828
  172SAPE  C22019436   5.079   5.179   4.264 -0.6790 -0.6977  0.5978
  172SAPE  H20R19437   4.978   5.158   4.223 -0.5771  0.3384 -0.2358
  172SAPE  H20S19438   5.058   5.272   4.322  1.1802  0.3089 -0.2463
  172SAPE  H20T19439   5.109   5.101   4.337 -1.7555 -0.5940  1.1691
  172SAPE   C3319440   4.931   5.560   3.089 -0.2461  0.5968 -0.0729
  172SAPE   H3X19441   4.892   5.458   3.108 -1.5961  0.7674 -1.6572
  172SAPE   H3Y19442   4.847   5.632   3.104  0.3504  1.3760 -0.4053
  172SAPE   C3419443   5.051   5.584   3.183  0.8368 -0.3540 -0.2602
  172SAPE   H4X19444   5.099   5.679   3.152 -0.4300  0.1104 -0.8734
  172SAPE   H4Y19445   5.122   5.500   3.172 -0.5425 -1.6473  0.3307
  172SAPE   C3519446   5.022   5.607   3.335 -0.0470 -0.5327 -0.2676
  172SAPE   H5X19447   4.943   5.683   3.351  0.6630 -0.1634  1.8683
  172SAPE   H5Y19448   5.119   5.642   3.376  0.2736 -1.2010 -0.4477
  172SAPE   C3619449   4.969   5.481   3.402  0.1247  0.0931  0.2482
  172SAPE   H6X19450   5.050   5.406   3.390 -0.2430 -0.1574 -0.8102
  172SAPE   H6Y19451   4.876   5.451   3.349 -0.0562  2.0320 -0.6117
  172SAPE   C3719452   4.928   5.500   3.547  0.3416 -0.4539  0.0598
  172SAPE   H7X19453   4.884   5.406   3.585 -1.8587  0.4942  0.0189
  172SAPE   H7Y19454   4.842   5.568   3.567 -0.3042 -0.5542 -2.1105
  172SAPE   C3819455   5.040   5.537   3.641  0.6737 -0.1840  0.2958
  172SAPE   H8X19456   5.089   5.633   3.615  2.0516 -1.3008 -1.4176
  172SAPE   H8Y19457   5.102   5.445   3.634  1.2666  0.3457 -3.0075
  172SAPE   C3919458   4.996   5.561   3.785  0.2286  0.7340  0.5882
  172SAPE   H9X19459   4.963   5.465   3.829  0.9353 -0.4938 -1.4252
  172SAPE   H9Y19460   4.899   5.615   3.773  0.7908  1.7256  0.3812
  172SAPE  C31019461   5.107   5.619   3.870 -0.8965  0.8304  0.5689
  172SAPE  H10X19462   5.104   5.730   3.877  1.8778  1.2002 -1.9103
  172SAPE  H10Y19463   5.202   5.583   3.826 -1.6967  0.2565 -0.7402
  172SAPE  C31119464   5.095   5.573   4.011 -0.1126  0.5829 -0.9105
  172SAPE  H11X19465   5.181   5.591   4.079 -1.0399 -0.2187  0.5404
  172SAPE  H11Y19466   5.100   5.462   4.020  0.3419  0.4879 -2.2257
  172SAPE  C31219467   4.977   5.633   4.086  0.0969 -0.6523 -0.0943
  172SAPE  H12X19468   4.880   5.622   4.031 -0.8597  0.6952  1.2365
  172SAPE  H12Y19469   4.982   5.744   4.092  0.0161 -0.7078  1.2583
  172SAPE  C31319470   4.944   5.578   4.229  0.8003  0.2943  0.1142
  172SAPE  H13X19471   5.035   5.592   4.291  0.4308 -1.7393  1.2166
  172SAPE  H13Y19472   4.937   5.467   4.236  3.7022 -0.0222 -0.4184
  172SAPE  C31419473   4.836   5.660   4.292  0.5372 -0.1705 -0.4277
  172SAPE  H14X19474   4.748   5.661   4.225 -1.5591 -3.0459  2.0070
  172SAPE  H14Y19475   4.881   5.761   4.300 -0.7665  0.4383 -0.5477
  172SAPE  C31519476   4.798   5.618   4.434 -0.0100  0.6722 -0.2487
  172SAPE  H15X19477   4.880   5.602   4.506 -0.5751  3.0211  1.0060
  172SAPE  H15Y19478   4.751   5.519   4.415 -0.1827  0.2694  2.0249
  172SAPE  C31619479   4.694   5.707   4.499 -0.5190  0.1685  0.4095
  172SAPE  H16X19480   4.600   5.693   4.442 -0.8281  1.1487  0.6573
  172SAPE  H16Y19481   4.738   5.809   4.491 -0.8115  0.2413 -0.3599
  172SAPE  C31719482   4.669   5.668   4.644  0.2194  0.3749 -0.1468
  172SAPE  H17X19483   4.612   5.754   4.683  0.3306  0.5269 -0.3157
  172SAPE  H17Y19484   4.768   5.651   4.692  0.8328 -1.3112 -1.8800
  172SAPE  C31819485   4.579   5.549   4.667  0.0448  1.0762 -0.0813
  172SAPE  H18X19486   4.632   5.451   4.663  0.8995  1.5271 -0.0558
  172SAPE  H18Y19487   4.499   5.541   4.591 -2.4783  0.2211  2.4923
  172SAPE  H18Z19488   4.539   5.544   4.770  0.1481  0.3470 -0.0706
  173SLPC     N19489   6.292   0.678   6.983  0.4939 -0.4308 -0.5287
  173SLPC   C1319490   6.416   0.658   6.895  1.0774  0.2501  0.3003
  173SLPC  H13A19491   6.407   0.570   6.833 -0.4147  2.1244 -2.3682
  173SLPC  H13B19492   6.431   0.736   6.822  2.8854 -0.9698 -0.7016
  173SLPC  H13C19493   6.502   0.653   6.960  3.0432 -1.2312 -2.2240
  173SLPC   C1419494   6.318   0.805   7.069  0.0973 -0.8198 -0.2039
  173SLPC  H14A19495   6.329   0.893   7.008  0.2129 -1.5591 -1.2962
  173SLPC  H14B19496   6.238   0.822   7.139  0.2991 -0.9149  0.0503
  173SLPC  H14C19497   6.413   0.805   7.120  0.2921  0.1702 -0.5486
  173SLPC   C1519498   6.289   0.563   7.079 -0.1455 -0.7188 -0.6465
  173SLPC  H15A19499   6.273   0.469   7.028  0.2151 -0.1216 -1.9084
  173SLPC  H15B19500   6.382   0.557   7.133 -0.6319  0.4167  0.3812
  173SLPC  H15C19501   6.213   0.586   7.152  0.3122  0.2464 -0.4549
  173SLPC   C1219502   6.163   0.694   6.903  0.4032  0.3311 -0.1529
  173SLPC  H12A19503   6.155   0.798   6.877 -0.1389  0.9719  2.2558
  173SLPC  H12B19504   6.079   0.675   6.968 -0.3878 -1.3782 -1.6173
  173SLPC   C1119505   6.139   0.610   6.773 -0.1285  0.1526 -0.4603
  173SLPC  H11A19506   6.212   0.642   6.696  1.4851 -0.9430  0.5609
  173SLPC  H11B19507   6.040   0.638   6.732 -1.6869 -0.5852  2.4881
  173SLPC     P19508   6.039   0.375   6.850  0.2155 -0.2021  0.1748
  173SLPC   O1319509   6.102   0.250   6.897 -0.1701 -0.0018  0.1202
  173SLPC   O1419510   5.963   0.456   6.945  0.1514  0.1563 -0.2364
  173SLPC   O1219511   6.153   0.467   6.796 -0.1754  0.0055 -0.1724
  173SLPC   O1119512   5.955   0.344   6.723  0.3091  0.3654 -0.3029
  173SLPC    C119513   6.012   0.308   6.602 -0.4221  0.3983 -0.5391
  173SLPC    HA19514   6.122   0.294   6.602 -0.3555  0.9182 -0.3300
  173SLPC    HB19515   5.968   0.210   6.572 -0.3560  0.8057 -2.0686
  173SLPC    C219516   5.957   0.400   6.497  0.8662  0.4831  0.3161
  173SLPC    HS19517   6.005   0.495   6.529  2.6561  0.3493 -1.7417
  173SLPC   O2119518   5.813   0.390   6.498  0.8539 -0.5545  0.4951
  173SLPC   C2119519   5.745   0.502   6.503  0.4038 -0.4140  0.8007
  173SLPC   O2219520   5.796   0.616   6.507 -0.2235 -0.1593  0.1209
  173SLPC   C2219521   5.590   0.478   6.497 -0.2482  0.0819  0.2615
  173SLPC   H2R19522   5.569   0.369   6.490  1.1766 -0.1697 -0.7762
  173SLPC   H2S19523   5.541   0.521   6.586 -0.9517 -2.1684  1.0284
  173SLPC    C319524   6.017   0.376   6.356 -0.3332 -0.0587  0.0042
  173SLPC    HX19525   6.002   0.269   6.330  1.2284 -0.4351  0.5662
  173SLPC    HY19526   6.127   0.381   6.364 -0.4966  0.4348  3.8035
  173SLPC   O3119527   5.960   0.458   6.249 -0.4365  0.4301  0.0241
  173SLPC   C3119528   6.012   0.579   6.246 -0.8924  0.9745 -0.3041
  173SLPC   O3219529   6.117   0.609   6.305 -0.4748 -0.2635 -0.7558
  173SLPC   C3219530   5.916   0.664   6.158  0.1637 -0.2710 -0.2433
  173SLPC   H2X19531   5.837   0.710   6.221 -0.5129  0.5197 -1.6073
  173SLPC   H2Y19532   5.867   0.603   6.078 -1.8749 -1.5084  1.8059
  173SLPC   C2319533   5.529   0.528   6.367  0.1914 -0.2069 -0.2695
  173SLPC   H3R19534   5.538   0.639   6.363  0.0814 -0.2269 -1.4461
  173SLPC   H3S19535   5.420   0.505   6.369  0.1988 -0.5223 -1.9327
  173SLPC   C2419536   5.593   0.469   6.237 -0.1763 -0.3289  0.0228
  173SLPC   H4R19537   5.611   0.360   6.248 -1.9497 -0.5363  1.2023
  173SLPC   H4S19538   5.694   0.511   6.218  0.7561 -2.1567  0.6707
  173SLPC   C2519539   5.502   0.479   6.114 -0.0433 -0.6805  0.1985
  173SLPC   H5R19540   5.494   0.588   6.092  0.1548 -1.0435 -1.8882
  173SLPC   H5S19541   5.395   0.451   6.124  0.3427 -1.4403  3.3228
  173SLPC   C2619542   5.557   0.404   5.989 -0.5447  0.2534 -1.0008
  173SLPC   H6R19543   5.537   0.296   6.010 -3.3974  0.9373  0.1802
  173SLPC   H6S19544   5.668   0.409   5.981  0.0577 -2.8860  2.4801
  173SLPC   C2719545   5.488   0.461   5.869  0.6192 -0.4936 -0.2390
  173SLPC   H7R19546   5.509   0.569   5.855  0.1414 -0.5430 -1.5182
  173SLPC   H7S19547   5.379   0.443   5.883  0.7611 -4.0566 -2.4017
  173SLPC   C2819548   5.514   0.394   5.737 -0.1633  0.0497 -0.1195
  173SLPC   H8R19549   5.620   0.419   5.717 -0.3186  4.0990  2.7317
  173SLPC   H8S19550   5.457   0.458   5.665  1.6850  1.9137 -0.0398
  173SLPC   C2919551   5.478   0.246   5.728 -0.1107 -0.3449  0.6799
  173SLPC   H9R19552   5.412   0.217   5.811  1.3331  1.0315  2.4095
  173SLPC  C21019553   5.518   0.165   5.627  0.5601  0.5831  0.2350
  173SLPC  H10R19554   5.484   0.061   5.616 -0.8498  1.0225  0.2445
  173SLPC  C21119555   5.593   0.227   5.511 -0.4831  0.8399 -0.6388
  173SLPC  H11R19556   5.663   0.147   5.479 -1.2781 -0.5727  0.9545
  173SLPC  H11S19557   5.665   0.305   5.544  0.9965 -0.1097 -1.4850
  173SLPC  C21219558   5.510   0.288   5.399  0.1358 -0.0707 -0.1632
  173SLPC  H12R19559   5.424   0.346   5.437  1.4444  0.7971  1.6420
  173SLPC  C21319560   5.537   0.296   5.268  0.0406  0.2430  0.4630
  173SLPC  H13R19561   5.456   0.336   5.204  0.1282 -1.6810 -0.9552
  173SLPC  C21419562   5.646   0.231   5.184 -0.2036  0.4875  0.0046
  173SLPC  H14R19563   5.729   0.204   5.254 -0.0070 -1.0613 -0.7899
  173SLPC  H14S19564   5.688   0.304   5.112  0.3320 -0.4090 -0.6275
  173SLPC  C21519565   5.591   0.110   5.109  0.0587 -0.3285 -0.4221
  173SLPC  H15R19566   5.547   0.042   5.185  1.4196 -0.4827  0.2599
  173SLPC  H15S19567   5.679   0.060   5.063  0.8495  0.5195  0.1351
  173SLPC  C21619568   5.489   0.135   5.002  0.1300  0.4310 -0.2743
  173SLPC  H16R19569   5.397   0.172   5.053  1.5377 -0.6967  3.3817
  173SLPC  H16S19570   5.449   0.044   4.951 -1.4504  1.9378 -1.8683
  173SLPC  C21719571   5.543   0.235   4.893  1.2158  0.4587 -0.5502
  173SLPC  H17R19572   5.626   0.184   4.839 -0.0690 -0.9931 -1.2390
  173SLPC  H17S19573   5.584   0.323   4.947  0.4915 -1.0257  2.6048
  173SLPC  C21819574   5.439   0.286   4.787 -1.1216 -0.0849  0.2211
  173SLPC  H18R19575   5.350   0.344   4.821  0.6934  1.3775  2.8112
  173SLPC  H18S19576   5.420   0.197   4.723  1.8424  1.2597 -2.7760
  173SLPC  H18T19577   5.500   0.344   4.715 -1.8324 -0.4904 -0.7279
  173SLPC   C3319578   5.984   0.778   6.088  0.0837 -0.4418  0.4261
  173SLPC   H3X19579   6.081   0.738   6.052  0.6562 -0.4303  1.8911
  173SLPC   H3Y19580   6.010   0.861   6.158  0.7713  1.1499 -1.5997
  173SLPC   C3419581   5.901   0.838   5.972  0.4804 -0.0230  0.3235
  173SLPC   H4X19582   5.971   0.897   5.909  0.6465 -1.2632 -0.6939
  173SLPC   H4Y19583   5.814   0.901   6.001 -0.0011 -0.1680 -0.7626
  173SLPC   C3519584   5.835   0.741   5.863  0.0590 -0.7175  0.1810
  173SLPC   H5X19585   5.744   0.697   5.909 -0.5777  0.5577  0.1834
  173SLPC   H5Y19586   5.907   0.662   5.832 -0.3537 -0.3931 -1.7001
  173SLPC   C3619587   5.789   0.809   5.739  0.0079  0.0704 -0.2427
  173SLPC   H6X19588   5.886   0.838   5.694 -0.0487 -1.9428 -1.8013
  173SLPC   H6Y19589   5.727   0.900   5.755 -0.8309 -0.5864  0.3384
  173SLPC   C3719590   5.705   0.724   5.644 -0.1750 -0.4649  0.0185
  173SLPC   H7X19591   5.602   0.697   5.676 -0.0585 -0.9291  0.0159
  173SLPC   H7Y19592   5.757   0.627   5.630  0.5439 -0.2583  1.1747
  173SLPC   C3819593   5.704   0.809   5.513 -0.1099  0.2715  0.1439
  173SLPC   H8X19594   5.806   0.850   5.495  1.6414 -2.8788  2.0400
  173SLPC   H8Y19595   5.628   0.889   5.522 -0.9176 -0.2009 -1.8060
  173SLPC   C3919596   5.661   0.708   5.398 -0.2821  0.7724  0.5447
  173SLPC   H9X19597   5.553   0.684   5.406 -0.1705  0.1159  0.1358
  173SLPC   H9Y19598   5.710   0.610   5.417 -2.9073 -0.4429  1.4189
  173SLPC  C31019599   5.701   0.754   5.249  0.3303  0.2884  0.3164
  173SLPC  H10X19600   5.812   0.762   5.255  0.2922  0.8709  0.2744
  173SLPC  H10Y19601   5.663   0.858   5.236 -0.0460  0.3215  1.5857
  173SLPC  C31119602   5.649   0.658   5.141  0.0564 -0.0359 -0.0218
  173SLPC  H11X19603   5.630   0.553   5.174  1.3036 -0.6780 -1.2342
  173SLPC  H11Y19604   5.717   0.651   5.053 -0.0352  0.1410 -0.1066
  173SLPC  C31219605   5.515   0.712   5.096  0.6321  0.4670  0.7471
  173SLPC  H12X19606   5.515   0.816   5.056  0.6146 -0.1651 -0.9538
  173SLPC  H12Y19607   5.443   0.707   5.180 -1.3487  0.5310 -0.8662
  173SLPC  C31319608   5.463   0.634   4.982  1.2434 -0.1064 -0.3625
  173SLPC  H13X19609   5.352   0.635   4.993  1.0225  2.1936 -1.9630
  173SLPC  H13Y19610   5.494   0.528   4.992 -0.6042 -0.8920 -2.1197
  173SLPC  C31419611   5.480   0.676   4.836  0.2003  0.2950  0.7050
  173SLPC  H14X19612   5.427   0.771   4.811 -0.2748  0.1221  1.0541
  173SLPC  H14Y19613   5.426   0.597   4.779 -3.7057  1.6737  2.1388
  173SLPC  C31519614   5.628   0.678   4.794 -0.0322 -0.2007 -0.2332
  173SLPC  H15X19615   5.681   0.594   4.844 -0.8072 -0.6232 -0.0916
  173SLPC  H15Y19616   5.664   0.770   4.845 -1.8751  0.4040  0.0554
  173SLPC  C31619617   5.639   0.684   4.641 -0.3795  0.0900 -0.2247
  173SLPC  H16X19618   5.602   0.589   4.596 -1.4913 -0.8960  2.5778
  173SLPC  H16Y19619   5.747   0.698   4.615 -0.2290  2.9065  1.5029
  173SLPC  C31719620   5.574   0.803   4.571  0.8079  0.8904 -0.0131
  173SLPC  H17X19621   5.593   0.898   4.626  0.7980  0.5666  0.5601
  173SLPC  H17Y19622   5.464   0.790   4.584  0.3305  2.7893 -1.6386
  173SLPC  C31819623   5.594   0.827   4.419 -0.3180 -0.1016  0.1461
  173SLPC  H18X19624   5.528   0.915   4.404  0.1379 -0.0973 -2.1169
  173SLPC  H18Y19625   5.551   0.747   4.356  0.8207  0.4668 -1.4132
  173SLPC  H18Z19626   5.699   0.844   4.386  0.6384 -1.6335  2.1422
  174SLPC     N19627   1.197   1.537   7.288 -0.7170 -0.0011  0.0366
  174SLPC   C1319628   1.163   1.660   7.368  0.1731 -0.2695 -0.4132
  174SLPC  H13A19629   1.192   1.648   7.471 -0.6396 -1.1837 -0.2671
  174SLPC  H13B19630   1.203   1.745   7.315  1.0244 -0.9127 -0.8148
  174SLPC  H13C19631   1.056   1.676   7.375  0.4420  1.0359  1.6563
  174SLPC   C1419632   1.140   1.552   7.150 -0.1427 -0.9471  0.5315
  174SLPC  H14A19633   1.116   1.463   7.093 -1.9777 -0.7161  0.8745
  174SLPC  H14B19634   1.047   1.607   7.155 -0.4146 -1.3740  0.2079
  174SLPC  H14C19635   1.203   1.622   7.095 -0.0813 -0.4611  1.2109
  174SLPC   C1519636   1.128   1.418   7.351  0.0082  0.6351 -0.2316
  174SLPC  H15A19637   1.023   1.438   7.361  0.2476  1.4828  0.7418
  174SLPC  H15B19638   1.138   1.337   7.281 -0.7191  0.6840 -0.3946
  174SLPC  H15C19639   1.158   1.387   7.451  1.9304  0.8869 -0.6914
  174SLPC   C1219640   1.350   1.516   7.275  0.0755 -0.0036 -0.0603
  174SLPC  H12A19641   1.363   1.432   7.209  1.9845 -0.5174  0.8959
  174SLPC  H12B19642   1.391   1.487   7.371 -1.4626 -1.3977  0.2158
  174SLPC   C1119643   1.439   1.639   7.227  1.1694  0.7833  0.6065
  174SLPC  H11A19644   1.539   1.597   7.251  0.2938 -0.4615  2.3891
  174SLPC  H11B19645   1.430   1.731   7.289  0.3257  0.7716  0.5189
  174SLPC     P19646   1.483   1.586   6.971 -0.1311 -0.1124 -0.0860
  174SLPC   O1319647   1.567   1.683   6.894 -0.2438 -0.0426  0.7055
  174SLPC   O1419648   1.537   1.457   7.018 -0.0157 -0.1616  0.1453
  174SLPC   O1219649   1.415   1.669   7.084  0.0783  0.2654  0.2354
  174SLPC   O1119650   1.365   1.552   6.871  0.2770  0.5240  0.6750
  174SLPC    C119651   1.252   1.629   6.835 -0.6857 -0.6223 -0.0604
  174SLPC    HA19652   1.163   1.610   6.899  0.9705  0.2741  2.7097
  174SLPC    HB19653   1.271   1.736   6.856 -1.3471 -0.5177  0.0281
  174SLPC    C219654   1.202   1.606   6.695 -0.4110  0.2115  0.2704
  174SLPC    HS19655   1.296   1.611   6.636  0.3981 -1.3892  1.3628
  174SLPC   O2119656   1.105   1.702   6.649 -0.7131  0.0029  0.1585
  174SLPC   C2119657   1.144   1.826   6.625  0.5950  0.9500  0.3640
  174SLPC   O2219658   1.250   1.876   6.657  0.1401  0.0515 -0.3912
  174SLPC   C2219659   1.028   1.897   6.556  0.1407 -0.2667  0.4075
  174SLPC   H2R19660   0.943   1.859   6.616  0.6168 -2.2222 -0.0980
  174SLPC   H2S19661   1.050   2.006   6.568  0.5417 -0.4663  1.6867
  174SLPC    C319662   1.138   1.467   6.679  0.0125  0.1286  1.1051
  174SLPC    HX19663   1.039   1.458   6.727  0.6351 -2.4262  2.1253
  174SLPC    HY19664   1.207   1.393   6.726 -0.4041 -1.6976 -1.0029
  174SLPC   O3119665   1.132   1.431   6.535  0.6421  0.0613  0.0480
  174SLPC   C3119666   1.057   1.325   6.500 -0.0450  0.2417 -0.4461
  174SLPC   O3219667   1.001   1.250   6.576 -0.1940 -0.2916 -0.2605
  174SLPC   C3219668   1.046   1.322   6.346 -0.2120  0.7890  0.5512
  174SLPC   H2X19669   1.150   1.333   6.309 -0.5288  3.4538  0.2582
  174SLPC   H2Y19670   0.998   1.420   6.323 -1.5275 -0.1579 -0.9435
  174SLPC   C2319671   1.001   1.870   6.400  0.1741 -0.0742 -0.7818
  174SLPC   H3R19672   0.908   1.921   6.366  0.8488  0.6337 -1.5838
  174SLPC   H3S19673   0.999   1.759   6.398  1.0533 -0.3457  3.2757
  174SLPC   C2419674   1.119   1.908   6.306  0.1139  0.1917 -0.6290
  174SLPC   H4R19675   1.195   1.829   6.324  0.1010  0.2297 -0.4050
  174SLPC   H4S19676   1.153   2.012   6.323 -1.3223  0.7768 -1.1449
  174SLPC   C2519677   1.077   1.884   6.163 -0.3515  0.1950 -0.0111
  174SLPC   H5R19678   0.982   1.927   6.126 -0.2447 -1.4624 -2.4792
  174SLPC   H5S19679   1.078   1.774   6.143  1.4047  0.4232 -1.4679
  174SLPC   C2619680   1.194   1.944   6.069 -0.1015  0.8187  0.0341
  174SLPC   H6R19681   1.272   1.968   6.144 -1.0123  0.5177  1.1025
  174SLPC   H6S19682   1.166   2.038   6.017 -0.0593  1.0651  0.4632
  174SLPC   C2719683   1.257   1.841   5.974 -0.0923 -0.2418 -0.4186
  174SLPC   H7R19684   1.179   1.812   5.901 -1.2607 -1.0845  1.1109
  174SLPC   H7S19685   1.295   1.753   6.031 -1.2347  0.2943  1.2424
  174SLPC   C2819686   1.377   1.894   5.888 -0.2634  0.5618  0.0291
  174SLPC   H8R19687   1.415   1.811   5.825 -0.6565 -1.4698  2.3054
  174SLPC   H8S19688   1.457   1.909   5.965 -0.6930 -0.1215  0.6197
  174SLPC   C2919689   1.367   2.034   5.827  0.3025 -0.0063  0.0995
  174SLPC   H9R19690   1.345   2.113   5.901  0.1408  0.1327 -0.0986
  174SLPC  C21019691   1.353   2.073   5.701 -0.2131  0.7241  0.7385
  174SLPC  H10R19692   1.358   2.180   5.677  1.0319  0.5177 -0.0369
  174SLPC  C21119693   1.360   1.977   5.582 -0.4674 -0.8069  0.4863
  174SLPC  H11R19694   1.267   1.979   5.521 -0.6143 -0.5506  0.7173
  174SLPC  H11S19695   1.384   1.871   5.605 -1.2028 -1.5201 -1.7834
  174SLPC  C21219696   1.485   2.009   5.499  0.5408  0.4974  0.3603
  174SLPC  H12R19697   1.582   1.963   5.524  2.2811  2.1853 -2.7411
  174SLPC  C21319698   1.492   2.090   5.390  0.5401  0.0942  0.8768
  174SLPC  H13R19699   1.593   2.094   5.349  0.1200  0.1418 -0.1858
  174SLPC  C21419700   1.384   2.176   5.316  0.3151 -0.0756 -0.5993
  174SLPC  H14R19701   1.383   2.282   5.351  0.2038  0.0840 -1.0762
  174SLPC  H14S19702   1.284   2.132   5.335 -0.0726  0.3672 -1.5281
  174SLPC  C21519703   1.391   2.176   5.161  0.2428 -0.2482 -0.8139
  174SLPC  H15R19704   1.491   2.205   5.124  0.8467 -0.6972  0.4143
  174SLPC  H15S19705   1.314   2.251   5.130 -0.1518 -0.2143  0.2047
  174SLPC  C21619706   1.354   2.042   5.110 -0.1511  0.7913  0.4302
  174SLPC  H16R19707   1.265   2.021   5.172  0.3469  2.7108  1.8846
  174SLPC  H16S19708   1.438   1.972   5.132 -2.2685 -2.1292 -0.1761
  174SLPC  C21719709   1.324   2.041   4.962  0.0162  0.4408  0.0692
  174SLPC  H17R19710   1.423   2.028   4.913  0.6199 -3.4630  1.8540
  174SLPC  H17S19711   1.276   2.136   4.933 -0.9565  0.0155  0.2389
  174SLPC  C21819712   1.240   1.914   4.920 -0.1283 -0.2273  0.3819
  174SLPC  H18R19713   1.303   1.823   4.916 -0.7230 -0.6737  0.9185
  174SLPC  H18S19714   1.182   1.922   4.825 -0.8909 -1.6261  0.7121
  174SLPC  H18T19715   1.162   1.897   4.997 -0.2295 -0.8370  0.1468
  174SLPC   C3319716   0.959   1.205   6.297  0.4405  0.0347  0.1694
  174SLPC   H3X19717   0.854   1.221   6.330  0.6681  0.8436  0.5430
  174SLPC   H3Y19718   0.999   1.108   6.334 -0.0614 -0.0221  0.5796
  174SLPC   C3419719   0.956   1.191   6.145  0.0369  0.1200 -0.1711
  174SLPC   H4X19720   1.029   1.114   6.113  1.1027  0.6298  0.9283
  174SLPC   H4Y19721   1.003   1.282   6.099  0.3772 -0.4657 -1.0134
  174SLPC   C3519722   0.817   1.157   6.094 -0.5141  0.5248  0.3352
  174SLPC   H5X19723   0.750   1.237   6.131 -1.1828 -0.5386  1.4904
  174SLPC   H5Y19724   0.790   1.069   6.157 -0.0342  0.2206  0.1235
  174SLPC   C3619725   0.787   1.138   5.943  0.1051 -0.1248 -0.0382
  174SLPC   H6X19726   0.687   1.089   5.938  0.9141 -1.8030 -0.5855
  174SLPC   H6Y19727   0.857   1.065   5.898  1.5790  1.3841 -0.2870
  174SLPC   C3719728   0.790   1.263   5.857 -0.1545 -0.9757  0.7710
  174SLPC   H7X19729   0.893   1.303   5.857 -0.8197  0.8343  0.7557
  174SLPC   H7Y19730   0.730   1.347   5.899  1.7781  0.2801  1.1326
  174SLPC   C3819731   0.753   1.243   5.704  0.1550  0.4983 -0.1579
  174SLPC   H8X19732   0.822   1.173   5.651 -0.7396  1.3872 -2.6247
  174SLPC   H8Y19733   0.771   1.343   5.659 -2.8230  1.9957  1.6526
  174SLPC   C3919734   0.611   1.200   5.688 -0.1622  0.4545  0.2747
  174SLPC   H9X19735   0.540   1.266   5.743 -1.1080 -0.5095  0.2515
  174SLPC   H9Y19736   0.595   1.094   5.718  0.5619  1.1061  3.3226
  174SLPC  C31019737   0.579   1.202   5.530  0.3793 -0.0565 -0.3522
  174SLPC  H10X19738   0.509   1.120   5.502  0.0702  0.2384 -0.4473
  174SLPC  H10Y19739   0.675   1.171   5.484 -0.4756 -0.6806 -1.7873
  174SLPC  C31119740   0.543   1.347   5.488 -0.0875 -0.0542 -0.1985
  174SLPC  H11X19741   0.625   1.423   5.491 -1.2610  1.2013  1.7282
  174SLPC  H11Y19742   0.462   1.384   5.553  0.7415 -0.6640  1.2454
  174SLPC  C31219743   0.501   1.340   5.341  0.4094 -0.3438 -0.0761
  174SLPC  H12X19744   0.430   1.255   5.334  1.4316 -1.3545  1.2158
  174SLPC  H12Y19745   0.591   1.325   5.276  0.4063 -0.9449  0.0497
  174SLPC  C31319746   0.425   1.467   5.296 -0.3654 -0.0022  0.0320
  174SLPC  H13X19747   0.488   1.556   5.313 -0.2359 -0.2763  1.1075
  174SLPC  H13Y19748   0.332   1.476   5.357 -1.2621 -0.6516 -1.1991
  174SLPC  C31419749   0.385   1.462   5.148 -0.4710  0.2225 -0.2591
  174SLPC  H14X19750   0.298   1.395   5.135  0.5239 -0.7977 -2.0291
  174SLPC  H14Y19751   0.464   1.425   5.078 -0.2171  2.1932 -1.0812
  174SLPC  C31519752   0.342   1.606   5.105  0.1113 -0.2457 -1.1749
  174SLPC  H15X19753   0.354   1.674   5.192 -1.1119  2.1037 -2.7177
  174SLPC  H15Y19754   0.244   1.601   5.053  0.3882 -1.5166 -1.6121
  174SLPC  C31619755   0.446   1.680   5.014 -0.1812  0.6985  0.2637
  174SLPC  H16X19756   0.452   1.615   4.924 -0.9789  0.5785  0.2927
  174SLPC  H16Y19757   0.549   1.684   5.056  1.0737 -0.9123 -2.3930
  174SLPC  C31719758   0.389   1.810   4.962 -0.0531  0.7656 -0.9207
  174SLPC  H17X19759   0.340   1.862   5.046  2.3339  0.7641  0.5823
  174SLPC  H17Y19760   0.299   1.778   4.906 -0.6631 -1.0412  0.9517
  174SLPC  C31819761   0.489   1.891   4.878 -0.5795 -0.2359 -0.4237
  174SLPC  H18X19762   0.559   1.834   4.813  0.1985  0.6532 -0.3861
  174SLPC  H18Y19763   0.554   1.943   4.952 -1.6881 -0.9835  1.1270
  174SLPC  H18Z19764   0.440   1.975   4.823  0.6672  1.3076  0.7193
  175SLPC     N19765   3.357   2.323   7.247 -0.5099 -0.0650  0.6979
  175SLPC   C1319766   3.232   2.296   7.323 -0.1692 -0.2562 -0.0637
  175SLPC  H13A19767   3.166   2.382   7.324  1.1143  0.7660  0.4953
  175SLPC  H13B19768   3.191   2.204   7.286  1.4623 -1.4503  0.9881
  175SLPC  H13C19769   3.243   2.286   7.430  0.2845 -1.6535 -0.2243
  175SLPC   C1419770   3.438   2.194   7.250 -0.4766 -0.3201 -0.5400
  175SLPC  H14A19771   3.536   2.198   7.203 -0.2796 -0.4293 -0.1472
  175SLPC  H14B19772   3.449   2.162   7.353  0.2933  0.6402 -0.3053
  175SLPC  H14C19773   3.389   2.113   7.200  0.8961 -1.1716 -0.5676
  175SLPC   C1519774   3.436   2.438   7.304 -0.6483 -0.7750  0.4358
  175SLPC  H15A19775   3.366   2.520   7.309 -1.2473 -1.3414  2.2678
  175SLPC  H15B19776   3.481   2.420   7.401 -0.2459 -0.5068  0.3047
  175SLPC  H15C19777   3.511   2.465   7.232  0.5647  0.6842  2.1548
  175SLPC   C1219778   3.324   2.354   7.105 -0.0732 -0.4028  0.8480
  175SLPC  H12A19779   3.284   2.263   7.061  2.1756 -2.7122  3.1753
  175SLPC  H12B19780   3.419   2.375   7.058 -1.6816  0.3806 -2.3580
  175SLPC   C1119781   3.237   2.482   7.075  0.4506 -0.1946 -0.5743
  175SLPC  H11A19782   3.281   2.569   7.127 -0.4191  1.4643 -2.4852
  175SLPC  H11B19783   3.130   2.470   7.102 -0.6640  3.1321 -2.8362
  175SLPC     P19784   3.152   2.415   6.840 -0.0783  0.4126  0.0331
  175SLPC   O1319785   3.191   2.273   6.830 -0.1771  0.5346 -0.2358
  175SLPC   O1419786   3.011   2.438   6.875  0.7922  1.2796  0.2849
  175SLPC   O1219787   3.244   2.499   6.935 -0.2584 -0.4958  0.0120
  175SLPC   O1119788   3.172   2.490   6.701  0.0483  0.5452 -0.3130
  175SLPC    C119789   3.304   2.513   6.654  0.2023 -0.3029 -0.0403
  175SLPC    HA19790   3.353   2.586   6.723 -0.3027 -0.1870  0.1998
  175SLPC    HB19791   3.358   2.416   6.646  2.2588  0.8334 -0.7486
  175SLPC    C219792   3.291   2.592   6.516 -0.6623  0.5230 -0.7847
  175SLPC    HS19793   3.205   2.657   6.542 -1.0350 -0.5180  0.7530
  175SLPC   O2119794   3.265   2.507   6.407  0.0172 -0.2715  0.0820
  175SLPC   C2119795   3.182   2.556   6.321  0.6129  0.3739 -1.0411
  175SLPC   O2219796   3.098   2.644   6.350  0.1864  0.6291  0.1937
  175SLPC   C2219797   3.193   2.494   6.182  0.3314  0.3628  0.3363
  175SLPC   H2R19798   3.161   2.389   6.192 -1.2018  0.8567  0.8964
  175SLPC   H2S19799   3.112   2.539   6.120 -0.3972 -0.7022  0.5038
  175SLPC    C319800   3.403   2.693   6.486 -0.0079  0.3776 -0.1804
  175SLPC    HX19801   3.493   2.640   6.449  2.0509  1.8465  2.4306
  175SLPC    HY19802   3.432   2.745   6.579  1.3718  0.9812 -0.9199
  175SLPC   O3119803   3.352   2.783   6.384  0.4195  0.0105 -0.6934
  175SLPC   C3119804   3.284   2.886   6.424 -0.6338 -0.5364 -0.0404
  175SLPC   O3219805   3.282   2.924   6.540  0.0492  0.2036 -0.1293
  175SLPC   C3219806   3.224   2.966   6.309  0.2711  0.4877 -0.0764
  175SLPC   H2X19807   3.119   2.981   6.342  0.1307  0.7221 -0.6180
  175SLPC   H2Y19808   3.233   2.895   6.224  3.3122  0.0842  0.4718
  175SLPC   C2319809   3.330   2.523   6.123  0.3074 -0.7822 -0.1744
  175SLPC   H3R19810   3.410   2.492   6.194  1.3030 -0.3061 -1.0592
  175SLPC   H3S19811   3.341   2.633   6.110 -0.1148 -0.5459  1.3120
  175SLPC   C2419812   3.355   2.455   5.990  0.4643 -0.2375  0.8497
  175SLPC   H4R19813   3.292   2.364   5.983  1.4168 -0.9506  1.2240
  175SLPC   H4S19814   3.463   2.428   5.981  0.1372 -1.2555 -0.2773
  175SLPC   C2519815   3.324   2.539   5.867 -0.1107 -0.3544 -0.5022
  175SLPC   H5R19816   3.408   2.611   5.859 -1.3703  1.4822  1.5638
  175SLPC   H5S19817   3.239   2.604   5.898  0.0609 -0.9061  1.2495
  175SLPC   C2619818   3.293   2.460   5.743 -0.6980 -0.8513  0.5159
  175SLPC   H6R19819   3.195   2.411   5.758 -3.0313  3.0874 -0.5108
  175SLPC   H6S19820   3.367   2.377   5.738  1.7994  1.2403  0.0117
  175SLPC   C2719821   3.303   2.543   5.617  1.1176  0.4208  0.0772
  175SLPC   H7R19822   3.239   2.633   5.625  1.1084  0.3095  1.5701
  175SLPC   H7S19823   3.248   2.476   5.547 -1.4506  1.8817  0.5547
  175SLPC   C2819824   3.445   2.586   5.566  0.0863 -0.5605  0.1186
  175SLPC   H8R19825   3.505   2.655   5.628 -0.3784  1.2641 -1.3933
  175SLPC   H8S19826   3.422   2.647   5.476  0.9012  0.2904  0.4748
  175SLPC   C2919827   3.525   2.460   5.522  0.1861 -0.4819 -0.1413
  175SLPC   H9R19828   3.551   2.394   5.606  0.3369 -0.3918 -0.1183
  175SLPC  C21019829   3.554   2.424   5.391  0.0954 -0.2539  0.0143
  175SLPC  H10R19830   3.587   2.323   5.362 -1.5954 -0.3893 -1.6401
  175SLPC  C21119831   3.518   2.500   5.264 -0.6559 -0.0148  0.0261
  175SLPC  H11R19832   3.609   2.539   5.215  0.2835 -1.0754  0.8778
  175SLPC  H11S19833   3.451   2.584   5.292 -1.4876 -1.1994  1.7880
  175SLPC  C21219834   3.443   2.406   5.168 -0.6944  0.2725  0.6123
  175SLPC  H12R19835   3.379   2.324   5.203 -0.6220 -0.1825 -0.2701
  175SLPC  C21319836   3.458   2.425   5.034  0.5291 -0.2830 -0.7161
  175SLPC  H13R19837   3.429   2.344   4.966 -3.1819 -0.4809  0.8962
  175SLPC  C21419838   3.534   2.528   4.964 -0.2016 -0.4598 -0.2083
  175SLPC  H14R19839   3.551   2.626   5.015  0.5718  1.0584 -3.1240
  175SLPC  H14S19840   3.488   2.552   4.866 -0.1686  0.5214  0.0003
  175SLPC  C21519841   3.675   2.489   4.917 -0.2484  0.3859  0.2337
  175SLPC  H15R19842   3.709   2.414   4.992  0.2342  1.0827  0.7261
  175SLPC  H15S19843   3.751   2.570   4.918  0.7173 -0.4339 -1.4926
  175SLPC  C21619844   3.674   2.442   4.768  0.2608 -0.4007  0.3399
  175SLPC  H16R19845   3.779   2.436   4.731  0.8493  0.2142  1.8315
  175SLPC  H16S19846   3.626   2.518   4.703  1.7613  0.9092  0.6887
  175SLPC  C21719847   3.604   2.309   4.757 -0.2293  0.0170  0.1291
  175SLPC  H17R19848   3.499   2.299   4.792  0.1696 -0.7707  1.1368
  175SLPC  H17S19849   3.656   2.229   4.813  0.5644 -1.8638 -3.0503
  175SLPC  C21819850   3.611   2.261   4.610 -0.6348  0.3412  0.4692
  175SLPC  H18R19851   3.714   2.279   4.574  0.5907 -2.0686  2.4234
  175SLPC  H18S19852   3.536   2.322   4.555  0.2259 -0.6580 -1.9357
  175SLPC  H18T19853   3.583   2.153   4.603 -2.0066  0.6413  0.9926
  175SLPC   C3319854   3.293   3.108   6.275  0.6535  0.2815  0.0084
  175SLPC   H3X19855   3.324   3.162   6.368 -0.4747 -0.4960  0.8630
  175SLPC   H3Y19856   3.214   3.169   6.227 -0.7194 -2.1820 -1.0202
  175SLPC   C3419857   3.398   3.095   6.168  0.3364 -0.2341 -0.4004
  175SLPC   H4X19858   3.472   3.019   6.200  0.9456  0.0796 -1.0313
  175SLPC   H4Y19859   3.453   3.192   6.175  0.3346 -0.3584  2.5962
  175SLPC   C3519860   3.342   3.068   6.030  0.9506  1.0761  0.6516
  175SLPC   H5X19861   3.292   3.164   6.003  0.3328  0.6349  0.2136
  175SLPC   H5Y19862   3.263   2.989   6.031 -0.6742  2.6256  1.4007
  175SLPC   C3619863   3.440   3.025   5.918  0.1374 -0.1618  0.3293
  175SLPC   H6X19864   3.478   2.927   5.956  0.4875 -0.2739 -0.3043
  175SLPC   H6Y19865   3.523   3.098   5.906  1.1475 -1.5783 -1.9683
  175SLPC   C3719866   3.365   3.005   5.788  0.5349 -0.6406 -0.3009
  175SLPC   H7X19867   3.302   3.093   5.763  2.0853  0.1004 -1.7744
  175SLPC   H7Y19868   3.292   2.921   5.798 -0.6832  0.6038  2.1606
  175SLPC   C3819869   3.455   2.998   5.656  0.0426 -0.2298  0.1765
  175SLPC   H8X19870   3.520   2.909   5.671  0.6805  0.1436 -0.3413
  175SLPC   H8Y19871   3.515   3.092   5.664 -3.1496  1.8108  3.5552
  175SLPC   C3919872   3.390   2.990   5.514  0.1804  0.0902 -0.9943
  175SLPC   H9X19873   3.345   3.086   5.481 -1.0330  0.2048  0.8605
  175SLPC   H9Y19874   3.315   2.908   5.522 -2.2250  2.2603 -0.1789
  175SLPC  C31019875   3.497   2.963   5.413 -0.0084 -0.1289  0.0169
  175SLPC  H10X19876   3.551   2.866   5.426 -1.4342 -0.8445  0.8580
  175SLPC  H10Y19877   3.571   3.044   5.398 -0.5425  0.3213 -0.2074
  175SLPC  C31119878   3.431   2.942   5.270 -0.4219 -0.8374 -0.2977
  175SLPC  H11X19879   3.361   3.026   5.248 -0.8919 -1.2718 -0.4826
  175SLPC  H11Y19880   3.362   2.855   5.275 -2.8660  0.9697 -0.5665
  175SLPC  C31219881   3.540   2.935   5.172  0.1374  0.3921 -0.3958
  175SLPC  H12X19882   3.591   2.837   5.181 -0.8446 -0.1195 -0.2399
  175SLPC  H12Y19883   3.613   3.017   5.188  0.9295  0.0089 -1.8712
  175SLPC  C31319884   3.487   2.950   5.030  0.2502 -0.4600 -0.0488
  175SLPC  H13X19885   3.398   2.886   5.010 -1.0609  1.5363 -0.9582
  175SLPC  H13Y19886   3.560   2.923   4.951 -0.9402  0.5039 -1.5414
  175SLPC  C31419887   3.439   3.095   4.988 -0.5980 -0.5664  0.3419
  175SLPC  H14X19888   3.525   3.162   5.011 -0.2539 -0.7125 -0.4872
  175SLPC  H14Y19889   3.354   3.130   5.050  1.1068  0.3408  2.3030
  175SLPC  C31519890   3.401   3.096   4.838  0.3578 -0.2214 -0.3625
  175SLPC  H15X19891   3.305   3.043   4.819  0.3293 -0.7615  1.1230
  175SLPC  H15Y19892   3.484   3.048   4.783  0.3641 -0.5050 -0.1099
  175SLPC  C31619893   3.375   3.236   4.770 -0.4776  0.1276 -0.1312
  175SLPC  H16X19894   3.454   3.313   4.784  0.6784 -1.1745  0.8437
  175SLPC  H16Y19895   3.298   3.283   4.834 -0.3517  0.7806 -0.4446
  175SLPC  C31719896   3.343   3.220   4.627  0.0443  0.4746  0.8900
  175SLPC  H17X19897   3.255   3.153   4.613  0.2162 -0.1777  2.6634
  175SLPC  H17Y19898   3.431   3.171   4.581 -0.6511 -0.7286  0.7906
  175SLPC  C31819899   3.295   3.345   4.556 -0.5930 -0.0037 -0.2162
  175SLPC  H18X19900   3.363   3.433   4.560 -0.3185  0.0066 -3.2127
  175SLPC  H18Y19901   3.196   3.381   4.592 -0.8884 -0.6030 -0.4344
  175SLPC  H18Z19902   3.298   3.320   4.448 -0.8372 -1.7255  0.1496
  176SLPC     N19903   4.260   1.897   6.758 -0.3620  0.6058 -0.9827
  176SLPC   C1319904   4.134   1.981   6.764 -0.4466  0.2444  0.5298
  176SLPC  H13A19905   4.089   1.973   6.862  0.3327 -0.5630  0.8324
  176SLPC  H13B19906   4.159   2.083   6.735 -0.6381  0.6366  1.7017
  176SLPC  H13C19907   4.058   1.953   6.693 -0.5255 -0.8308  1.0194
  176SLPC   C1419908   4.222   1.751   6.776 -0.2398  0.1532  0.3019
  176SLPC  H14A19909   4.310   1.689   6.764  1.4936  2.4066  0.6000
  176SLPC  H14B19910   4.184   1.740   6.876  1.4118 -2.4025  0.7441
  176SLPC  H14C19911   4.159   1.718   6.695 -0.5286 -0.8994  0.9412
  176SLPC   C1519912   4.373   1.952   6.857  0.0447  0.2847  0.9287
  176SLPC  H15A19913   4.453   1.882   6.879 -1.0969 -1.1316  0.7282
  176SLPC  H15B19914   4.415   2.046   6.824  0.2528 -0.1402 -0.0609
  176SLPC  H15C19915   4.321   1.968   6.950 -0.0030  0.7822  0.8148
  176SLPC   C1219916   4.316   1.909   6.621 -0.0027  0.2997 -0.1944
  176SLPC  H12A19917   4.408   1.853   6.619  0.2783  0.7447  0.0343
  176SLPC  H12B19918   4.350   2.010   6.603 -0.6128  0.7664  1.1200
  176SLPC   C1119919   4.231   1.863   6.500 -0.1894  0.2410 -0.3008
  176SLPC  H11A19920   4.275   1.894   6.403 -1.0280 -0.1142 -0.8084
  176SLPC  H11B19921   4.133   1.916   6.504 -0.1835  0.4097 -1.7776
  176SLPC     P19922   4.310   1.627   6.421 -0.0805  0.4483 -0.0110
  176SLPC   O1319923   4.436   1.638   6.495  0.3124 -0.1565 -0.4040
  176SLPC   O1419924   4.252   1.490   6.407 -0.0187  0.7568 -0.3409
  176SLPC   O1219925   4.204   1.716   6.501 -0.4992  0.7055 -0.5253
  176SLPC   O1119926   4.334   1.693   6.282  0.2618  0.2202 -0.0663
  176SLPC    C119927   4.225   1.752   6.202  0.7978  0.4220 -0.3870
  176SLPC    HA19928   4.130   1.727   6.254  1.5992 -1.5110  0.2457
  176SLPC    HB19929   4.238   1.863   6.206  1.4826  0.4268 -2.0414
  176SLPC    C219930   4.230   1.708   6.052 -0.1842 -0.3249  0.2651
  176SLPC    HS19931   4.134   1.727   5.999  0.2320 -0.4567 -0.5602
  176SLPC   O2119932   4.272   1.576   6.031 -0.4310 -0.2828 -0.2464
  176SLPC   C2119933   4.186   1.486   6.075 -0.0389  0.1594 -0.6258
  176SLPC   O2219934   4.070   1.514   6.105 -0.1001 -0.0396 -0.7175
  176SLPC   C2219935   4.248   1.357   6.087  0.3889  0.6878 -0.1535
  176SLPC   H2R19936   4.321   1.344   6.005  1.7547 -0.0460  1.1236
  176SLPC   H2S19937   4.282   1.359   6.193  1.8023 -1.4347 -0.5128
  176SLPC    C319938   4.334   1.805   5.972  0.2264 -0.0235  0.6225
  176SLPC    HX19939   4.335   1.774   5.865  1.0472  0.5172  0.4633
  176SLPC    HY19940   4.432   1.774   6.014 -0.7226 -1.3490  1.9851
  176SLPC   O3119941   4.316   1.953   5.997  0.0956 -0.1595  0.2995
  176SLPC   C3119942   4.212   2.009   5.924  0.3319 -0.4759  0.2151
  176SLPC   O3219943   4.171   1.952   5.823  0.7144  0.2745 -0.0233
  176SLPC   C3219944   4.173   2.153   5.971  0.0341 -0.5624  0.3754
  176SLPC   H2X19945   4.253   2.224   5.941 -1.6606  0.7071 -1.3149
  176SLPC   H2Y19946   4.156   2.162   6.081 -2.3843  2.3138 -0.1217
  176SLPC   C2319947   4.145   1.240   6.083 -0.3852 -0.8927  0.0006
  176SLPC   H3R19948   4.082   1.236   5.991  1.2358 -2.6493 -1.1130
  176SLPC   H3S19949   4.086   1.234   6.177 -2.4788  0.1948 -1.1750
  176SLPC   C2419950   4.218   1.105   6.069 -0.6788 -0.3313  0.1866
  176SLPC   H4R19951   4.291   1.104   5.986  1.4707  1.8057  1.9150
  176SLPC   H4S19952   4.151   1.022   6.039  1.1213 -1.5077 -0.7136
  176SLPC   C2519953   4.286   1.071   6.202  0.0854 -0.2653  0.1430
  176SLPC   H5R19954   4.202   1.054   6.272  1.8766  2.7007  3.3726
  176SLPC   H5S19955   4.348   1.157   6.236  0.5838 -0.4072 -0.4017
  176SLPC   C2619956   4.392   0.947   6.201  0.2068 -0.3808  0.2700
  176SLPC   H6R19957   4.333   0.855   6.182 -0.2153 -0.1398  0.4179
  176SLPC   H6S19958   4.418   0.936   6.308  2.4168  0.6197 -0.0924
  176SLPC   C2719959   4.510   0.966   6.108  0.1097 -0.1019 -0.0209
  176SLPC   H7R19960   4.576   1.050   6.140 -0.6888  1.1720 -1.5711
  176SLPC   H7S19961   4.468   1.002   6.012  0.1421  3.5933  1.2119
  176SLPC   C2819962   4.593   0.842   6.086 -0.2469 -0.1506  0.2496
  176SLPC   H8R19963   4.528   0.771   6.030 -2.0758  3.4905 -2.7159
  176SLPC   H8S19964   4.615   0.797   6.185  1.0526 -1.9270 -0.7829
  176SLPC   C2919965   4.719   0.852   6.010  0.2185 -0.0872 -0.5241
  176SLPC   H9R19966   4.805   0.852   6.079 -1.0081  0.6005  1.0626
  176SLPC  C21019967   4.742   0.869   5.879 -0.2434 -0.3020  0.0677
  176SLPC  H10R19968   4.843   0.890   5.840 -0.2325  0.9886  0.7164
  176SLPC  C21119969   4.628   0.879   5.778 -0.3486 -0.3880 -0.2321
  176SLPC  H11R19970   4.532   0.839   5.819 -0.5751 -0.4153 -0.7888
  176SLPC  H11S19971   4.641   0.811   5.692  0.5794 -0.4116 -0.0867
  176SLPC  C21219972   4.594   1.025   5.739 -0.2287 -0.0107 -0.1369
  176SLPC  H12R19973   4.674   1.096   5.767  0.1980 -1.4103  2.4915
  176SLPC  C21319974   4.478   1.073   5.695 -0.0630  0.9075 -0.5315
  176SLPC  H13R19975   4.475   1.178   5.661  1.9909  0.7713 -1.2462
  176SLPC  C21419976   4.353   0.982   5.677  0.1305 -0.2029  0.1652
  176SLPC  H14R19977   4.353   0.917   5.766  0.5633  3.0128  2.7254
  176SLPC  H14S19978   4.357   0.912   5.591 -0.5498 -0.3031  0.2093
  176SLPC  C21519979   4.226   1.072   5.686 -0.1739 -0.3507 -0.7140
  176SLPC  H15R19980   4.220   1.125   5.783  0.4709 -0.3288 -0.6852
  176SLPC  H15S19981   4.145   0.996   5.686 -0.2862 -0.2367 -0.2543
  176SLPC  C21619982   4.209   1.181   5.577 -0.6964 -0.2137  0.1542
  176SLPC  H16R19983   4.200   1.122   5.484 -3.0245  0.1860  0.0436
  176SLPC  H16S19984   4.290   1.255   5.566 -0.3864 -0.5390  0.2448
  176SLPC  C21719985   4.080   1.263   5.594 -0.4786 -0.1880  0.0632
  176SLPC  H17R19986   4.072   1.291   5.701 -0.0080  1.1978 -0.2528
  176SLPC  H17S19987   4.000   1.189   5.571 -0.7465 -0.3736  1.4751
  176SLPC  C21819988   4.058   1.386   5.501  0.6724 -0.3686 -0.5855
  176SLPC  H18R19989   4.129   1.464   5.533  0.1321  0.1455 -0.6127
  176SLPC  H18S19990   3.951   1.416   5.514  0.4492 -1.9597  1.7343
  176SLPC  H18T19991   4.077   1.370   5.392 -0.1678  3.8013 -1.5036
  176SLPC   C3319992   4.049   2.194   5.892  0.3695  0.2202 -0.9676
  176SLPC   H3X19993   4.001   2.282   5.940  1.0126  1.4290 -2.4389
  176SLPC   H3Y19994   3.971   2.116   5.900 -0.9580  1.6314  0.5483
  176SLPC   C3419995   4.071   2.238   5.747  0.0298  1.1938  0.1190
  176SLPC   H4X19996   4.102   2.147   5.692 -1.0484 -0.2130  1.7344
  176SLPC   H4Y19997   4.155   2.311   5.749  1.1558 -0.0759  1.6144
  176SLPC   C3519998   3.944   2.289   5.688 -0.4145 -0.8233 -0.2646
  176SLPC   H5X19999   3.917   2.371   5.758 -0.0311  1.1060 -2.2765
  176SLPC   H5Y20000   3.864   2.213   5.700 -0.9253 -0.2657 -0.0969
  176SLPC   C3620001   3.966   2.334   5.542  0.2522 -0.1535 -0.5052
  176SLPC   H6X20002   4.028   2.426   5.550  2.8899 -1.5964 -2.8255
  176SLPC   H6Y20003   3.866   2.360   5.499 -0.4003 -1.3017  0.2519
  176SLPC   C3720004   4.027   2.235   5.446  0.1943 -0.0449 -1.0286
  176SLPC   H7X20005   3.975   2.138   5.460  2.4287 -1.0747  0.8383
  176SLPC   H7Y20006   4.135   2.218   5.465  0.0066 -1.8231 -1.3516
  176SLPC   C3820007   4.013   2.260   5.295 -0.3485  0.4904 -0.2567
  176SLPC   H8X20008   4.003   2.370   5.283 -2.0850  0.1021 -3.6219
  176SLPC   H8Y20009   3.917   2.209   5.269 -0.3788 -0.4465  1.5519
  176SLPC   C3920010   4.103   2.186   5.187 -0.1208  0.0167  0.0549
  176SLPC   H9X20011   4.096   2.075   5.196 -2.6413 -0.0996 -1.9883
  176SLPC   H9Y20012   4.207   2.221   5.201  0.4631 -1.9564  1.0338
  176SLPC  C31020013   4.065   2.213   5.041  0.4086 -0.1868 -0.2311
  176SLPC  H10X20014   3.956   2.200   5.023  1.1491 -2.2857 -4.4846
  176SLPC  H10Y20015   4.119   2.134   4.985  1.4062 -0.5626  1.2017
  176SLPC  C31120016   4.106   2.347   4.972  0.0542  0.6473  0.0675
  176SLPC  H11X20017   4.217   2.343   4.983  0.3056 -0.3897 -2.2774
  176SLPC  H11Y20018   4.058   2.437   5.017  0.5606  1.0251 -0.1277
  176SLPC  C31220019   4.073   2.343   4.822  0.8264 -0.5473  0.1115
  176SLPC  H12X20020   3.969   2.377   4.806  1.1544  1.7327  2.2078
  176SLPC  H12Y20021   4.089   2.243   4.774  0.0114 -0.5035 -0.2742
  176SLPC  C31320022   4.160   2.441   4.751 -0.5910 -0.1053 -0.4811
  176SLPC  H13X20023   4.135   2.447   4.643 -2.9326 -0.4226 -0.0137
  176SLPC  H13Y20024   4.264   2.405   4.761 -0.8876 -0.8730 -0.0443
  176SLPC  C31420025   4.144   2.583   4.803 -0.2903 -0.6805  0.1200
  176SLPC  H14X20026   4.202   2.602   4.896 -1.5497 -2.3394  1.3212
  176SLPC  H14Y20027   4.041   2.609   4.835  0.6784  2.4987  1.0871
  176SLPC  C31520028   4.167   2.690   4.694 -0.1234 -0.4449  0.2383
  176SLPC  H15X20029   4.129   2.790   4.727  1.7349  0.7102 -0.9338
  176SLPC  H15Y20030   4.110   2.665   4.601 -0.1064  2.0043 -0.5029
  176SLPC  C31620031   4.311   2.710   4.641  0.3839  0.2288  0.5053
  176SLPC  H16X20032   4.352   2.624   4.583 -0.1721  1.1169 -1.2502
  176SLPC  H16Y20033   4.371   2.709   4.735 -1.9183 -1.5171  2.0764
  176SLPC  C31720034   4.333   2.843   4.575  0.1184 -0.2031  0.1923
  176SLPC  H17X20035   4.440   2.845   4.545 -0.3911 -0.2169 -1.7705
  176SLPC  H17Y20036   4.336   2.924   4.650  1.2746  1.1610 -1.2565
  176SLPC  C31820037   4.236   2.883   4.465 -0.7122  0.4658 -0.1832
  176SLPC  H18X20038   4.265   2.979   4.417  1.1830  0.8848  1.6103
  176SLPC  H18Y20039   4.138   2.881   4.517 -0.3806 -0.2557  0.4382
  176SLPC  H18Z20040   4.220   2.806   4.386  0.7561 -0.8352  0.7222
  177SLPC     N20041   4.460   2.687   6.772  0.7447 -0.2048 -0.1349
  177SLPC   C1320042   4.351   2.724   6.867  0.2317  0.0654  0.1251
  177SLPC  H13A20043   4.391   2.714   6.967 -0.8518  1.3368  0.7151
  177SLPC  H13B20044   4.315   2.825   6.868 -0.2796 -0.1103 -0.2598
  177SLPC  H13C20045   4.257   2.673   6.847  1.2146 -1.3805 -1.0803
  177SLPC   C1420046   4.406   2.656   6.630  0.1175 -0.3773 -0.7570
  177SLPC  H14A20047   4.374   2.749   6.584  1.5322  1.2306  1.3336
  177SLPC  H14B20048   4.487   2.612   6.574  2.4590 -0.5155  2.4978
  177SLPC  H14C20049   4.328   2.582   6.641  1.5374 -1.6756  1.1779
  177SLPC   C1520050   4.528   2.563   6.813 -0.4439 -0.3569 -0.0035
  177SLPC  H15A20051   4.465   2.477   6.832  2.5099 -2.0999  3.0128
  177SLPC  H15B20052   4.605   2.529   6.745  2.0957  3.6669  0.5519
  177SLPC  H15C20053   4.593   2.579   6.898  2.2588 -2.4039 -1.5268
  177SLPC   C1220054   4.552   2.806   6.766  0.4682  0.1064  0.2966
  177SLPC  H12A20055   4.577   2.850   6.862  0.4746  2.3509 -0.6785
  177SLPC  H12B20056   4.492   2.879   6.714 -0.3541 -0.4534  0.4388
  177SLPC   C1120057   4.678   2.788   6.676 -0.6701  0.5102 -0.6922
  177SLPC  H11A20058   4.733   2.883   6.662  0.9164 -0.5099 -1.7182
  177SLPC  H11B20059   4.642   2.754   6.577  1.4112 -1.8856 -0.7297
  177SLPC     P20060   4.906   2.728   6.806 -0.1668 -0.0165 -0.2746
  177SLPC   O1320061   4.917   2.871   6.820  0.2285  0.6952  0.4160
  177SLPC   O1420062   4.925   2.648   6.928  0.2127  0.0312  0.7340
  177SLPC   O1220063   4.769   2.687   6.735 -0.3217  0.0800  0.7930
  177SLPC   O1120064   5.016   2.674   6.708  0.0902  0.5252  0.0524
  177SLPC    C120065   5.013   2.708   6.564 -0.4860 -0.7238 -0.5316
  177SLPC    HA20066   4.967   2.808   6.556 -0.0707 -0.4368  0.4769
  177SLPC    HB20067   5.121   2.723   6.543 -0.5193  0.0092 -0.2130
  177SLPC    C220068   4.937   2.609   6.472 -0.4679  0.5994 -0.0909
  177SLPC    HS20069   4.834   2.596   6.512 -1.3017  2.2543 -1.5431
  177SLPC   O2120070   5.013   2.489   6.470  0.2641  0.3781 -0.1426
  177SLPC   C2120071   4.955   2.386   6.518  0.5378  0.9803 -0.6558
  177SLPC   O2220072   4.840   2.374   6.555  0.5827 -0.7161  0.3959
  177SLPC   C2220073   5.054   2.272   6.533 -0.3764  0.0434 -1.2849
  177SLPC   H2R20074   5.145   2.290   6.472  1.6615  0.2561  1.5783
  177SLPC   H2S20075   5.093   2.261   6.637  2.4298 -1.9355 -2.4117
  177SLPC    C320076   4.938   2.651   6.322 -0.0242  0.2972 -0.7934
  177SLPC    HX20077   4.908   2.573   6.249 -2.1466 -0.3692  0.6995
  177SLPC    HY20078   5.047   2.658   6.298  0.9227 -2.0395  2.1887
  177SLPC   O3120079   4.870   2.773   6.298  0.3049  0.5345 -0.1375
  177SLPC   C3120080   4.738   2.770   6.313 -0.2026 -0.0055  0.0724
  177SLPC   O3220081   4.678   2.666   6.338 -0.0068 -0.5795  0.6782
  177SLPC   C3220082   4.686   2.904   6.275  0.2288 -0.3986  0.5000
  177SLPC   H2X20083   4.764   2.983   6.278 -0.0209 -0.1189 -0.1609
  177SLPC   H2Y20084   4.594   2.932   6.330 -0.4551 -1.6611  0.0475
  177SLPC   C2320085   4.987   2.144   6.499  0.4725  1.1365  0.3231
  177SLPC   H3R20086   4.906   2.098   6.561  1.0980  0.0501  0.3695
  177SLPC   H3S20087   5.062   2.063   6.509 -0.2954  0.3079 -0.3644
  177SLPC   C2420088   4.957   2.140   6.344 -0.2144  0.2445 -0.3798
  177SLPC   H4R20089   5.043   2.189   6.294  0.2735 -0.9690 -0.7628
  177SLPC   H4S20090   4.876   2.212   6.319  0.4605  2.3103  2.8129
  177SLPC   C2520091   4.930   1.999   6.288  0.1064  0.3865  1.0612
  177SLPC   H5R20092   4.831   1.965   6.324 -1.4907  1.7608 -1.7230
  177SLPC   H5S20093   4.999   1.921   6.328 -2.4058 -1.0655  2.8582
  177SLPC   C2620094   4.913   2.005   6.133  0.6666  0.4330  0.0866
  177SLPC   H6R20095   4.888   1.908   6.086  0.4645  0.2549  0.5525
  177SLPC   H6S20096   5.010   2.028   6.084  0.3175 -3.5702 -3.0595
  177SLPC   C2720097   4.804   2.092   6.088 -0.2638 -0.5172  0.0336
  177SLPC   H7R20098   4.812   2.198   6.119 -0.9982 -0.5286  0.2891
  177SLPC   H7S20099   4.716   2.056   6.146 -0.5310  2.1503  1.4307
  177SLPC   C2820100   4.781   2.079   5.932 -0.8038  0.1181  0.3606
  177SLPC   H8R20101   4.883   2.058   5.893 -2.0655 -0.7842 -2.7437
  177SLPC   H8S20102   4.746   2.175   5.888  0.0258  0.4794  0.4793
  177SLPC   C2920103   4.697   1.966   5.895 -0.5417  0.6629  0.5175
  177SLPC   H9R20104   4.703   1.891   5.975  1.2695 -1.7020 -1.6741
  177SLPC  C21020105   4.617   1.930   5.783  0.5269 -0.2997  0.0433
  177SLPC  H10R20106   4.566   1.833   5.775 -1.8416  0.9028 -0.4205
  177SLPC  C21120107   4.603   2.023   5.657 -0.2804  0.0608 -0.3090
  177SLPC  H11R20108   4.654   1.973   5.572 -2.2798 -0.3903 -1.2961
  177SLPC  H11S20109   4.658   2.116   5.683  0.5418 -1.0578  2.2597
  177SLPC  C21220110   4.460   2.056   5.628  0.2810  0.1524 -0.2751
  177SLPC  H12R20111   4.415   2.138   5.687  3.0297  1.9752 -0.5243
  177SLPC  C21320112   4.399   2.011   5.520  0.4288 -0.0541 -0.2799
  177SLPC  H13R20113   4.297   2.049   5.506  0.1387 -0.5707  0.3307
  177SLPC  C21420114   4.452   1.927   5.403  0.0382  0.1330  0.1644
  177SLPC  H14R20115   4.378   1.849   5.375  0.7239 -1.1663  1.8036
  177SLPC  H14S20116   4.535   1.864   5.440 -0.5101 -0.9378 -0.4060
  177SLPC  C21520117   4.481   2.025   5.286 -0.2778  0.2500  0.1235
  177SLPC  H15R20118   4.553   2.106   5.314  0.6434 -1.0596  1.7742
  177SLPC  H15S20119   4.383   2.072   5.264 -1.3504 -2.5439 -1.6026
  177SLPC  C21620120   4.539   1.962   5.156  0.6204  0.7024  0.1719
  177SLPC  H16R20121   4.485   1.868   5.131  1.3818  0.3865 -0.3066
  177SLPC  H16S20122   4.642   1.926   5.176  0.2105 -0.9909 -0.5999
  177SLPC  C21720123   4.530   2.045   5.025  0.2573  0.0452  0.5088
  177SLPC  H17R20124   4.604   2.127   5.035 -1.7297  1.7221  2.9216
  177SLPC  H17S20125   4.432   2.097   5.026  0.2778  0.3085 -2.2079
  177SLPC  C21820126   4.538   1.946   4.901  0.4748  0.2051 -0.0308
  177SLPC  H18R20127   4.501   1.990   4.806  0.9786 -2.5534 -1.5937
  177SLPC  H18S20128   4.472   1.858   4.918 -2.5103  2.0901 -1.1365
  177SLPC  H18T20129   4.644   1.918   4.884  0.1569 -0.8480 -0.3127
  177SLPC   C3320130   4.650   2.896   6.119  0.6938 -0.3854 -0.5440
  177SLPC   H3X20131   4.554   2.949   6.104  0.7143 -0.6842 -1.8550
  177SLPC   H3Y20132   4.624   2.792   6.091 -0.8038 -0.0115 -0.6131
  177SLPC   C3420133   4.750   2.953   6.020 -0.0257 -0.5708  0.5019
  177SLPC   H4X20134   4.840   2.891   6.000  1.5370  1.9614 -0.9561
  177SLPC   H4Y20135   4.775   3.054   6.059 -2.5731  0.2187  0.2880
  177SLPC   C3520136   4.684   2.978   5.882  0.4897 -0.1315 -0.2530
  177SLPC   H5X20137   4.597   3.045   5.893  1.0466  0.8010 -1.2284
  177SLPC   H5Y20138   4.659   2.878   5.840  0.5374  0.1944 -1.0715
  177SLPC   C3620139   4.779   3.039   5.779 -0.1602 -0.4868 -0.3304
  177SLPC   H6X20140   4.877   2.986   5.778 -0.0822 -0.3424 -0.3173
  177SLPC   H6Y20141   4.800   3.144   5.809  0.0916 -0.9929  1.3829
  177SLPC   C3720142   4.717   3.036   5.641  0.1343  0.3530 -0.6385
  177SLPC   H7X20143   4.625   3.098   5.642 -0.1673 -0.0910  0.0104
  177SLPC   H7Y20144   4.697   2.928   5.622 -1.9540  0.5345  0.2370
  177SLPC   C3820145   4.810   3.086   5.526 -0.1780  0.3468  0.0566
  177SLPC   H8X20146   4.891   3.011   5.511 -0.6686 -0.2370  0.2772
  177SLPC   H8Y20147   4.862   3.181   5.553  0.5104 -0.1137  0.3964
  177SLPC   C3920148   4.733   3.098   5.393 -0.5185  0.2488  0.2099
  177SLPC   H9X20149   4.656   3.177   5.403 -1.0663 -0.4934  2.6145
  177SLPC   H9Y20150   4.682   3.004   5.363  1.6184  0.1278 -3.6472
  177SLPC  C31020151   4.824   3.137   5.277 -0.1724 -0.2666  0.5303
  177SLPC  H10X20152   4.918   3.079   5.261  0.5269  0.7350  0.9504
  177SLPC  H10Y20153   4.862   3.240   5.294  1.6251 -0.6147 -1.0233
  177SLPC  C31120154   4.754   3.138   5.137 -0.9848  0.9942 -0.2271
  177SLPC  H11X20155   4.655   3.189   5.128  0.1657  3.2895 -0.8160
  177SLPC  H11Y20156   4.730   3.033   5.112 -1.6805  0.9864  0.4275
  177SLPC  C31220157   4.852   3.198   5.034 -0.0664  0.7345 -0.4055
  177SLPC  H12X20158   4.958   3.167   5.048  0.2339  1.5765 -0.7260
  177SLPC  H12Y20159   4.847   3.309   5.041  2.1033  0.8734 -0.4294
  177SLPC  C31320160   4.799   3.137   4.902 -0.1422 -0.6878 -0.2950
  177SLPC  H13X20161   4.706   3.185   4.866  0.0898  2.4007  2.6932
  177SLPC  H13Y20162   4.787   3.028   4.923  1.1471 -0.4364  2.0900
  177SLPC  C31420163   4.901   3.169   4.789  0.6049 -0.1137 -0.3278
  177SLPC  H14X20164   4.992   3.105   4.796  0.0046 -1.3174 -2.5833
  177SLPC  H14Y20165   4.940   3.271   4.808  1.7067 -0.3265 -1.3004
  177SLPC  C31520166   4.853   3.154   4.639  0.6908 -0.1219  1.0138
  177SLPC  H15X20167   4.937   3.195   4.579  0.6267 -1.1688  0.1578
  177SLPC  H15Y20168   4.775   3.229   4.616 -0.6110 -1.5616  0.5593
  177SLPC  C31620169   4.813   3.013   4.606 -0.4037  0.6850 -0.2995
  177SLPC  H16X20170   4.782   3.020   4.500  1.3065  1.7061 -0.7786
  177SLPC  H16Y20171   4.731   2.972   4.668 -2.0184  1.1555 -2.0224
  177SLPC  C31720172   4.928   2.910   4.622 -0.2295  0.5216  0.4942
  177SLPC  H17X20173   4.884   2.816   4.583 -1.0519  1.3961 -0.7558
  177SLPC  H17Y20174   4.939   2.902   4.732 -0.5578 -1.0863  0.4300
  177SLPC  C31820175   5.061   2.941   4.553 -0.2898 -0.6719 -0.2201
  177SLPC  H18X20176   5.142   2.877   4.596  0.7553  1.2212  0.7723
  177SLPC  H18Y20177   5.094   3.045   4.571 -0.1475 -0.8212  0.3992
  177SLPC  H18Z20178   5.053   2.913   4.446 -0.3004  0.0139 -0.3967
  178SLPC     N20179   1.585   6.764   6.816 -0.1500  0.4051 -0.3319
  178SLPC   C1320180   1.441   6.795   6.783  0.1130 -0.2363  0.4087
  178SLPC  H13A20181   1.387   6.715   6.736 -0.3347 -0.9371  2.0281
  178SLPC  H13B20182   1.384   6.822   6.871  0.1142  2.3061 -0.2770
  178SLPC  H13C20183   1.435   6.891   6.734  0.2932  0.1857  1.1934
  178SLPC   C1420184   1.592   6.654   6.923 -0.6934  0.5062  0.0773
  178SLPC  H14A20185   1.693   6.618   6.933 -0.6631  0.9751  2.0059
  178SLPC  H14B20186   1.556   6.679   7.022 -2.4418 -1.0675 -0.0926
  178SLPC  H14C20187   1.525   6.576   6.889 -1.1965  1.2074 -0.5895
  178SLPC   C1520188   1.648   6.889   6.866 -0.1924  1.1190  0.5596
  178SLPC  H15A20189   1.626   6.969   6.798  1.9355 -0.1632 -1.8275
  178SLPC  H15B20190   1.601   6.922   6.957  2.2404 -0.6769  2.6552
  178SLPC  H15C20191   1.756   6.882   6.863 -0.2062 -1.7709  2.6044
  178SLPC   C1220192   1.650   6.718   6.689  0.8244 -0.4526 -0.2752
  178SLPC  H12A20193   1.659   6.800   6.619 -1.6444 -0.8590 -1.1897
  178SLPC  H12B20194   1.596   6.636   6.644  0.0146 -2.2811  3.6140
  178SLPC   C1120195   1.788   6.654   6.707 -0.1811 -0.4669  0.2130
  178SLPC  H11A20196   1.816   6.604   6.612 -2.4245 -1.5035  0.0208
  178SLPC  H11B20197   1.779   6.571   6.781 -2.6359  2.5227  3.6234
  178SLPC     P20198   1.953   6.855   6.651  0.0403 -0.1720  0.1116
  178SLPC   O1320199   1.868   6.871   6.533  0.9049 -0.0145  0.5620
  178SLPC   O1420200   1.986   6.975   6.732  0.1611  1.1235  1.0255
  178SLPC   O1220201   1.885   6.752   6.746  0.0079 -0.6196 -0.8885
  178SLPC   O1120202   2.089   6.791   6.602 -0.0716  0.6213 -0.1696
  178SLPC    C120203   2.086   6.687   6.509 -0.8683 -0.4222 -0.3560
  178SLPC    HA20204   2.183   6.633   6.521 -0.4875  0.2032 -0.5650
  178SLPC    HB20205   2.006   6.612   6.529 -0.8953  0.4326  3.6159
  178SLPC    C220206   2.084   6.748   6.368 -0.4704  0.4274 -0.1293
  178SLPC    HS20207   2.008   6.829   6.359 -1.2836 -0.3124 -0.1419
  178SLPC   O2120208   2.051   6.635   6.283 -0.4440 -0.4419  0.0432
  178SLPC   C2120209   1.984   6.666   6.174  0.1944 -0.3544  0.2166
  178SLPC   O2220210   1.940   6.779   6.153 -0.3116  0.2709 -0.2705
  178SLPC   C2220211   1.951   6.554   6.084 -0.0655  0.0410  0.2086
  178SLPC   H2R20212   1.994   6.586   5.987  0.9579  0.9161  0.9318
  178SLPC   H2S20213   1.996   6.456   6.112  1.1160  0.0865 -1.3602
  178SLPC    C320214   2.231   6.805   6.333  0.4475 -0.0539 -0.2729
  178SLPC    HX20215   2.314   6.738   6.365  1.9108  2.6504  1.9647
  178SLPC    HY20216   2.252   6.895   6.394  1.3559 -0.9778  0.8277
  178SLPC   O3120217   2.241   6.843   6.196 -0.5236 -0.2295  0.5868
  178SLPC   C3120218   2.358   6.851   6.136 -0.3804  1.0933 -0.2103
  178SLPC   O3220219   2.461   6.796   6.177  0.2503  0.3739  0.5557
  178SLPC   C3220220   2.358   6.927   6.003 -0.9505  0.4542  0.5743
  178SLPC   H2X20221   2.445   6.910   5.937 -0.5939  1.0194  0.8952
  178SLPC   H2Y20222   2.350   7.034   6.031 -2.8211  0.6754 -0.6111
  178SLPC   C2320223   1.798   6.541   6.069 -0.3036 -0.2525 -0.8953
  178SLPC   H3R20224   1.750   6.634   6.032 -0.5920  0.1189  0.3574
  178SLPC   H3S20225   1.763   6.529   6.174  0.5542  0.8370 -0.4539
  178SLPC   C2420226   1.756   6.413   5.992 -0.8524 -0.0053 -0.6290
  178SLPC   H4R20227   1.645   6.410   5.996 -0.8612  0.2271 -0.6472
  178SLPC   H4S20228   1.790   6.324   6.048  1.7036  0.4883 -1.2395
  178SLPC   C2520229   1.814   6.403   5.847 -0.0763  0.4503 -0.7700
  178SLPC   H5R20230   1.785   6.311   5.791  0.4032 -0.4196  0.3782
  178SLPC   H5S20231   1.923   6.384   5.855 -0.1896  0.1801  0.2078
  178SLPC   C2620232   1.803   6.525   5.761  0.8410  0.2786  0.7511
  178SLPC   H6R20233   1.873   6.610   5.778  0.3233  1.6173 -2.9044
  178SLPC   H6S20234   1.699   6.557   5.784 -0.4717  0.9220 -4.7361
  178SLPC   C2720235   1.811   6.495   5.613 -0.3851  0.1158  0.5991
  178SLPC   H7R20236   1.769   6.575   5.548  0.9062 -0.5745 -1.1464
  178SLPC   H7S20237   1.761   6.399   5.590 -1.4403  0.3938  1.6080
  178SLPC   C2820238   1.944   6.477   5.539  0.0298  0.1328 -0.3095
  178SLPC   H8R20239   1.910   6.428   5.445 -2.0339  2.5010 -0.9172
  178SLPC   H8S20240   2.013   6.419   5.604 -0.2800 -1.0713 -1.0262
  178SLPC   C2920241   2.021   6.602   5.500  0.1415  0.2979 -0.1067
  178SLPC   H9R20242   2.090   6.640   5.576 -0.6239  0.1580  0.6726
  178SLPC  C21020243   2.022   6.657   5.379 -0.0659 -0.4833 -0.3669
  178SLPC  H10R20244   2.087   6.745   5.365  0.5117 -1.0195 -1.2034
  178SLPC  C21120245   1.946   6.615   5.255 -0.3593  0.0833  0.5271
  178SLPC  H11R20246   1.957   6.505   5.249 -0.6403 -0.2716  4.0404
  178SLPC  H11S20247   2.000   6.658   5.169 -2.2741 -0.7223 -1.1614
  178SLPC  C21220248   1.805   6.662   5.245 -0.2781  0.1081 -0.5138
  178SLPC  H12R20249   1.764   6.730   5.322  1.0710  0.9177 -0.4805
  178SLPC  C21320250   1.716   6.614   5.155  0.9532 -1.1849 -0.0776
  178SLPC  H13R20251   1.612   6.650   5.156  0.8758 -1.3077 -1.4090
  178SLPC  C21420252   1.744   6.520   5.041 -0.1635 -0.9601 -0.1821
  178SLPC  H14R20253   1.664   6.443   5.041  1.1339 -2.4239  2.2334
  178SLPC  H14S20254   1.835   6.457   5.051  0.8057  0.5416  0.8591
  178SLPC  C21520255   1.753   6.577   4.905  0.3480  0.1745 -0.3815
  178SLPC  H15R20256   1.844   6.638   4.890 -0.2634  0.9425 -1.1526
  178SLPC  H15S20257   1.660   6.637   4.894 -2.1802 -3.4184 -0.3363
  178SLPC  C21620258   1.735   6.471   4.790 -0.5961 -0.1514 -0.4758
  178SLPC  H16R20259   1.680   6.510   4.702  0.1204  2.2503  0.0702
  178SLPC  H16S20260   1.672   6.388   4.829 -2.5409  1.2676 -0.4478
  178SLPC  C21720261   1.871   6.415   4.739  0.6290  0.2570 -0.0312
  178SLPC  H17R20262   1.942   6.388   4.820  1.2525 -0.4939 -0.8030
  178SLPC  H17S20263   1.929   6.494   4.685 -0.7559  1.1156 -0.2998
  178SLPC  C21820264   1.838   6.306   4.640 -0.3350 -0.0436 -0.1620
  178SLPC  H18R20265   1.800   6.221   4.702 -0.1225 -0.3181 -0.4042
  178SLPC  H18S20266   1.936   6.276   4.597 -0.6103  0.1113 -0.9178
  178SLPC  H18T20267   1.768   6.330   4.557 -2.3716 -0.1813  1.4315
  178SLPC   C3320268   2.240   6.873   5.915  0.2637 -0.4017 -0.1867
  178SLPC   H3X20269   2.146   6.933   5.921 -0.5638 -1.6099 -0.7234
  178SLPC   H3Y20270   2.221   6.765   5.930 -0.9913 -0.1198  0.4148
  178SLPC   C3420271   2.272   6.893   5.767  0.0221  0.4486  0.1632
  178SLPC   H4X20272   2.190   6.850   5.706 -0.4607  0.0390  1.0817
  178SLPC   H4Y20273   2.364   6.832   5.753  0.7835  1.6802 -0.4154
  178SLPC   C3520274   2.288   7.043   5.723  0.0510  0.0510  0.1303
  178SLPC   H5X20275   2.379   7.079   5.775  0.2352 -1.1848  0.6995
  178SLPC   H5Y20276   2.197   7.105   5.739 -0.7918 -1.1300  0.0715
  178SLPC   C3620277   2.317   7.050   5.569 -0.2189 -0.1364  0.3356
  178SLPC   H6X20278   2.236   6.999   5.511  0.4474 -0.0562 -0.7019
  178SLPC   H6Y20279   2.410   6.989   5.560 -0.8954 -1.1087 -0.4557
  178SLPC   C3720280   2.342   7.191   5.512  1.1485 -0.6219 -0.3823
  178SLPC   H7X20281   2.252   7.256   5.519  1.7939  0.2242  0.2415
  178SLPC   H7Y20282   2.363   7.166   5.405 -0.4945 -1.2239 -0.5913
  178SLPC   C3820283   2.457   7.279   5.570  0.4499 -0.0776  0.3786
  178SLPC   H8X20284   2.548   7.220   5.546  1.2173  1.1753  0.0995
  178SLPC   H8Y20285   2.448   7.287   5.680  0.6333  0.8698  0.3372
  178SLPC   C3920286   2.467   7.420   5.513 -0.1808  1.0036  0.3636
  178SLPC   H9X20287   2.550   7.483   5.551  1.6608 -0.3911 -1.1675
  178SLPC   H9Y20288   2.372   7.470   5.542 -1.6945  0.0656 -2.5779
  178SLPC  C31020289   2.500   7.413   5.360 -0.7999  0.0916  0.4861
  178SLPC  H10X20290   2.430   7.353   5.299  0.2615 -1.2187  0.5273
  178SLPC  H10Y20291   2.597   7.361   5.349  0.1369  1.8774 -0.2055
  178SLPC  C31120292   2.530   7.547   5.309  0.1510  0.0124 -0.0887
  178SLPC  H11X20293   2.591   7.601   5.384  1.7607  0.4336 -1.6466
  178SLPC  H11Y20294   2.441   7.603   5.273 -0.1881 -0.9608 -0.8068
  178SLPC  C31220295   2.637   7.553   5.193  0.0268 -0.0158  0.3219
  178SLPC  H12X20296   2.742   7.541   5.227  0.7305  2.1193 -0.9163
  178SLPC  H12Y20297   2.633   7.658   5.157 -0.0957 -0.2325 -0.3304
  178SLPC  C31320298   2.608   7.449   5.080  0.1875  0.2876 -0.6218
  178SLPC  H13X20299   2.500   7.426   5.069 -0.4724  3.2064 -0.8824
  178SLPC  H13Y20300   2.646   7.347   5.103 -1.4108 -0.1382  0.3377
  178SLPC  C31420301   2.673   7.485   4.940 -0.5011  0.4183 -0.5659
  178SLPC  H14X20302   2.773   7.531   4.955  0.6562 -1.1564 -2.8757
  178SLPC  H14Y20303   2.608   7.566   4.898 -0.6847  0.9879  0.7792
  178SLPC  C31520304   2.693   7.361   4.847  0.6693  0.2978  0.3383
  178SLPC  H15X20305   2.754   7.288   4.904  2.3966  1.1795 -0.3094
  178SLPC  H15Y20306   2.772   7.394   4.776  2.1110 -0.1249  1.6749
  178SLPC  C31620307   2.569   7.312   4.774  0.4478 -0.5153 -0.0947
  178SLPC  H16X20308   2.531   7.396   4.712 -0.7483 -0.3487  0.8240
  178SLPC  H16Y20309   2.492   7.303   4.854 -1.0793  1.4569 -1.2382
  178SLPC  C31720310   2.596   7.177   4.707  0.3485 -0.4641  0.0985
  178SLPC  H17X20311   2.645   7.106   4.778  2.7669  1.2317  0.2848
  178SLPC  H17Y20312   2.663   7.187   4.619 -0.1756 -0.1777 -0.2740
  178SLPC  C31820313   2.459   7.119   4.667 -0.1522  0.7349 -0.3418
  178SLPC  H18X20314   2.482   7.037   4.596  1.4154  0.5546  0.3383
  178SLPC  H18Y20315   2.397   7.191   4.609  0.6819  1.8784  0.1558
  178SLPC  H18Z20316   2.399   7.080   4.752  1.0331 -0.1169  0.1273
  179SLPC     N20317   2.987   1.387   2.522 -0.0073  0.0627 -0.4223
  179SLPC   C1320318   2.863   1.326   2.591 -0.6131  0.0943  0.0470
  179SLPC  H13A20319   2.776   1.381   2.557 -1.0538 -0.9621 -0.5812
  179SLPC  H13B20320   2.855   1.225   2.554 -0.2388 -0.5076  1.5322
  179SLPC  H13C20321   2.885   1.330   2.697 -2.6221  3.1520  0.4941
  179SLPC   C1420322   2.982   1.355   2.374  0.1299  0.1485  0.9861
  179SLPC  H14A20323   3.070   1.398   2.328 -1.3633  0.4083 -1.8764
  179SLPC  H14B20324   2.971   1.248   2.361 -1.5210  0.2333  1.4919
  179SLPC  H14C20325   2.899   1.397   2.319  1.2388  0.6712 -0.3678
  179SLPC   C1520326   3.110   1.336   2.584 -0.2122 -0.2029  0.3802
  179SLPC  H15A20327   3.112   1.360   2.689 -4.3773  0.7655  0.3885
  179SLPC  H15B20328   3.118   1.228   2.587  0.2619 -0.1637  0.6413
  179SLPC  H15C20329   3.197   1.377   2.534  0.5892 -1.0735  1.0103
  179SLPC   C1220330   2.982   1.538   2.540  0.6501 -0.9267 -0.8427
  179SLPC  H12A20331   2.985   1.553   2.647 -0.4297  1.1218 -1.0468
  179SLPC  H12B20332   2.888   1.581   2.509  1.9462  1.7677 -1.3107
  179SLPC   C1120333   3.096   1.629   2.480  0.5244 -0.0675 -0.2053
  179SLPC  H11A20334   3.053   1.731   2.483 -1.1308 -0.7551  0.8922
  179SLPC  H11B20335   3.104   1.595   2.374  3.8537 -2.2157  0.5795
  179SLPC     P20336   3.256   1.702   2.664  0.0863  0.0280 -0.4200
  179SLPC   O1320337   3.383   1.656   2.726  0.2337 -0.0970 -0.1585
  179SLPC   O1420338   3.255   1.846   2.632 -0.0017 -0.4386 -0.0745
  179SLPC   O1220339   3.222   1.608   2.539  0.0558 -0.0683  0.6437
  179SLPC   O1120340   3.139   1.666   2.756  0.4793 -0.3123 -0.0489
  179SLPC    C120341   3.141   1.702   2.890  0.1481 -0.4429  0.8691
  179SLPC    HA20342   3.240   1.683   2.936  1.2631 -1.3699 -1.6713
  179SLPC    HB20343   3.101   1.804   2.908  0.4556 -0.3944  1.2672
  179SLPC    C220344   3.052   1.616   2.984 -0.3217 -0.6342  0.3475
  179SLPC    HS20345   2.945   1.629   2.956  0.6576 -0.8357 -4.5077
  179SLPC   O2120346   3.080   1.665   3.114  0.0428 -0.2847  0.0382
  179SLPC   C2120347   3.012   1.764   3.165 -0.3591  0.4286  0.6239
  179SLPC   O2220348   2.923   1.825   3.100 -0.4933  0.1785  0.4604
  179SLPC   C2220349   3.050   1.778   3.308  0.0214 -0.0005  0.4518
  179SLPC   H2R20350   2.992   1.706   3.370 -1.7757 -0.2676 -1.4167
  179SLPC   H2S20351   3.156   1.746   3.313 -0.5279 -2.3404 -1.0620
  179SLPC    C320352   3.104   1.473   2.974  0.2721 -0.8380  0.4929
  179SLPC    HX20353   3.207   1.470   3.015  0.7628  2.3892 -0.2435
  179SLPC    HY20354   3.109   1.441   2.868  1.4717  0.8174  0.0059
  179SLPC   O3120355   3.026   1.383   3.058  0.1317  0.0801  0.2154
  179SLPC   C3120356   2.912   1.340   3.014 -0.1562 -0.0024  0.7993
  179SLPC   O3220357   2.856   1.370   2.906 -0.0151 -0.1286  0.1412
  179SLPC   C3220358   2.854   1.231   3.108  0.0763  0.0031 -0.0178
  179SLPC   H2X20359   2.938   1.171   3.150  1.1810 -0.1687 -2.3328
  179SLPC   H2Y20360   2.792   1.163   3.045  0.0191  0.6331 -0.6449
  179SLPC   C2320361   3.018   1.915   3.362  0.5616  0.2657 -0.2529
  179SLPC   H3R20362   2.912   1.937   3.339  1.1679  0.1764 -3.6667
  179SLPC   H3S20363   3.069   2.005   3.321 -0.2828  1.5251  1.3667
  179SLPC   C2420364   3.044   1.922   3.516 -0.3775 -0.1574 -0.0896
  179SLPC   H4R20365   3.060   2.026   3.549  1.4880 -1.2575  2.8309
  179SLPC   H4S20366   3.145   1.881   3.538 -0.2271  0.4378  0.3573
  179SLPC   C2520367   2.938   1.865   3.607  0.1411  0.1974  0.0263
  179SLPC   H5R20368   2.918   1.759   3.581  1.4507 -0.4113  1.3823
  179SLPC   H5S20369   2.839   1.915   3.598 -0.7635 -1.4770  0.3116
  179SLPC   C2620370   2.980   1.868   3.748  0.0755 -0.3800 -0.4618
  179SLPC   H6R20371   2.997   1.968   3.795 -0.8188  0.0414 -0.9954
  179SLPC   H6S20372   3.069   1.806   3.766 -1.3551 -3.1651 -2.2450
  179SLPC   C2720373   2.877   1.806   3.849 -0.4260 -0.0404 -0.3653
  179SLPC   H7R20374   2.843   1.709   3.807 -0.3804 -0.4205  0.4553
  179SLPC   H7S20375   2.783   1.861   3.872 -0.3565 -0.1970  0.3230
  179SLPC   C2820376   2.956   1.773   3.979  0.0926 -0.1915 -0.4758
  179SLPC   H8R20377   3.001   1.870   4.010  0.9648 -0.4926 -0.7789
  179SLPC   H8S20378   3.044   1.710   3.956  1.0058  1.5490 -2.0091
  179SLPC   C2920379   2.865   1.701   4.084 -0.8329  0.4858  0.1438
  179SLPC   H9R20380   2.873   1.591   4.087  0.8933  0.4955 -1.7337
  179SLPC  C21020381   2.788   1.760   4.173 -0.0430 -0.5644  0.3195
  179SLPC  H10R20382   2.745   1.692   4.249  1.2721  0.8371  2.4299
  179SLPC  C21120383   2.765   1.907   4.202  0.3702  0.1498 -0.1013
  179SLPC  H11R20384   2.829   1.976   4.142  2.2419  0.9679  2.6096
  179SLPC  H11S20385   2.811   1.934   4.300  0.3613 -1.0408  0.2465
  179SLPC  C21220386   2.623   1.951   4.195  0.1740  0.6327  0.1426
  179SLPC  H12R20387   2.563   1.929   4.105  0.1469 -1.8873  0.6986
  179SLPC  C21320388   2.564   2.021   4.298  0.4173  0.6335  0.3261
  179SLPC  H13R20389   2.466   2.068   4.281  1.1811  1.9172 -0.6639
  179SLPC  C21420390   2.620   2.067   4.428  0.2379 -0.4405 -0.7330
  179SLPC  H14R20391   2.730   2.075   4.423  0.2795  0.7541  1.1724
  179SLPC  H14S20392   2.591   1.989   4.502 -0.3715 -0.3366 -0.8576
  179SLPC  C21520393   2.560   2.201   4.483 -0.4235  0.4424 -0.2889
  179SLPC  H15R20394   2.449   2.207   4.479 -0.4150  0.5581 -0.3622
  179SLPC  H15S20395   2.580   2.273   4.400  1.4428 -0.9197 -1.0779
  179SLPC  C21620396   2.620   2.242   4.621  0.5034  0.2080 -0.5686
  179SLPC  H16R20397   2.730   2.253   4.628  0.4728 -0.1117  0.4329
  179SLPC  H16S20398   2.597   2.154   4.684 -0.9177  2.3274  2.1007
  179SLPC  C21720399   2.552   2.365   4.690  0.3794  0.6367 -0.2500
  179SLPC  H17R20400   2.444   2.339   4.687  0.5553 -0.1682 -0.0553
  179SLPC  H17S20401   2.559   2.464   4.641  1.2864  1.2886  1.1325
  179SLPC  C21820402   2.611   2.377   4.828 -0.2838  0.4740 -0.1549
  179SLPC  H18R20403   2.556   2.447   4.894 -2.8694 -0.7570 -0.8771
  179SLPC  H18S20404   2.718   2.407   4.828 -0.2628  0.7244  3.1016
  179SLPC  H18T20405   2.610   2.277   4.877  0.1475  0.1128 -0.8590
  179SLPC   C3320406   2.757   1.285   3.220  0.2422  0.7973 -0.4144
  179SLPC   H3X20407   2.675   1.211   3.219  0.1308  0.9184 -0.1981
  179SLPC   H3Y20408   2.716   1.385   3.195  0.6475  1.6273  1.9847
  179SLPC   C3420409   2.816   1.307   3.356  0.4285 -0.1900 -0.0817
  179SLPC   H4X20410   2.869   1.403   3.340  0.0306 -0.3343 -2.9198
  179SLPC   H4Y20411   2.889   1.226   3.380  0.5878  0.2028  0.7854
  179SLPC   C3520412   2.701   1.339   3.460  0.3440  0.8354 -0.7349
  179SLPC   H5X20413   2.648   1.425   3.413  0.2904  0.7398 -0.8523
  179SLPC   H5Y20414   2.632   1.254   3.479  3.8489 -2.5316 -1.5737
  179SLPC   C3620415   2.769   1.377   3.590  0.4947  0.3973 -0.5389
  179SLPC   H6X20416   2.869   1.424   3.576  0.9487 -0.1133  0.7973
  179SLPC   H6Y20417   2.790   1.288   3.654 -0.1604  1.8912  1.9107
  179SLPC   C3720418   2.688   1.483   3.671 -0.2301 -0.0816  0.4414
  179SLPC   H7X20419   2.696   1.576   3.610 -0.6511 -0.5665 -0.3634
  179SLPC   H7Y20420   2.750   1.504   3.761 -0.8459  3.0572  0.2627
  179SLPC   C3820421   2.544   1.441   3.706 -0.2761  0.2568 -0.1804
  179SLPC   H8X20422   2.530   1.331   3.719 -0.0059 -0.1428 -2.8211
  179SLPC   H8Y20423   2.477   1.470   3.623  0.9268  3.1960 -0.2328
  179SLPC   C3920424   2.493   1.504   3.838  0.3984  0.1685  0.5055
  179SLPC   H9X20425   2.503   1.615   3.832  2.3657 -0.0477 -1.0165
  179SLPC   H9Y20426   2.553   1.471   3.925 -1.2761  0.6892  1.9332
  179SLPC  C31020427   2.349   1.455   3.864  0.5260  0.4545 -0.0094
  179SLPC  H10X20428   2.333   1.347   3.885  0.3906  0.6180  0.7618
  179SLPC  H10Y20429   2.297   1.486   3.771  0.3406 -0.9302 -0.3933
  179SLPC  C31120430   2.279   1.530   3.981 -0.4931  0.4610  0.5087
  179SLPC  H11X20431   2.343   1.531   4.072  1.6900  1.9602 -0.9583
  179SLPC  H11Y20432   2.184   1.481   4.010 -0.6533  0.4968  0.0445
  179SLPC  C31220433   2.253   1.681   3.961  0.1044 -1.4143 -0.2243
  179SLPC  H12X20434   2.193   1.694   3.868  1.1016  0.1196 -0.6832
  179SLPC  H12Y20435   2.354   1.726   3.952 -1.4199  2.7879  1.1694
  179SLPC  C31320436   2.203   1.768   4.081  0.3706  0.1337 -0.4305
  179SLPC  H13X20437   2.267   1.759   4.172 -1.4919  3.5302  1.4135
  179SLPC  H13Y20438   2.105   1.725   4.112  0.6537 -0.6961 -0.6510
  179SLPC  C31420439   2.200   1.921   4.051 -0.1997  0.2602  0.8591
  179SLPC  H14X20440   2.141   1.928   3.957 -2.5869 -1.3285  2.1255
  179SLPC  H14Y20441   2.305   1.955   4.039 -0.7693  1.5539 -1.0877
  179SLPC  C31520442   2.128   1.993   4.157  0.3744 -0.0755 -0.3613
  179SLPC  H15X20443   2.160   1.965   4.260  0.1400 -0.5245 -0.4118
  179SLPC  H15Y20444   2.023   1.956   4.152  0.9552 -1.8707 -0.0815
  179SLPC  C31620445   2.129   2.140   4.141  0.1544  0.2746  0.4539
  179SLPC  H16X20446   2.069   2.165   4.051 -3.1593 -0.4151  2.3097
  179SLPC  H16Y20447   2.234   2.169   4.118  1.1206 -1.8612  1.7836
  179SLPC  C31720448   2.070   2.205   4.275  0.1075  0.3984  0.4105
  179SLPC  H17X20449   2.116   2.162   4.366 -1.7357  0.8832  1.6244
  179SLPC  H17Y20450   1.963   2.180   4.289  0.2178  0.7390  1.9420
  179SLPC  C31820451   2.082   2.355   4.273 -0.2548  0.3532  0.4167
  179SLPC  H18X20452   2.068   2.402   4.373  1.5886  1.6799  0.1134
  179SLPC  H18Y20453   2.019   2.406   4.197 -1.6709  0.5968  1.7012
  179SLPC  H18Z20454   2.183   2.396   4.254 -0.3430 -0.1234 -1.2764
  180SLPC     N20455   5.719   4.392   2.480 -0.6097 -0.4641 -0.2790
  180SLPC   C1320456   5.612   4.434   2.574  0.2223  1.0535  0.4149
  180SLPC  H13A20457   5.526   4.376   2.544  0.1370  1.5467 -0.3260
  180SLPC  H13B20458   5.634   4.409   2.677  1.0757 -4.1160 -0.7419
  180SLPC  H13C20459   5.586   4.537   2.554 -0.7356  1.4966  3.3593
  180SLPC   C1420460   5.674   4.380   2.342 -0.3289 -0.1031  0.0896
  180SLPC  H14A20461   5.587   4.315   2.339 -0.5650 -0.0994  3.6137
  180SLPC  H14B20462   5.653   4.481   2.311  0.3742 -0.1348 -0.5157
  180SLPC  H14C20463   5.748   4.340   2.273  0.4521  0.5293  0.5532
  180SLPC   C1520464   5.759   4.249   2.520  0.2076  0.2095 -0.4261
  180SLPC  H15A20465   5.671   4.187   2.531  0.6016 -0.5026 -1.1301
  180SLPC  H15B20466   5.833   4.205   2.454  0.3815 -0.3455  0.1338
  180SLPC  H15C20467   5.813   4.252   2.613  1.1827 -0.3070 -0.9527
  180SLPC   C1220468   5.836   4.492   2.484  0.2359 -0.0657  0.4182
  180SLPC  H12A20469   5.912   4.461   2.414  0.8402  0.3521  0.8774
  180SLPC  H12B20470   5.890   4.486   2.578  2.7391 -1.7872 -1.0020
  180SLPC   C1120471   5.806   4.641   2.466  0.1281 -0.0874  0.1077
  180SLPC  H11A20472   5.776   4.664   2.361 -2.9688 -3.8615 -0.0383
  180SLPC  H11B20473   5.909   4.679   2.484  0.9791 -1.6710 -1.1717
  180SLPC     P20474   5.668   4.839   2.544  0.1806  0.1447 -0.3744
  180SLPC   O1320475   5.778   4.925   2.520 -0.2759 -0.1122 -0.6071
  180SLPC   O1420476   5.554   4.842   2.452  0.1459 -0.0488 -0.3976
  180SLPC   O1220477   5.718   4.692   2.566 -0.4835 -0.3093  0.6056
  180SLPC   O1120478   5.618   4.868   2.697 -0.3077  0.8725  0.1818
  180SLPC    C120479   5.659   4.799   2.813  0.2617  0.0936  0.4784
  180SLPC    HA20480   5.622   4.695   2.814 -2.5032  0.9764  0.0791
  180SLPC    HB20481   5.770   4.798   2.807  0.2005  0.5013 -1.0449
  180SLPC    C220482   5.621   4.874   2.946 -0.0013 -0.3197  0.2447
  180SLPC    HS20483   5.684   4.826   3.024 -0.9524 -1.5610  0.2801
  180SLPC   O2120484   5.482   4.878   2.981  0.2313 -0.0142  0.2685
  180SLPC   C2120485   5.440   4.761   3.032 -0.5082 -0.7386  0.8200
  180SLPC   O2220486   5.501   4.659   3.033  0.3526  0.1884 -0.5603
  180SLPC   C2220487   5.308   4.778   3.111 -0.0510 -0.1308 -0.8151
  180SLPC   H2R20488   5.327   4.834   3.205 -1.5596 -2.0163  0.6861
  180SLPC   H2S20489   5.249   4.851   3.051 -0.0656  1.1151  0.6588
  180SLPC    C320490   5.669   5.025   2.945 -0.2170 -0.2065  0.6937
  180SLPC    HX20491   5.586   5.066   2.883  1.2295  1.8456  0.0262
  180SLPC    HY20492   5.765   5.027   2.890 -0.1817 -1.8021  0.6364
  180SLPC   O3120493   5.673   5.074   3.075  0.2012 -0.7070  0.1812
  180SLPC   C3120494   5.792   5.095   3.128 -0.8807  0.2104 -0.5927
  180SLPC   O3220495   5.898   5.056   3.075  0.0817 -0.3233 -0.3070
  180SLPC   C3220496   5.791   5.171   3.256  0.1093 -0.4307 -0.1966
  180SLPC   H2X20497   5.761   5.276   3.237  1.4322  0.2192  1.0877
  180SLPC   H2Y20498   5.893   5.188   3.296 -0.2889  0.8911  0.2920
  180SLPC   C2320499   5.234   4.648   3.151  0.3115 -0.3476  0.0637
  180SLPC   H3R20500   5.225   4.585   3.060  0.9397  0.3466 -0.4922
  180SLPC   H3S20501   5.130   4.678   3.178  0.1933  0.5927 -1.3354
  180SLPC   C2420502   5.309   4.564   3.255  0.1324 -0.2890  0.2088
  180SLPC   H4R20503   5.419   4.574   3.251  0.0028  1.6891  0.6622
  180SLPC   H4S20504   5.280   4.456   3.248 -0.7117  0.0132 -1.5582
  180SLPC   C2520505   5.264   4.605   3.396 -0.1062  1.1533 -0.0313
  180SLPC   H5R20506   5.172   4.553   3.431  0.1838  0.3245 -0.4914
  180SLPC   H5S20507   5.246   4.715   3.402 -0.9624  1.0983 -1.3713
  180SLPC   C2620508   5.376   4.591   3.493  0.7094  0.2969  0.0292
  180SLPC   H6R20509   5.476   4.624   3.458  1.6179 -2.5534 -0.2989
  180SLPC   H6S20510   5.401   4.483   3.490  3.1957  0.8122 -0.3191
  180SLPC   C2720511   5.363   4.646   3.637  0.0312 -0.4345  0.3926
  180SLPC   H7R20512   5.366   4.757   3.631  1.1201 -0.4071  1.0923
  180SLPC   H7S20513   5.452   4.607   3.692 -1.5837 -0.8924  2.8388
  180SLPC   C2820514   5.235   4.601   3.707  0.1539  0.3501 -0.7351
  180SLPC   H8R20515   5.239   4.494   3.735  0.8573  0.7734  0.9525
  180SLPC   H8S20516   5.152   4.615   3.634  0.0429  2.6538 -0.2596
  180SLPC   C2920517   5.194   4.675   3.831  0.0772 -0.3995 -0.8402
  180SLPC   H9R20518   5.138   4.768   3.817 -1.0203 -0.5376  2.0162
  180SLPC  C21020519   5.221   4.634   3.960 -0.8311 -0.7888  0.4317
  180SLPC  H10R20520   5.179   4.691   4.044 -1.0746 -0.4328  0.0734
  180SLPC  C21120521   5.305   4.514   4.002  0.4757 -0.2009 -0.0859
  180SLPC  H11R20522   5.392   4.529   4.069 -0.2563 -1.8102  1.3154
  180SLPC  H11S20523   5.343   4.458   3.913 -2.1965  0.7801 -1.9758
  180SLPC  C21220524   5.212   4.417   4.071  0.3377 -0.0354 -0.2779
  180SLPC  H12R20525   5.139   4.369   4.003  0.2062 -1.7023  0.9882
  180SLPC  C21320526   5.196   4.394   4.202  0.3977  0.4926  0.1420
  180SLPC  H13R20527   5.117   4.320   4.219 -1.3951  1.5952 -2.6966
  180SLPC  C21420528   5.279   4.452   4.311  0.2547 -0.0675 -0.3835
  180SLPC  H14R20529   5.355   4.521   4.270 -0.5472  0.5157 -0.9299
  180SLPC  H14S20530   5.351   4.373   4.343 -0.0242 -1.0398 -2.0220
  180SLPC  C21520531   5.189   4.509   4.420  0.6037 -0.3273  0.6859
  180SLPC  H15R20532   5.258   4.552   4.496  1.5316  0.4256 -0.5569
  180SLPC  H15S20533   5.122   4.436   4.470  0.1846  1.2835  2.6013
  180SLPC  C21620534   5.102   4.628   4.371  0.1297  0.1000 -0.0259
  180SLPC  H16R20535   5.027   4.590   4.299  1.6876 -0.0624 -1.6217
  180SLPC  H16S20536   5.168   4.698   4.316  1.6786 -1.0771  0.2655
  180SLPC  C21720537   5.043   4.720   4.481 -0.5538 -0.0809 -0.0003
  180SLPC  H17R20538   4.978   4.791   4.426  1.4170 -0.4192 -3.0289
  180SLPC  H17S20539   5.120   4.775   4.540 -0.9761 -2.1674  2.6480
  180SLPC  C21820540   4.959   4.639   4.579  0.4778  0.2265 -0.5102
  180SLPC  H18R20541   4.917   4.708   4.656  0.8400  0.5759 -0.6271
  180SLPC  H18S20542   5.014   4.557   4.630  0.2965  0.2855 -0.2163
  180SLPC  H18T20543   4.872   4.583   4.537  0.5096  0.8629 -1.4565
  180SLPC   C3320544   5.700   5.115   3.366  1.0833  1.4764  0.0884
  180SLPC   H3X20545   5.604   5.089   3.317  0.9215  2.3726 -0.0843
  180SLPC   H3Y20546   5.660   5.180   3.448 -2.4644 -0.3202 -0.0167
  180SLPC   C3420547   5.768   4.992   3.435  0.1555  0.8485 -0.4603
  180SLPC   H4X20548   5.864   5.028   3.477 -0.2410  2.3117 -0.7786
  180SLPC   H4Y20549   5.801   4.924   3.353 -1.3896 -0.0897 -0.3561
  180SLPC   C3520550   5.683   4.919   3.539 -0.4288 -0.3086  0.2011
  180SLPC   H5X20551   5.697   4.809   3.545  0.2026 -0.2664 -0.4046
  180SLPC   H5Y20552   5.581   4.929   3.496 -0.1826 -1.1200 -0.5898
  180SLPC   C3620553   5.689   4.984   3.680 -0.7014 -1.0872 -0.3362
  180SLPC   H6X20554   5.662   5.092   3.679 -0.5924 -1.0430  0.6821
  180SLPC   H6Y20555   5.797   4.990   3.705 -0.8122  3.7255 -0.1598
  180SLPC   C3720556   5.606   4.906   3.787 -0.0518  0.0068 -0.0125
  180SLPC   H7X20557   5.659   4.808   3.785 -0.8936 -0.4655  0.3159
  180SLPC   H7Y20558   5.499   4.901   3.758 -0.5461  0.5467  1.6282
  180SLPC   C3820559   5.620   4.956   3.932 -0.0745 -0.0399  0.4666
  180SLPC   H8X20560   5.572   5.056   3.938  2.6568  1.7602 -3.0621
  180SLPC   H8Y20561   5.726   4.977   3.958 -0.0461 -0.4458  0.6803
  180SLPC   C3920562   5.556   4.857   4.030 -0.3456  0.0524  0.2774
  180SLPC   H9X20563   5.605   4.757   4.028 -1.4981 -0.5348 -1.7929
  180SLPC   H9Y20564   5.454   4.839   3.989  0.0838 -1.0931 -0.3365
  180SLPC  C31020565   5.561   4.910   4.169  0.2975  0.5084  0.2674
  180SLPC  H10X20566   5.501   5.003   4.182 -3.4694 -1.6522 -0.4059
  180SLPC  H10Y20567   5.664   4.938   4.200  0.3733  0.8579 -0.2858
  180SLPC  C31120568   5.477   4.803   4.251  0.1481 -0.0594 -0.0635
  180SLPC  H11X20569   5.515   4.704   4.218  0.4792  1.2640 -4.2148
  180SLPC  H11Y20570   5.369   4.818   4.229 -0.2765 -2.4143  0.1199
  180SLPC  C31220571   5.483   4.832   4.400 -0.4151 -0.1134  0.5044
  180SLPC  H12X20572   5.585   4.860   4.433  0.1321  0.4496 -1.5198
  180SLPC  H12Y20573   5.448   4.738   4.449 -0.8350 -0.9991 -1.3881
  180SLPC  C31320574   5.372   4.939   4.439  0.2456 -0.1757 -0.3833
  180SLPC  H13X20575   5.273   4.921   4.391  0.2554 -0.1048 -0.4297
  180SLPC  H13Y20576   5.404   5.036   4.396  1.5165  0.4417  1.8238
  180SLPC  C31420577   5.352   4.955   4.588  0.0048  0.0673  0.0579
  180SLPC  H14X20578   5.433   5.011   4.640 -0.7773  0.1076  1.2769
  180SLPC  H14Y20579   5.353   4.848   4.619 -0.6839 -0.2835 -1.0611
  180SLPC  C31520580   5.221   5.017   4.626  0.1415 -0.1168 -0.4859
  180SLPC  H15X20581   5.143   4.977   4.558  0.9074  0.9842 -2.0694
  180SLPC  H15Y20582   5.229   5.127   4.615 -1.4642  0.3616  2.2358
  180SLPC  C31620583   5.187   4.975   4.770  0.5597  0.0164 -0.3704
  180SLPC  H16X20584   5.267   4.991   4.845  0.7543  0.9424 -0.7664
  180SLPC  H16Y20585   5.176   4.865   4.775  0.1467  0.0162 -1.1276
  180SLPC  C31720586   5.063   5.046   4.835  0.3248 -0.0250  0.0538
  180SLPC  H17X20587   4.982   5.036   4.760 -1.2216  0.3864  1.6077
  180SLPC  H17Y20588   5.085   5.154   4.845  0.0239 -0.1205  2.2421
  180SLPC  C31820589   5.027   4.986   4.970 -0.5488 -0.5859 -0.2338
  180SLPC  H18X20590   4.960   5.043   5.039 -0.0316  1.2810 -1.1899
  180SLPC  H18Y20591   5.123   4.982   5.025  0.3068  2.5347 -1.2608
  180SLPC  H18Z20592   4.999   4.880   4.955 -0.9755 -0.6267  0.8215
  181SLPC     N20593   4.962   0.413   2.437  0.5079  0.1721 -0.0509
  181SLPC   C1320594   5.041   0.546   2.431 -0.4223 -0.5323 -0.4950
  181SLPC  H13A20595   5.131   0.532   2.489 -0.9530  1.7897  1.0172
  181SLPC  H13B20596   5.063   0.582   2.331  0.3665  0.0860 -0.1108
  181SLPC  H13C20597   4.990   0.632   2.472  0.6136  1.3280 -2.8290
  181SLPC   C1420598   4.900   0.410   2.573 -0.2654  0.1450  0.1705
  181SLPC  H14A20599   4.826   0.333   2.590  0.0546 -1.0180 -3.1466
  181SLPC  H14B20600   4.978   0.403   2.647 -1.9314  2.3271  2.2863
  181SLPC  H14C20601   4.844   0.496   2.606  1.5560  0.9480  1.3140
  181SLPC   C1520602   5.053   0.300   2.401 -0.2045  0.3307 -0.5518
  181SLPC  H15A20603   5.096   0.322   2.304 -0.7201  0.4574 -0.7581
  181SLPC  H15B20604   5.139   0.289   2.465  0.7237  2.2156 -1.4084
  181SLPC  H15C20605   5.001   0.205   2.399  1.2608 -0.5505  0.8208
  181SLPC   C1220606   4.846   0.422   2.342 -0.0123  0.2506  0.3065
  181SLPC  H12A20607   4.873   0.467   2.247  1.4143 -0.5077  0.3235
  181SLPC  H12B20608   4.777   0.497   2.378 -1.9216 -0.5955 -1.3629
  181SLPC   C1120609   4.764   0.295   2.320  0.0139 -0.5913  0.2965
  181SLPC  H11A20610   4.828   0.208   2.296 -0.6117 -1.2137  0.8296
  181SLPC  H11B20611   4.695   0.308   2.235  0.9874 -0.4806 -0.4909
  181SLPC     P20612   4.584   0.151   2.438 -0.1858  0.0094 -0.0809
  181SLPC   O1320613   4.463   0.187   2.361 -0.2483  0.0828  0.4058
  181SLPC   O1420614   4.652   0.025   2.405  0.2258  0.4582  0.2057
  181SLPC   O1220615   4.689   0.268   2.442  0.1331  0.0258 -0.4808
  181SLPC   O1120616   4.533   0.130   2.589 -0.2905 -0.6437  0.7545
  181SLPC    C120617   4.486   0.234   2.668  0.6363 -0.5081  0.2050
  181SLPC    HA20618   4.435   0.321   2.621 -2.5068 -1.7463  1.0635
  181SLPC    HB20619   4.407   0.190   2.733  1.0352 -0.2301  0.8855
  181SLPC    C220620   4.581   0.282   2.773  0.7244 -0.0837 -0.2777
  181SLPC    HS20621   4.670   0.317   2.715  0.0005  1.4274 -0.5286
  181SLPC   O2120622   4.604   0.168   2.863 -0.1427 -0.2564 -0.3625
  181SLPC   C2120623   4.727   0.128   2.886  0.7156 -0.4416  1.0074
  181SLPC   O2220624   4.829   0.169   2.821 -0.3055  0.1203 -0.1897
  181SLPC   C2220625   4.736   0.013   2.984  0.6497  0.2089 -0.0464
  181SLPC   H2R20626   4.734  -0.085   2.933 -1.1222  0.5921 -0.8114
  181SLPC   H2S20627   4.831   0.018   3.041 -0.1983  0.4133  1.4251
  181SLPC    C320628   4.531   0.413   2.852  0.5766 -0.5427 -0.2823
  181SLPC    HX20629   4.450   0.368   2.914  1.4562  1.2935  2.4000
  181SLPC    HY20630   4.493   0.495   2.787 -0.0327 -1.1450 -0.7058
  181SLPC   O3120631   4.631   0.452   2.948  1.3009 -0.2154  0.1245
  181SLPC   C3120632   4.718   0.536   2.902 -0.0244 -0.4830 -0.1716
  181SLPC   O3220633   4.731   0.573   2.785  0.0545  0.1707 -0.3661
  181SLPC   C3220634   4.808   0.579   3.016  0.3086 -0.1727  0.5664
  181SLPC   H2X20635   4.833   0.683   2.986 -4.7542  0.6856 -1.8373
  181SLPC   H2Y20636   4.897   0.515   3.006  0.6750  0.6207 -2.2670
  181SLPC   C2320637   4.623   0.013   3.098  0.6676 -0.1017  0.6120
  181SLPC   H3R20638   4.613  -0.095   3.120  0.9722 -0.1525  0.5056
  181SLPC   H3S20639   4.531   0.060   3.057 -0.1427 -1.3186  0.9864
  181SLPC   C2420640   4.683   0.072   3.222 -0.5016  0.0133  0.0838
  181SLPC   H4R20641   4.726   0.172   3.205  2.5853 -1.4817 -1.5987
  181SLPC   H4S20642   4.768   0.008   3.252  0.0919  2.2163  3.6164
  181SLPC   C2520643   4.577   0.078   3.332  0.1303 -0.3468 -0.2047
  181SLPC   H5R20644   4.550  -0.023   3.371 -0.8670  0.3400  0.9579
  181SLPC   H5S20645   4.478   0.121   3.306  0.2518 -0.1364 -0.3197
  181SLPC   C2620646   4.631   0.153   3.455 -0.0070 -0.0498  0.0044
  181SLPC   H6R20647   4.632   0.262   3.434 -0.5341 -0.2864 -1.3618
  181SLPC   H6S20648   4.729   0.110   3.484 -0.5010 -0.6575  0.8136
  181SLPC   C2720649   4.529   0.145   3.575 -0.1332  0.2664  0.3056
  181SLPC   H7R20650   4.487   0.043   3.578 -1.5014  0.7358 -1.1186
  181SLPC   H7S20651   4.438   0.202   3.545 -0.7316 -0.1118  1.3482
  181SLPC   C2820652   4.587   0.207   3.702 -0.6104  0.2182  0.3857
  181SLPC   H8R20653   4.607   0.316   3.690 -1.9004  0.8590  3.2603
  181SLPC   H8S20654   4.685   0.154   3.707 -0.7261  0.0879  1.5588
  181SLPC   C2920655   4.487   0.204   3.819 -0.2402  0.0246 -0.6153
  181SLPC   H9R20656   4.384   0.230   3.789  0.3792  2.5707 -0.7186
  181SLPC  C21020657   4.520   0.174   3.947 -0.3096  0.0595 -0.0457
  181SLPC  H10R20658   4.446   0.187   4.027 -0.9716  3.9476 -1.1016
  181SLPC  C21120659   4.657   0.154   4.009  0.5127  0.6989  0.1928
  181SLPC  H11R20660   4.733   0.112   3.940  0.2087 -0.3161  0.4629
  181SLPC  H11S20661   4.645   0.070   4.081 -0.6649  0.3507 -0.3906
  181SLPC  C21220662   4.709   0.275   4.078  0.4710 -0.5378  0.5175
  181SLPC  H12R20663   4.734   0.356   4.009 -1.6933 -1.0586 -0.9900
  181SLPC  C21320664   4.727   0.290   4.216 -0.7088 -0.1971 -0.2020
  181SLPC  H13R20665   4.745   0.392   4.251 -3.3113 -0.5999  2.8468
  181SLPC  C21420666   4.670   0.201   4.329  0.0373  0.3589  0.2026
  181SLPC  H14R20667   4.741   0.116   4.334 -0.4223 -0.1786 -1.4869
  181SLPC  H14S20668   4.564   0.175   4.306  0.4280 -0.6589 -0.5386
  181SLPC  C21520669   4.672   0.270   4.471 -0.6534  0.5109  0.0037
  181SLPC  H15R20670   4.754   0.345   4.474 -0.4247  0.2803 -0.4110
  181SLPC  H15S20671   4.681   0.191   4.549  1.3107 -0.3609 -1.0369
  181SLPC  C21620672   4.537   0.339   4.499  0.1850  0.3368  0.6514
  181SLPC  H16R20673   4.450   0.292   4.448  0.1530  0.5263  0.5285
  181SLPC  H16S20674   4.535   0.447   4.473 -2.1851  0.7043  2.0422
  181SLPC  C21720675   4.513   0.329   4.653  0.3322  0.5021  0.0362
  181SLPC  H17R20676   4.596   0.371   4.713 -0.8142  0.5359  1.6672
  181SLPC  H17S20677   4.509   0.221   4.680  0.6961 -0.1796 -2.3901
  181SLPC  C21820678   4.370   0.377   4.695 -0.6483 -0.2823 -0.2554
  181SLPC  H18R20679   4.372   0.347   4.802  0.8482  0.1901 -0.1250
  181SLPC  H18S20680   4.303   0.312   4.634 -1.1982  1.2385 -1.3422
  181SLPC  H18T20681   4.369   0.486   4.676  0.6445 -0.2216 -0.0721
  181SLPC   C3320682   4.751   0.581   3.157  0.3125 -0.2914  0.0489
  181SLPC   H3X20683   4.840   0.588   3.225 -0.0631 -1.2743  0.6725
  181SLPC   H3Y20684   4.701   0.485   3.182 -2.9523  1.1076 -0.6945
  181SLPC   C3420685   4.645   0.695   3.189 -1.1591 -0.1327 -0.0121
  181SLPC   H4X20686   4.556   0.675   3.126 -0.9381  1.0041 -0.6984
  181SLPC   H4Y20687   4.687   0.794   3.161 -2.5129  0.9520  1.6143
  181SLPC   C3520688   4.600   0.725   3.336 -0.1486  0.5926 -0.3293
  181SLPC   H5X20689   4.518   0.800   3.332 -0.1064  0.6360 -0.3916
  181SLPC   H5Y20690   4.674   0.786   3.393  1.2682 -0.0020 -1.4878
  181SLPC   C3620691   4.560   0.601   3.419  0.4844  0.3191 -0.1165
  181SLPC   H6X20692   4.627   0.516   3.393  0.4308 -0.0225  0.8130
  181SLPC   H6Y20693   4.464   0.560   3.381  0.8996  0.6325 -1.5460
  181SLPC   C3720694   4.561   0.613   3.569  0.6669 -0.6176  0.3027
  181SLPC   H7X20695   4.526   0.512   3.602  0.5860 -0.7815 -0.2851
  181SLPC   H7Y20696   4.475   0.680   3.589  0.0662 -0.2820 -2.9371
  181SLPC   C3820697   4.694   0.652   3.627  0.0236 -0.4597  0.0901
  181SLPC   H8X20698   4.704   0.762   3.616 -0.9963 -0.4679 -1.1822
  181SLPC   H8Y20699   4.774   0.613   3.561  1.6621  1.9069  0.5433
  181SLPC   C3920700   4.718   0.621   3.774 -0.5626  0.4877 -0.4670
  181SLPC   H9X20701   4.749   0.515   3.787  1.3094  0.8271 -1.7784
  181SLPC   H9Y20702   4.625   0.645   3.830 -1.0055  1.2457 -1.4776
  181SLPC  C31020703   4.838   0.709   3.826 -0.4213  0.5628  0.1441
  181SLPC  H10X20704   4.799   0.813   3.828 -1.4013  0.2519 -1.5448
  181SLPC  H10Y20705   4.919   0.711   3.750 -0.9809 -0.5327 -0.4949
  181SLPC  C31120706   4.904   0.659   3.951 -0.3123  0.3226  0.3898
  181SLPC  H11X20707   4.997   0.716   3.974  0.3434 -1.2188  1.8097
  181SLPC  H11Y20708   4.937   0.556   3.927 -0.3795  0.2111  0.7631
  181SLPC  C31220709   4.825   0.650   4.091 -0.7388 -0.0301 -0.0454
  181SLPC  H12X20710   4.898   0.617   4.168 -1.6565 -0.6683  0.5690
  181SLPC  H12Y20711   4.742   0.578   4.080 -2.2160  1.4114  1.1473
  181SLPC  C31320712   4.766   0.788   4.127 -0.3569 -0.8148 -0.2040
  181SLPC  H13X20713   4.696   0.821   4.047 -0.3238 -4.3477 -1.8591
  181SLPC  H13Y20714   4.851   0.859   4.116 -1.0783  0.1595  0.3939
  181SLPC  C31420715   4.691   0.809   4.255  0.8519  0.0596 -0.3291
  181SLPC  H14X20716   4.605   0.741   4.237  0.5784  0.9372 -2.5832
  181SLPC  H14Y20717   4.649   0.911   4.266 -1.3371 -0.9935  1.9573
  181SLPC  C31520718   4.775   0.780   4.380 -0.0476  0.2581 -0.1555
  181SLPC  H15X20719   4.878   0.819   4.364  0.7943 -1.5932  0.4273
  181SLPC  H15Y20720   4.785   0.669   4.385  0.0006  0.1811 -1.6258
  181SLPC  C31620721   4.711   0.826   4.519 -1.0835 -0.4362  0.1887
  181SLPC  H16X20722   4.602   0.807   4.532 -1.0148 -0.3817  0.8777
  181SLPC  H16Y20723   4.712   0.937   4.518  0.3085 -0.4283  0.0595
  181SLPC  C31720724   4.798   0.785   4.631 -0.0919  0.0516 -0.2602
  181SLPC  H17X20725   4.880   0.860   4.635 -1.2195  1.3655 -0.9649
  181SLPC  H17Y20726   4.850   0.690   4.610 -0.1647  0.4853 -2.6960
  181SLPC  C31820727   4.729   0.791   4.763 -0.5925 -0.0447 -0.4062
  181SLPC  H18X20728   4.641   0.725   4.777 -2.2660  2.1395 -0.2265
  181SLPC  H18Y20729   4.691   0.895   4.762  2.0907  1.0254  0.2671
  181SLPC  H18Z20730   4.802   0.783   4.847 -0.5195  1.6503 -0.2856
  182SLPC     N20731   2.589   4.679   2.715  0.1205  0.2174 -0.0883
  182SLPC   C1320732   2.651   4.748   2.592  1.2769 -0.3861 -0.3193
  182SLPC  H13A20733   2.715   4.674   2.545  0.0825 -0.7127 -1.5013
  182SLPC  H13B20734   2.584   4.773   2.511 -1.7403 -3.6198  0.8812
  182SLPC  H13C20735   2.703   4.838   2.617  0.8734  0.1836 -1.4370
  182SLPC   C1420736   2.696   4.680   2.822  0.1766 -0.0952  0.5877
  182SLPC  H14A20737   2.727   4.783   2.836  1.1504 -0.2921 -0.0251
  182SLPC  H14B20738   2.656   4.627   2.907  0.3305  0.9871  1.3641
  182SLPC  H14C20739   2.784   4.637   2.775  1.5339 -0.5173  3.3330
  182SLPC   C1520740   2.545   4.539   2.687  0.1923 -0.1435  0.0984
  182SLPC  H15A20741   2.467   4.531   2.612 -1.8095 -1.5960  2.1985
  182SLPC  H15B20742   2.629   4.474   2.671 -0.1358 -0.6011  0.2000
  182SLPC  H15C20743   2.498   4.503   2.778 -0.1300 -2.6749 -0.9816
  182SLPC   C1220744   2.476   4.763   2.765 -0.6000 -0.7431 -0.0972
  182SLPC  H12A20745   2.414   4.794   2.682 -0.7427 -1.0910 -0.1201
  182SLPC  H12B20746   2.519   4.854   2.805  0.2537 -1.0412 -0.3311
  182SLPC   C1120747   2.382   4.693   2.868 -0.4343 -0.5673  0.3430
  182SLPC  H11A20748   2.318   4.773   2.911 -1.9891 -1.8508  0.4964
  182SLPC  H11B20749   2.436   4.649   2.955  2.2801  0.3744 -0.7333
  182SLPC     P20750   2.138   4.596   2.822  0.1830 -0.0886  0.1150
  182SLPC   O1320751   2.093   4.735   2.798  0.0556 -0.1478 -0.5880
  182SLPC   O1420752   2.080   4.477   2.751 -0.7225 -0.5888  0.0385
  182SLPC   O1220753   2.294   4.596   2.810 -0.8024 -0.2481  0.4850
  182SLPC   O1120754   2.123   4.583   2.981 -0.3241  0.1745  0.4080
  182SLPC    C120755   2.189   4.467   3.039  0.2286 -0.1622  0.1084
  182SLPC    HA20756   2.248   4.402   2.971  1.9088  1.4324 -0.0153
  182SLPC    HB20757   2.269   4.503   3.106 -0.0990  1.6501 -0.4279
  182SLPC    C220758   2.093   4.375   3.126  0.3820 -0.3748  0.1111
  182SLPC    HS20759   2.000   4.367   3.066  1.1983  2.5637 -1.7952
  182SLPC   O2120760   2.074   4.442   3.256  0.0576 -0.4307  0.1291
  182SLPC   C2120761   1.967   4.396   3.311  0.5866 -0.0290  0.1206
  182SLPC   O2220762   1.885   4.316   3.269  0.0616 -0.2009  0.0212
  182SLPC   C2220763   1.945   4.472   3.442 -1.1960 -0.6160  0.1733
  182SLPC   H2R20764   2.046   4.502   3.476 -1.4915  0.0155  0.5062
  182SLPC   H2S20765   1.890   4.566   3.423  0.1989 -0.0188 -1.0803
  182SLPC    C320766   2.139   4.227   3.149 -0.3373 -0.6658  0.0301
  182SLPC    HX20767   2.185   4.192   3.054  0.9579  2.0316 -0.4348
  182SLPC    HY20768   2.052   4.166   3.182 -0.8052 -0.4874 -0.8733
  182SLPC   O3120769   2.249   4.223   3.239 -0.1705  0.0753  0.4188
  182SLPC   C3120770   2.226   4.160   3.354 -0.3649  0.4415 -1.2352
  182SLPC   O3220771   2.127   4.106   3.392  0.2011 -0.6150  0.3564
  182SLPC   C3220772   2.358   4.166   3.438  0.2054  0.2683  0.6602
  182SLPC   H2X20773   2.405   4.261   3.405  1.3679 -0.8912 -1.2093
  182SLPC   H2Y20774   2.430   4.086   3.410 -0.2349  0.4851 -1.1992
  182SLPC   C2320775   1.881   4.376   3.539 -0.1984  0.1882  0.5284
  182SLPC   H3R20776   1.928   4.276   3.552 -1.3850 -0.5489 -0.5655
  182SLPC   H3S20777   1.773   4.358   3.519  0.1569  0.2170 -1.5773
  182SLPC   C2420778   1.878   4.449   3.677  0.0547  0.4686  0.4310
  182SLPC   H4R20779   1.792   4.520   3.674  1.9522  2.8588 -1.4149
  182SLPC   H4S20780   1.977   4.498   3.687  0.2917  0.2970 -0.8974
  182SLPC   C2520781   1.851   4.357   3.797  0.5073  0.1172 -0.5832
  182SLPC   H5R20782   1.929   4.277   3.804 -0.9475 -1.2914  0.2286
  182SLPC   H5S20783   1.761   4.306   3.756  0.5081  0.7302 -1.3599
  182SLPC   C2620784   1.819   4.420   3.927  0.5667  0.1509 -0.3055
  182SLPC   H6R20785   1.760   4.514   3.939  1.8019  0.6121  3.7621
  182SLPC   H6S20786   1.922   4.448   3.958  0.6346 -1.0122  0.6100
  182SLPC   C2720787   1.766   4.308   4.029  0.7536 -1.2050 -0.4589
  182SLPC   H7R20788   1.833   4.220   4.030 -0.5482 -2.2459  1.4631
  182SLPC   H7S20789   1.662   4.282   3.996 -0.0669 -0.9354  1.7752
  182SLPC   C2820790   1.769   4.369   4.175  0.2414  0.1607  0.1549
  182SLPC   H8R20791   1.729   4.298   4.251 -0.7967 -0.4666 -0.9338
  182SLPC   H8S20792   1.694   4.451   4.176  2.2189  2.0627 -0.2073
  182SLPC   C2920793   1.900   4.440   4.221 -0.0252 -0.1741  0.1911
  182SLPC   H9R20794   1.925   4.542   4.188 -0.8073 -0.8386 -2.7222
  182SLPC  C21020795   1.982   4.384   4.310 -1.3633  0.5653 -0.3092
  182SLPC  H10R20796   2.068   4.446   4.337  0.0919 -1.4783 -0.0514
  182SLPC  C21120797   1.981   4.245   4.360  0.2871  0.0749  0.0055
  182SLPC  H11R20798   1.955   4.163   4.289  0.8829  0.2058 -0.3737
  182SLPC  H11S20799   1.898   4.248   4.434 -1.5600  1.9003 -1.9918
  182SLPC  C21220800   2.105   4.189   4.430  0.1081 -0.0275  0.1068
  182SLPC  H12R20801   2.163   4.111   4.379 -0.3820 -0.3730  0.0744
  182SLPC  C21320802   2.154   4.235   4.551 -0.1745  0.3299 -0.1321
  182SLPC  H13R20803   2.247   4.197   4.597 -1.8591 -4.3915 -0.0861
  182SLPC  C21420804   2.099   4.351   4.628  0.3793 -0.1365 -0.1929
  182SLPC  H14R20805   2.070   4.322   4.732 -1.2221  0.4186 -0.4583
  182SLPC  H14S20806   1.999   4.381   4.588 -0.1698  0.5792  1.6031
  182SLPC  C21520807   2.190   4.475   4.637 -0.3405  0.1778 -0.7534
  182SLPC  H15R20808   2.130   4.560   4.677  0.8021  0.3240  0.7176
  182SLPC  H15S20809   2.224   4.505   4.535  0.1112 -1.1473 -1.0096
  182SLPC  C21620810   2.321   4.462   4.722  0.6320  0.5481 -0.0768
  182SLPC  H16R20811   2.395   4.411   4.657  0.5428  0.7812 -0.3655
  182SLPC  H16S20812   2.305   4.393   4.808  2.2525 -0.2395 -0.3822
  182SLPC  C21720813   2.386   4.596   4.764  0.2492 -0.2131 -0.2076
  182SLPC  H17R20814   2.312   4.660   4.816  1.0436  1.1816 -0.7285
  182SLPC  H17S20815   2.416   4.643   4.668 -0.0833  0.0126 -0.2049
  182SLPC  C21820816   2.513   4.576   4.854  0.9979  0.6110 -0.0416
  182SLPC  H18R20817   2.494   4.520   4.947 -0.5522  1.2571  0.0559
  182SLPC  H18S20818   2.558   4.669   4.896  0.3871 -0.3626  2.9715
  182SLPC  H18T20819   2.586   4.520   4.791 -0.3543 -1.1578 -0.1169
  182SLPC   C3320820   2.330   4.169   3.591 -0.8244 -0.4913  0.7245
  182SLPC   H3X20821   2.431   4.160   3.638  0.3935  4.2235 -0.4429
  182SLPC   H3Y20822   2.267   4.079   3.605 -0.2149 -0.7200  2.2711
  182SLPC   C3420823   2.261   4.294   3.635  0.5472 -0.3280 -0.1544
  182SLPC   H4X20824   2.165   4.299   3.579 -0.2087 -0.0424  1.1467
  182SLPC   H4Y20825   2.323   4.382   3.609  0.7093 -0.3579  0.1323
  182SLPC   C3520826   2.213   4.303   3.779  0.2453 -0.5765 -0.0229
  182SLPC   H5X20827   2.139   4.225   3.805  0.1291 -1.0944 -1.7688
  182SLPC   H5Y20828   2.158   4.396   3.803 -0.2246 -0.7840 -0.2831
  182SLPC   C3620829   2.326   4.279   3.877 -0.7963 -0.1838 -0.0170
  182SLPC   H6X20830   2.404   4.353   3.851 -0.9891  0.6599  1.7227
  182SLPC   H6Y20831   2.379   4.182   3.863 -0.7424 -0.4311  1.7452
  182SLPC   C3720832   2.283   4.297   4.026 -0.4505  0.5733  0.2279
  182SLPC   H7X20833   2.187   4.242   4.033 -0.9224  0.8857 -2.6402
  182SLPC   H7Y20834   2.263   4.406   4.037  0.3912  0.7742 -0.0995
  182SLPC   C3820835   2.382   4.250   4.129  0.9231  0.7722 -0.2919
  182SLPC   H8X20836   2.355   4.290   4.229  1.2146  1.4775 -0.4895
  182SLPC   H8Y20837   2.485   4.284   4.108  1.5280  0.5920  2.0966
  182SLPC   C3920838   2.391   4.102   4.148 -0.2786  0.0854  0.2034
  182SLPC   H9X20839   2.420   4.050   4.054  0.9137 -0.4961  0.8749
  182SLPC   H9Y20840   2.297   4.048   4.171  1.3361 -3.6076 -0.9781
  182SLPC  C31020841   2.499   4.049   4.244  0.7727 -0.8413 -0.1195
  182SLPC  H10X20842   2.464   4.031   4.348 -1.0062 -0.4818 -0.6227
  182SLPC  H10Y20843   2.582   4.124   4.246 -0.4013  0.4914  1.7873
  182SLPC  C31120844   2.553   3.912   4.208 -0.8642 -0.5472  0.0825
  182SLPC  H11X20845   2.617   3.922   4.118  1.8175 -0.0372  1.9424
  182SLPC  H11Y20846   2.473   3.842   4.175 -0.0577 -0.6370 -1.8026
  182SLPC  C31220847   2.648   3.870   4.324 -0.3740  1.0311  0.5706
  182SLPC  H12X20848   2.620   3.770   4.363  3.9621 -1.1448 -1.2396
  182SLPC  H12Y20849   2.647   3.937   4.413 -1.2180  0.3712  1.0705
  182SLPC  C31320850   2.802   3.853   4.289 -0.1842  0.1540 -0.2530
  182SLPC  H13X20851   2.827   3.954   4.250 -0.6553 -0.1472 -1.3926
  182SLPC  H13Y20852   2.816   3.764   4.224  1.2615 -0.5991  1.0487
  182SLPC  C31420853   2.886   3.820   4.412  1.0421 -0.7032 -0.6872
  182SLPC  H14X20854   2.858   3.722   4.455 -2.5840  0.9020  1.0967
  182SLPC  H14Y20855   2.864   3.892   4.494  0.7692 -0.4811 -0.9516
  182SLPC  C31520856   3.035   3.818   4.371  0.8436 -1.6855 -0.5368
  182SLPC  H15X20857   3.045   3.890   4.287 -5.9298 -1.0154 -1.3318
  182SLPC  H15Y20858   3.048   3.720   4.321  0.2414 -2.2239  0.3336
  182SLPC  C31620859   3.135   3.832   4.485  0.1875  0.2027 -0.0957
  182SLPC  H16X20860   3.105   3.766   4.569 -2.4071  1.9739  0.5181
  182SLPC  H16Y20861   3.144   3.936   4.525  0.3771 -0.6457  2.2017
  182SLPC  C31720862   3.279   3.792   4.438  0.5656  0.3342 -0.0799
  182SLPC  H17X20863   3.315   3.827   4.339 -1.2148  0.7810 -0.6060
  182SLPC  H17Y20864   3.283   3.681   4.436 -0.0056  0.2726  1.1482
  182SLPC  C31820865   3.380   3.836   4.545  0.0813  0.0172 -0.2958
  182SLPC  H18X20866   3.366   3.785   4.643  2.2774 -0.4646 -0.1592
  182SLPC  H18Y20867   3.357   3.943   4.561 -3.0040 -0.3642 -1.4965
  182SLPC  H18Z20868   3.481   3.813   4.503  0.6896 -0.9561  1.5749
  183SLPC     N20869   5.605   1.807   2.560  0.0125 -0.5863  0.0015
  183SLPC   C1320870   5.542   1.820   2.430 -0.3718 -0.5642  0.6019
  183SLPC  H13A20871   5.437   1.845   2.436 -0.3273 -0.3838  0.6423
  183SLPC  H13B20872   5.606   1.884   2.372  2.2351 -4.5729 -1.3721
  183SLPC  H13C20873   5.539   1.721   2.387 -1.6309 -1.6581  2.9857
  183SLPC   C1420874   5.604   1.941   2.625  0.1153 -0.2312  0.3478
  183SLPC  H14A20875   5.548   2.018   2.574 -0.3398  2.1492  4.0504
  183SLPC  H14B20876   5.564   1.945   2.725 -2.8197  0.9226 -0.7569
  183SLPC  H14C20877   5.709   1.968   2.633  0.9650 -2.2805 -2.2956
  183SLPC   C1520878   5.740   1.758   2.530  0.3027 -0.1733 -0.3842
  183SLPC  H15A20879   5.736   1.654   2.501  0.4163 -0.3256  0.1277
  183SLPC  H15B20880   5.779   1.807   2.442  0.5317  0.6458  0.1609
  183SLPC  H15C20881   5.804   1.770   2.616  0.2558 -0.5564 -0.2924
  183SLPC   C1220882   5.538   1.701   2.648 -0.4651 -0.4723 -0.3227
  183SLPC  H12A20883   5.439   1.739   2.672 -0.9204 -1.5538 -0.4304
  183SLPC  H12B20884   5.581   1.713   2.747 -2.0792  0.4165  0.3079
  183SLPC   C1120885   5.527   1.557   2.606 -0.4119  0.0437  0.5335
  183SLPC  H11A20886   5.503   1.498   2.697  0.3637  1.0118  1.3853
  183SLPC  H11B20887   5.623   1.520   2.563 -0.6760  0.3774 -0.3742
  183SLPC     P20888   5.285   1.516   2.520  0.1711  0.1385  0.0915
  183SLPC   O1320889   5.218   1.616   2.604 -0.3820 -0.3122  0.6132
  183SLPC   O1420890   5.246   1.496   2.377  0.3460 -0.4508 -0.7760
  183SLPC   O1220891   5.434   1.549   2.503 -0.0509  0.0513  0.6268
  183SLPC   O1120892   5.297   1.384   2.598  0.0280 -0.3162 -0.3938
  183SLPC    C120893   5.204   1.346   2.702 -0.4893 -0.7596  0.1043
  183SLPC    HA20894   5.100   1.380   2.686 -0.3983 -0.2782  0.5025
  183SLPC    HB20895   5.198   1.236   2.716  0.5843 -1.1556 -2.0848
  183SLPC    C220896   5.241   1.401   2.846 -0.3339  0.2321  1.5966
  183SLPC    HS20897   5.260   1.510   2.834  0.0352  0.0977  0.9405
  183SLPC   O2120898   5.365   1.333   2.886  0.1460  0.3077  0.0950
  183SLPC   C2120899   5.452   1.401   2.960  0.8163 -0.6638  0.2465
  183SLPC   O2220900   5.441   1.510   3.010 -0.2108 -0.0448 -0.0657
  183SLPC   C2220901   5.575   1.327   2.962  0.3147 -0.1497  0.4548
  183SLPC   H2R20902   5.541   1.227   2.997  1.1526 -0.4475  0.4607
  183SLPC   H2S20903   5.618   1.327   2.859 -1.0341 -1.8552 -0.1636
  183SLPC    C320904   5.121   1.365   2.937  0.2944  0.5310 -0.4067
  183SLPC    HX20905   5.117   1.257   2.962  0.6733  0.9942  1.9070
  183SLPC    HY20906   5.031   1.405   2.885 -0.1116  0.9087  0.5533
  183SLPC   O3120907   5.140   1.438   3.064  0.4169 -0.2956 -0.6692
  183SLPC   C3120908   5.194   1.370   3.161 -0.7486  0.3346  0.4400
  183SLPC   O3220909   5.247   1.261   3.155 -0.7730 -0.2076  0.0672
  183SLPC   C3220910   5.202   1.461   3.284 -0.1968  0.0204  0.0626
  183SLPC   H2X20911   5.108   1.520   3.285 -0.8296 -0.9536  0.5035
  183SLPC   H2Y20912   5.285   1.535   3.284 -1.2913  1.2938  0.7915
  183SLPC   C2320913   5.679   1.382   3.064 -0.1169  0.0569 -0.1991
  183SLPC   H3R20914   5.698   1.490   3.051 -1.0131  0.5963  2.3063
  183SLPC   H3S20915   5.771   1.323   3.046 -0.0249  0.3992 -0.8621
  183SLPC   C2420916   5.640   1.371   3.212  0.8201  0.5877 -0.8115
  183SLPC   H4R20917   5.612   1.265   3.224  0.9375  0.7743  1.7233
  183SLPC   H4S20918   5.554   1.439   3.232  1.0689  1.2196 -1.8110
  183SLPC   C2520919   5.758   1.409   3.302  0.3947  0.4113 -0.6041
  183SLPC   H5R20920   5.770   1.520   3.297  1.4841  0.4167  1.3127
  183SLPC   H5S20921   5.846   1.355   3.261 -1.7027 -2.3645 -1.7797
  183SLPC   C2620922   5.739   1.367   3.452 -0.2604 -0.1272 -0.1420
  183SLPC   H6R20923   5.837   1.375   3.505 -0.3234  2.2296 -0.2783
  183SLPC   H6S20924   5.701   1.263   3.460 -3.4553  0.9229 -0.4454
  183SLPC   C2720925   5.645   1.461   3.528  0.2383 -0.5272 -0.1768
  183SLPC   H7R20926   5.542   1.462   3.487 -0.3762  0.7082  1.3161
  183SLPC   H7S20927   5.689   1.562   3.513  0.4213 -1.0428 -4.3744
  183SLPC   C2820928   5.633   1.429   3.675 -0.4054  0.7543 -0.1522
  183SLPC   H8R20929   5.591   1.519   3.725 -0.7245 -0.2923  1.5622
  183SLPC   H8S20930   5.732   1.412   3.724  0.1369  1.8373 -0.8467
  183SLPC   C2920931   5.546   1.312   3.717 -0.3623 -0.0456 -1.0659
  183SLPC   H9R20932   5.517   1.244   3.636 -0.3855 -2.5024  0.8709
  183SLPC  C21020933   5.515   1.274   3.842 -0.3051  0.1161 -0.0230
  183SLPC  H10R20934   5.450   1.186   3.857 -0.4995  0.4298  1.0399
  183SLPC  C21120935   5.565   1.353   3.958  0.2777  0.0843 -0.4599
  183SLPC  H11R20936   5.663   1.400   3.934  0.7759 -0.0763  1.1396
  183SLPC  H11S20937   5.586   1.292   4.048  2.0378 -0.4823 -1.2055
  183SLPC  C21220938   5.461   1.451   4.005  0.0806 -0.3237  0.1717
  183SLPC  H12R20939   5.407   1.502   3.924  1.5988  0.6332 -0.2844
  183SLPC  C21320940   5.432   1.481   4.134  0.1962  0.4756 -0.1600
  183SLPC  H13R20941   5.358   1.560   4.153 -0.9791 -0.7881  0.6693
  183SLPC  C21420942   5.491   1.421   4.264  0.7562  0.5257 -0.0449
  183SLPC  H14R20943   5.513   1.498   4.342  1.7610  0.3790 -0.1793
  183SLPC  H14S20944   5.578   1.353   4.253  0.5521 -0.0584  1.5702
  183SLPC  C21520945   5.383   1.331   4.335 -0.2045 -0.2393 -0.0232
  183SLPC  H15R20946   5.345   1.259   4.259 -0.0035 -1.0800  0.6462
  183SLPC  H15S20947   5.298   1.398   4.359 -0.8509 -0.2397 -2.1040
  183SLPC  C21620948   5.430   1.247   4.449  0.6629 -0.1725  0.1853
  183SLPC  H16R20949   5.512   1.176   4.421  2.8436  2.2341  0.1315
  183SLPC  H16S20950   5.346   1.187   4.491 -0.7641  1.7262  0.1423
  183SLPC  C21720951   5.465   1.331   4.577  0.6836  0.3972 -0.6815
  183SLPC  H17R20952   5.385   1.403   4.600  0.7836  0.4303 -0.4346
  183SLPC  H17S20953   5.559   1.386   4.554  1.7097 -1.1840 -0.4432
  183SLPC  C21820954   5.488   1.226   4.694  0.9372 -0.2667  0.1994
  183SLPC  H18R20955   5.585   1.174   4.676  0.3106 -2.3880  2.3889
  183SLPC  H18S20956   5.411   1.147   4.707 -2.1689  1.8328 -3.2215
  183SLPC  H18T20957   5.504   1.277   4.791  1.8793 -2.4337  1.2625
  183SLPC   C3320958   5.216   1.378   3.417 -0.1867 -0.4213  0.4298
  183SLPC   H3X20959   5.321   1.347   3.433  0.1112  0.2090 -0.2048
  183SLPC   H3Y20960   5.148   1.290   3.411 -1.3117  0.4495 -0.1245
  183SLPC   C3420961   5.173   1.446   3.547 -0.3014 -0.4453  0.3065
  183SLPC   H4X20962   5.073   1.492   3.531 -0.3266 -1.1228 -1.7094
  183SLPC   H4Y20963   5.254   1.520   3.560 -0.3643 -0.2262 -0.5024
  183SLPC   C3520964   5.167   1.349   3.668 -0.0188 -0.4545 -0.1618
  183SLPC   H5X20965   5.263   1.302   3.700  0.0656  0.5055  1.0778
  183SLPC   H5Y20966   5.104   1.263   3.639 -0.5467  0.2014 -0.9760
  183SLPC   C3620967   5.103   1.413   3.792 -0.2177  0.4217 -0.0172
  183SLPC   H6X20968   4.998   1.440   3.768  0.3797  1.7303 -1.3356
  183SLPC   H6Y20969   5.161   1.502   3.824  1.7119 -0.6501 -0.3974
  183SLPC   C3720970   5.095   1.325   3.918  0.1322 -0.3329 -0.0111
  183SLPC   H7X20971   5.187   1.273   3.952  0.1108 -0.6045 -0.3682
  183SLPC   H7Y20972   5.030   1.246   3.874 -1.2997  0.4488  0.6306
  183SLPC   C3820973   5.019   1.368   4.043  0.6190  0.4353  0.0263
  183SLPC   H8X20974   4.917   1.408   4.021 -0.4097 -2.1553 -0.2647
  183SLPC   H8Y20975   5.070   1.445   4.103  0.3520 -0.7448  1.8516
  183SLPC   C3920976   5.001   1.254   4.147 -0.3067  0.1333 -0.0039
  183SLPC   H9X20977   5.104   1.226   4.180 -0.9502 -1.7484  0.5524
  183SLPC   H9Y20978   4.959   1.161   4.102  0.3006 -1.2462  2.1519
  183SLPC  C31020979   4.911   1.298   4.261  0.3560  0.9065 -0.3963
  183SLPC  H10X20980   4.807   1.301   4.223  0.8331  1.9170 -1.7180
  183SLPC  H10Y20981   4.943   1.394   4.308  0.0733  0.5793  0.4788
  183SLPC  C31120982   4.912   1.202   4.374 -0.3506 -0.3154 -0.7191
  183SLPC  H11X20983   5.011   1.198   4.424  0.0390  0.2026 -1.4315
  183SLPC  H11Y20984   4.895   1.096   4.344 -2.3483 -0.5654  1.0597
  183SLPC  C31220985   4.815   1.235   4.489 -0.4496  0.3186  0.2827
  183SLPC  H12X20986   4.862   1.319   4.545 -0.3852 -0.7429  1.9076
  183SLPC  H12Y20987   4.816   1.150   4.561  0.7663  1.9375  2.2942
  183SLPC  C31320988   4.671   1.261   4.447  0.7743 -0.0771 -0.1720
  183SLPC  H13X20989   4.633   1.166   4.404  0.8053 -0.2121  0.0938
  183SLPC  H13Y20990   4.668   1.339   4.368  1.9590 -1.8326 -2.0588
  183SLPC  C31420991   4.594   1.300   4.575 -0.0656  0.1990  0.1466
  183SLPC  H14X20992   4.485   1.319   4.561 -0.2614 -0.5280  0.6796
  183SLPC  H14Y20993   4.637   1.394   4.616 -0.2664  0.2094  0.3361
  183SLPC  C31520994   4.618   1.196   4.691  0.2603 -0.2906 -0.5926
  183SLPC  H15X20995   4.722   1.201   4.729 -0.1312  0.2469  0.4314
  183SLPC  H15Y20996   4.582   1.101   4.646 -3.1978  1.1094 -1.0735
  183SLPC  C31620997   4.523   1.208   4.817 -0.2457  0.2148 -0.3617
  183SLPC  H16X20998   4.564   1.141   4.896  0.7004  0.5411 -0.5735
  183SLPC  H16Y20999   4.421   1.178   4.784 -0.1446 -0.9392  0.3024
  183SLPC  C31721000   4.523   1.348   4.877  0.1545 -0.0338  0.5143
  183SLPC  H17X21001   4.491   1.424   4.804  0.2421 -0.5142 -0.0302
  183SLPC  H17Y21002   4.627   1.382   4.898  0.3555 -1.2054  1.5242
  183SLPC  C31821003   4.442   1.364   5.008  0.4370 -0.1462  0.0345
  183SLPC  H18X21004   4.432   1.470   5.040  0.5250  0.2659 -1.2426
  183SLPC  H18Y21005   4.498   1.303   5.082  0.3148 -0.2844  0.0161
  183SLPC  H18Z21006   4.338   1.325   4.995 -0.7166  2.1664  1.6207
  184SLPC     N21007   2.747   0.010   6.413  0.0017  0.6067  0.6247
  184SLPC   C1321008   2.765   0.076   6.289 -0.1870 -0.2321 -0.2068
  184SLPC  H13A21009   2.740   0.013   6.204  3.2481  1.2776 -2.5552
  184SLPC  H13B21010   2.706   0.166   6.281 -1.1907 -0.6679  1.7257
  184SLPC  H13C21011   2.868   0.103   6.271  0.3727 -1.7060  0.5795
  184SLPC   C1421012   2.607  -0.054   6.422 -0.7443 -1.0627  0.5894
  184SLPC  H14A21013   2.598  -0.089   6.524  0.6087  2.0103  1.8886
  184SLPC  H14B21014   2.538   0.029   6.417 -0.1855 -0.6709 -1.1597
  184SLPC  H14C21015   2.594  -0.128   6.345  0.8163 -1.1470  0.3834
  184SLPC   C1521016   2.763   0.104   6.535  0.1256 -0.4097 -0.2418
  184SLPC  H15A21017   2.864   0.142   6.532 -0.0807  0.1595  0.0122
  184SLPC  H15B21018   2.686   0.179   6.536 -1.4824 -1.9887  0.9379
  184SLPC  H15C21019   2.737   0.052   6.626 -0.5270 -1.3078 -0.9196
  184SLPC   C1221020   2.853  -0.103   6.421  1.0158 -0.2621 -0.8115
  184SLPC  H12A21021   2.952  -0.062   6.418  0.5419  1.0954  0.6833
  184SLPC  H12B21022   2.844  -0.166   6.333  1.2655 -0.6536 -0.5609
  184SLPC   C1121023   2.863  -0.178   6.553 -0.0220  0.1799 -0.2702
  184SLPC  H11A21024   2.930  -0.265   6.542  0.3067  0.1075  1.9187
  184SLPC  H11B21025   2.766  -0.225   6.576  0.3887 -0.1298  0.8502
  184SLPC     P21026   3.077  -0.066   6.670  0.3830 -0.1456 -0.1557
  184SLPC   O1321027   3.087   0.081   6.688  0.4163  0.1212 -0.1173
  184SLPC   O1421028   3.129  -0.160   6.774 -0.0004 -0.0530 -0.2066
  184SLPC   O1221029   2.917  -0.100   6.658 -0.0665 -0.0231 -0.5916
  184SLPC   O1121030   3.132  -0.110   6.531 -0.3035  0.0706  0.2295
  184SLPC    C121031   3.242  -0.181   6.490 -0.0928  0.1683 -0.6452
  184SLPC    HA21032   3.263  -0.268   6.555  2.3835  1.8719  1.0206
  184SLPC    HB21033   3.237  -0.217   6.385  3.2428 -0.1284 -0.8113
  184SLPC    C221034   3.370  -0.094   6.505 -0.4592 -0.2327 -0.6052
  184SLPC    HS21035   3.410  -0.103   6.608  1.6078  1.1607 -1.2196
  184SLPC   O2121036   3.337   0.037   6.467 -0.3934 -0.4588 -0.3167
  184SLPC   C2121037   3.404   0.138   6.524  0.3458 -0.0920 -0.4159
  184SLPC   O2221038   3.486   0.132   6.613  0.1518  0.1444 -0.5622
  184SLPC   C2221039   3.342   0.269   6.484  0.0410 -1.2690  0.3729
  184SLPC   H2R21040   3.285   0.260   6.389  1.3478  1.5384 -0.8006
  184SLPC   H2S21041   3.281   0.303   6.570 -0.0709  0.3807 -0.3163
  184SLPC    C321042   3.488  -0.146   6.421  0.1432  0.3208  1.1573
  184SLPC    HX21043   3.501  -0.249   6.461  0.9819  0.3028  0.8594
  184SLPC    HY21044   3.584  -0.094   6.440  0.2222  1.1127 -1.0820
  184SLPC   O3121045   3.453  -0.150   6.282 -0.3444  0.3269  0.3453
  184SLPC   C3121046   3.478  -0.040   6.217 -0.0014  0.1989 -0.5805
  184SLPC   O3221047   3.546   0.049   6.265 -0.2701  0.5018  0.2865
  184SLPC   C3221048   3.404  -0.030   6.081 -0.5304  0.2095  0.0662
  184SLPC   H2X21049   3.297  -0.061   6.083 -0.7308  0.9130  0.5971
  184SLPC   H2Y21050   3.452  -0.096   6.006 -2.3899 -1.0582 -0.1007
  184SLPC   C2321051   3.448   0.380   6.471  0.4980  0.6639  0.0714
  184SLPC   H3R21052   3.506   0.359   6.379 -1.0456 -1.6849 -0.4577
  184SLPC   H3S21053   3.522   0.380   6.554 -1.6965 -2.0930  2.2264
  184SLPC   C2421054   3.385   0.522   6.458 -0.7411 -0.1706  0.1126
  184SLPC   H4R21055   3.456   0.606   6.476  1.4284 -1.6883 -0.9443
  184SLPC   H4S21056   3.309   0.543   6.537 -0.4365 -0.3933  0.4665
  184SLPC   C2521057   3.322   0.559   6.323 -0.2376 -0.1130 -0.7992
  184SLPC   H5R21058   3.272   0.656   6.344  1.5163  0.8196 -0.6954
  184SLPC   H5S21059   3.258   0.474   6.293  1.1738 -0.2656 -3.6719
  184SLPC   C2621060   3.422   0.574   6.207 -0.1926 -0.5509  0.7568
  184SLPC   H6R21061   3.473   0.475   6.198  1.6503  0.3768  0.5545
  184SLPC   H6S21062   3.499   0.651   6.228 -0.1255 -0.8886  1.8177
  184SLPC   C2721063   3.366   0.612   6.070  0.0563 -0.1319  0.1227
  184SLPC   H7R21064   3.281   0.679   6.092  0.2542  0.0345  0.3914
  184SLPC   H7S21065   3.320   0.521   6.025 -0.6570  0.1161  0.3378
  184SLPC   C2821066   3.460   0.695   5.975  0.1320 -0.2951  0.1018
  184SLPC   H8R21067   3.487   0.794   6.020  1.4033 -0.5217 -0.1272
  184SLPC   H8S21068   3.414   0.716   5.876 -1.8327 -1.3005  0.7631
  184SLPC   C2921069   3.599   0.627   5.974  0.5570 -0.1894  1.2520
  184SLPC   H9R21070   3.655   0.619   6.069  0.0052  0.2915  1.6284
  184SLPC  C21021071   3.650   0.569   5.867  0.0043 -0.3383  0.1181
  184SLPC  H10R21072   3.746   0.518   5.881 -0.5259 -1.5849 -0.5402
  184SLPC  C21121073   3.586   0.555   5.728  0.2103  0.7292  0.3209
  184SLPC  H11R21074   3.480   0.590   5.723  0.1083  0.2697 -1.5713
  184SLPC  H11S21075   3.577   0.449   5.698 -1.2871  1.0492 -0.4999
  184SLPC  C21221076   3.653   0.639   5.618  0.1409 -0.3426 -0.9760
  184SLPC  H12R21077   3.718   0.715   5.665 -0.2259 -1.7924  2.1183
  184SLPC  C21321078   3.638   0.638   5.484  0.0299 -0.5644 -0.5300
  184SLPC  H13R21079   3.698   0.703   5.419  1.0257 -0.4981  0.4333
  184SLPC  C21421080   3.555   0.532   5.407  0.3852 -0.1830  0.6641
  184SLPC  H14R21081   3.447   0.550   5.426  0.3143  1.2566 -0.8595
  184SLPC  H14S21082   3.566   0.428   5.444  2.3251  0.1497  1.1471
  184SLPC  C21521083   3.567   0.525   5.251  0.2285 -0.3027  0.4300
  184SLPC  H15R21084   3.541   0.618   5.196  0.1361  0.2382  1.3635
  184SLPC  H15S21085   3.504   0.441   5.217  1.0305 -0.9315  0.4568
  184SLPC  C21621086   3.710   0.488   5.192 -0.1662  0.3567  0.9725
  184SLPC  H16R21087   3.720   0.383   5.228  0.9698  0.2931  0.5095
  184SLPC  H16S21088   3.784   0.555   5.240 -1.3296  1.3493  1.4359
  184SLPC  C21721089   3.719   0.493   5.037  0.8657  0.1328 -0.6947
  184SLPC  H17R21090   3.719   0.600   5.008 -1.5089  0.6177  0.8823
  184SLPC  H17S21091   3.621   0.455   5.002  0.9714  0.3671 -1.2545
  184SLPC  C21821092   3.836   0.410   4.984  0.0706 -0.1641  0.5951
  184SLPC  H18R21093   3.805   0.305   5.003  0.3259 -0.2987  0.2830
  184SLPC  H18S21094   3.933   0.439   5.030  0.9826 -1.1627 -0.6310
  184SLPC  H18T21095   3.837   0.418   4.873  1.4056  0.8801  0.6467
  184SLPC   C3321096   3.393   0.116   6.043  0.4980 -0.4649 -0.5167
  184SLPC   H3X21097   3.488   0.174   6.049  1.4023 -1.9030 -0.5412
  184SLPC   H3Y21098   3.316   0.175   6.096 -1.0560 -0.7835 -2.3143
  184SLPC   C3421099   3.345   0.124   5.898 -0.0250  0.4221  0.1518
  184SLPC   H4X21100   3.238   0.100   5.887  0.5636 -2.5651  0.0804
  184SLPC   H4Y21101   3.391   0.043   5.837 -1.4969 -0.5551  0.3020
  184SLPC   C3521102   3.384   0.261   5.847  0.5280 -0.3132  0.2426
  184SLPC   H5X21103   3.490   0.292   5.844  0.2573  0.9244  1.9634
  184SLPC   H5Y21104   3.323   0.331   5.908 -1.2824  0.4751 -2.3075
  184SLPC   C3621105   3.339   0.269   5.702 -0.8037 -0.0296 -0.0833
  184SLPC   H6X21106   3.368   0.372   5.673  4.0955 -1.3205 -0.8040
  184SLPC   H6Y21107   3.229   0.259   5.702 -1.0655  2.1304  1.9029
  184SLPC   C3721108   3.399   0.173   5.605 -0.1823 -0.8426 -0.0648
  184SLPC   H7X21109   3.388   0.070   5.644  1.2118 -1.0920 -0.2719
  184SLPC   H7Y21110   3.506   0.200   5.612 -0.7805  2.3699 -1.4691
  184SLPC   C3821111   3.348   0.207   5.466  0.4800  0.4631 -0.2645
  184SLPC   H8X21112   3.362   0.314   5.441 -0.5941  0.9284  1.0036
  184SLPC   H8Y21113   3.242   0.172   5.464  0.7809 -0.4521 -1.1675
  184SLPC   C3921114   3.420   0.119   5.365 -0.2299 -0.4153 -0.9665
  184SLPC   H9X21115   3.410   0.015   5.405  0.0650  0.1913  0.7620
  184SLPC   H9Y21116   3.528   0.142   5.353 -0.4135 -0.0693 -2.1022
  184SLPC  C31021117   3.376   0.141   5.219  0.1525  0.1127 -0.0858
  184SLPC  H10X21118   3.386   0.249   5.193  1.3323 -0.0557 -0.4142
  184SLPC  H10Y21119   3.268   0.122   5.210  0.4096 -0.8687 -1.1597
  184SLPC  C31121120   3.443   0.044   5.120  0.3603 -0.1187 -0.0148
  184SLPC  H11X21121   3.436  -0.064   5.147  2.0179 -0.5358 -1.0446
  184SLPC  H11Y21122   3.551   0.067   5.128  0.8169 -1.7859 -0.7913
  184SLPC  C31221123   3.396   0.068   4.977  0.1865  0.1740  0.0687
  184SLPC  H12X21124   3.414   0.175   4.952 -1.2032  0.2399 -0.7677
  184SLPC  H12Y21125   3.286   0.055   4.974  0.4275 -2.1209 -2.0009
  184SLPC  C31321126   3.471  -0.021   4.882 -0.2441 -0.3999 -0.1318
  184SLPC  H13X21127   3.452  -0.127   4.909  2.1240 -1.0886 -0.9299
  184SLPC  H13Y21128   3.578   0.003   4.897 -1.0148  2.4589  1.4701
  184SLPC  C31421129   3.450   0.026   4.741  1.1273 -0.0989  1.2611
  184SLPC  H14X21130   3.481   0.132   4.726  2.0192 -0.4051  0.8801
  184SLPC  H14Y21131   3.340   0.022   4.724  1.1925 -2.7182  1.1839
  184SLPC  C31521132   3.517  -0.051   4.630  0.4300 -0.3631 -0.1616
  184SLPC  H15X21133   3.482  -0.156   4.622 -0.7229  0.1148 -1.8836
  184SLPC  H15Y21134   3.627  -0.049   4.649  0.5191 -1.9595 -0.3826
  184SLPC  C31621135   3.485   0.003   4.488  0.0476 -0.1871  0.1721
  184SLPC  H16X21136   3.560  -0.042   4.421 -0.0878  0.6800 -0.5774
  184SLPC  H16Y21137   3.505   0.112   4.476  0.1625 -0.4870 -3.1193
  184SLPC  C31721138   3.345  -0.041   4.437  0.2022  0.6213  0.4595
  184SLPC  H17X21139   3.273   0.010   4.504  1.4213  1.6990  0.9836
  184SLPC  H17Y21140   3.345  -0.151   4.446  0.8247  0.3695 -1.8811
  184SLPC  C31821141   3.300  -0.029   4.291 -0.6436  0.0575 -0.6779
  184SLPC  H18X21142   3.190  -0.039   4.284 -0.9320  2.5073 -0.8183
  184SLPC  H18Y21143   3.343  -0.110   4.228 -2.2817 -0.4180 -1.2201
  184SLPC  H18Z21144   3.312   0.071   4.243  0.0852 -0.7447 -2.2366
  185POPC     N21145   5.185   6.187   6.873 -0.1972  0.1857 -0.3891
  185POPC   C1221146   5.284   6.089   6.799  0.0471 -0.5974  0.2502
  185POPC  H12A21147   5.321   6.024   6.878  0.3994  1.9531  2.3358
  185POPC  H12B21148   5.372   6.145   6.772  0.8572 -2.0941 -0.3517
  185POPC   C1321149   5.079   6.097   6.929 -0.0958  0.1717  0.1597
  185POPC  H13A21150   5.132   6.035   6.999  0.9278  1.0387  0.1680
  185POPC  H13B21151   5.005   6.154   6.984  1.0324  0.4441  1.4419
  185POPC  H13C21152   5.036   6.037   6.850  0.8514  2.4365 -2.2520
  185POPC   C1421153   5.253   6.252   6.989  0.0649 -0.1314 -0.1137
  185POPC  H14A21154   5.347   6.296   6.958 -0.0974  1.9401  2.0875
  185POPC  H14B21155   5.199   6.327   7.044 -2.8547 -1.4421 -1.0185
  185POPC  H14C21156   5.291   6.179   7.059  1.5066  1.7994  1.2021
  185POPC   C1521157   5.131   6.285   6.774 -0.1544 -1.0978  0.1390
  185POPC  H15A21158   5.092   6.233   6.688 -1.0901 -1.0400  0.5144
  185POPC  H15B21159   5.209   6.354   6.747 -1.6454  0.1247 -1.1950
  185POPC  H15C21160   5.056   6.352   6.812  2.3377  0.4922  2.7018
  185POPC   C1121161   5.249   5.996   6.683  0.4360 -0.4475 -0.5328
  185POPC  H11A21162   5.336   5.943   6.638  2.8004  2.3770  0.4159
  185POPC  H11B21163   5.222   6.072   6.607  1.2397 -0.1351 -0.5221
  185POPC     P21164   5.164   5.768   6.763 -0.1510 -0.4926  0.0128
  185POPC   O1321165   5.034   5.708   6.793  0.5336 -0.7316  0.2867
  185POPC   O1421166   5.271   5.778   6.865  0.2242 -0.1360  0.5339
  185POPC   O1221167   5.134   5.919   6.713 -0.3677 -0.0206  0.6536
  185POPC   O1121168   5.218   5.693   6.635 -0.3044 -0.4865  0.1339
  185POPC    C121169   5.163   5.694   6.505 -0.0466  0.2462 -0.1218
  185POPC    HA21170   5.192   5.787   6.452  0.9536 -0.6706 -1.2100
  185POPC    HB21171   5.052   5.694   6.516 -0.1467 -0.9974 -0.9083
  185POPC    C221172   5.204   5.579   6.408  0.4572  0.7895  0.0997
  185POPC    HS21173   5.315   5.580   6.418  0.7294 -0.7931 -2.0115
  185POPC   O2121174   5.160   5.615   6.277  0.1389  1.3306  0.4395
  185POPC   C2121175   5.256   5.682   6.209  0.1852  0.4969  1.2613
  185POPC   O2221176   5.360   5.715   6.260 -0.5005  0.7377 -0.3902
  185POPC   C2221177   5.212   5.722   6.070  0.4869 -0.4432  0.2207
  185POPC   H2R21178   5.220   5.832   6.053  1.8723 -0.5129  0.2688
  185POPC   H2S21179   5.107   5.692   6.054  1.0629 -1.2066 -2.7829
  185POPC    C321180   5.149   5.445   6.444 -0.6765 -0.0588  0.0270
  185POPC    HX21181   5.039   5.441   6.462 -0.8481  2.7594  0.0996
  185POPC    HY21182   5.186   5.421   6.546  0.2907  2.9275  0.4723
  185POPC   O3121183   5.201   5.356   6.344  0.3755 -1.0661  0.2307
  185POPC   C3121184   5.324   5.303   6.369  0.2431  0.2307  0.0297
  185POPC   O3221185   5.390   5.344   6.460 -1.0498 -0.2693  0.2223
  185POPC   C3221186   5.350   5.184   6.275 -0.2446 -0.4176  0.0843
  185POPC   H2X21187   5.283   5.190   6.187  0.6969 -0.4555 -0.6587
  185POPC   H2Y21188   5.329   5.084   6.321 -2.6748 -0.0980 -0.2420
  185POPC   C2321189   5.308   5.675   5.963  0.4524  0.0866 -0.3679
  185POPC   H3R21190   5.417   5.677   5.983  0.6274  0.2293 -1.2968
  185POPC   H3S21191   5.287   5.740   5.875 -0.7951  0.5435  0.2447
  185POPC   C2421192   5.293   5.522   5.925 -0.2829  0.1556 -0.1461
  185POPC   H4R21193   5.192   5.504   5.883 -0.4808 -0.6210  0.6368
  185POPC   H4S21194   5.294   5.463   6.019  1.4097  0.6935  0.2069
  185POPC   C2521195   5.405   5.467   5.829  0.1402  0.0237  0.4832
  185POPC   H5R21196   5.395   5.357   5.824 -1.1531 -0.0194  2.5703
  185POPC   H5S21197   5.500   5.493   5.881  0.3377  0.7792 -0.2247
  185POPC   C2621198   5.401   5.532   5.692 -0.7793 -0.3568  0.4983
  185POPC   H6R21199   5.416   5.642   5.690  0.2263 -0.4833  0.4413
  185POPC   H6S21200   5.305   5.507   5.642 -0.2165 -0.8670 -0.3682
  185POPC   C2721201   5.509   5.466   5.605 -0.7695  0.5883  0.1097
  185POPC   H7R21202   5.468   5.369   5.572 -0.0556  0.3584 -0.1302
  185POPC   H7S21203   5.605   5.437   5.654 -0.0022 -1.4868 -2.4048
  185POPC   C2821204   5.542   5.549   5.473 -0.2273  0.1944 -0.7164
  185POPC   H8R21205   5.585   5.647   5.502  2.9365 -1.6066  1.4250
  185POPC   H8S21206   5.446   5.564   5.421 -0.4286  0.1030 -0.3764
  185POPC   C2921207   5.631   5.478   5.382 -0.6132 -0.7971  0.5475
  185POPC   H9121208   5.707   5.412   5.426  0.3066  0.3111  0.6705
  185POPC  C21021209   5.635   5.489   5.247 -0.2193  0.9581  0.0870
  185POPC  H10121210   5.698   5.417   5.193  0.5209  0.0841  2.0266
  185POPC  C21121211   5.554   5.577   5.153 -0.1336  0.1054  0.4773
  185POPC  H11R21212   5.470   5.625   5.208 -1.1049 -1.0902  0.0735
  185POPC  H11S21213   5.509   5.508   5.079 -0.1815  1.4672 -0.8210
  185POPC  C21221214   5.627   5.690   5.077  0.2903  0.0279  0.0782
  185POPC  H12R21215   5.676   5.751   5.156  0.5043 -2.3095  1.8752
  185POPC  H12S21216   5.563   5.758   5.017  2.2095  2.2002  0.3469
  185POPC  C21321217   5.736   5.623   4.991  0.8190 -0.2509 -0.3268
  185POPC  H13R21218   5.685   5.546   4.929 -0.0109 -0.8911  1.0940
  185POPC  H13S21219   5.813   5.574   5.055  0.0069 -1.1989 -0.0534
  185POPC  C21421220   5.802   5.719   4.895  1.0606 -0.4690  0.2800
  185POPC  H14R21221   5.841   5.807   4.951 -1.5036  1.4326 -0.6706
  185POPC  H14S21222   5.729   5.759   4.821  0.3494 -0.1832  1.1136
  185POPC  C21521223   5.917   5.657   4.819  0.0273  0.2633 -0.0847
  185POPC  H15R21224   5.885   5.560   4.776  1.7751  0.5842 -2.3225
  185POPC  H15S21225   6.010   5.634   4.876 -0.5230 -2.2203 -0.0949
  185POPC  C21621226   5.974   5.744   4.709  0.2002  1.1328  0.4029
  185POPC  H16R21227   6.011   5.838   4.756  1.2225 -0.3464  2.6952
  185POPC  H16S21228   5.898   5.767   4.631  0.7373  0.4660 -0.3266
  185POPC  C21721229   6.088   5.674   4.633  0.0867 -0.2033  0.0269
  185POPC  H17R21230   6.137   5.749   4.566 -2.5928  1.1338 -0.5704
  185POPC  H17S21231   6.050   5.600   4.559  0.1469 -0.7387  0.5279
  185POPC  C21821232   6.204   5.598   4.708 -0.5867  0.1892 -0.1564
  185POPC  H18R21233   6.242   5.665   4.788  1.7464 -1.1832 -0.0307
  185POPC  H18S21234   6.273   5.590   4.621 -0.4880  3.0364 -0.4412
  185POPC  H18T21235   6.170   5.498   4.743 -2.0983  0.6623 -0.1805
  185POPC   C3321236   5.491   5.197   6.202  0.3869 -0.6208 -0.3661
  185POPC   H3X21237   5.571   5.152   6.264 -0.2855 -0.7585  0.4090
  185POPC   H3Y21238   5.506   5.305   6.180 -3.0198  0.1219  0.3065
  185POPC   C3421239   5.483   5.115   6.074 -0.0949 -0.5204  0.0687
  185POPC   H4X21240   5.400   5.160   6.016 -1.0585 -1.1025  0.9631
  185POPC   H4Y21241   5.466   5.009   6.102  0.6643 -0.0458  2.5944
  185POPC   C3521242   5.612   5.143   5.995 -0.2013  0.3647 -0.3543
  185POPC   H5X21243   5.692   5.100   6.059  0.8089 -1.2936 -2.6012
  185POPC   H5Y21244   5.639   5.250   5.988  0.8735  0.0557 -0.9960
  185POPC   C3621245   5.621   5.085   5.853 -0.7250 -0.2794  0.9527
  185POPC   H6X21246   5.541   5.110   5.781 -0.7214 -3.0894 -0.1699
  185POPC   H6Y21247   5.628   4.975   5.870  2.4578  0.0402  2.5104
  185POPC   C3721248   5.758   5.120   5.801  0.4309 -0.1799  0.4188
  185POPC   H7X21249   5.834   5.055   5.850 -1.3032 -1.5957  1.3349
  185POPC   H7Y21250   5.784   5.223   5.835  2.3994 -0.6447  0.4817
  185POPC   C3821251   5.783   5.107   5.651  0.5463 -0.3450 -0.9888
  185POPC   H8X21252   5.688   5.086   5.598  0.2411 -3.7265  0.6546
  185POPC   H8Y21253   5.853   5.023   5.631  1.6872  0.4658 -0.4742
  185POPC   C3921254   5.860   5.225   5.597 -0.2739  0.3795  0.2795
  185POPC   H9X21255   5.944   5.254   5.663  0.5723  1.1284 -1.0966
  185POPC   H9Y21256   5.799   5.318   5.606 -0.7470  0.1377 -0.3417
  185POPC  C31021257   5.923   5.205   5.456 -0.1672 -0.4163 -0.6251
  185POPC  H10X21258   5.841   5.193   5.382 -0.8910 -0.5270  0.1805
  185POPC  H10Y21259   5.977   5.108   5.447 -0.9208 -0.8603 -0.4737
  185POPC  C31121260   6.017   5.317   5.422 -0.5478  0.0726 -0.4157
  185POPC  H11X21261   6.122   5.303   5.457 -0.4822 -0.2938 -0.7392
  185POPC  H11Y21262   5.989   5.408   5.479 -1.5120  0.3503 -1.2984
  185POPC  C31221263   5.999   5.363   5.281  0.4507 -0.0809  0.0470
  185POPC  H12X21264   6.042   5.464   5.266 -0.9508  0.3237 -1.4451
  185POPC  H12Y21265   5.894   5.371   5.245  0.6781  1.1592 -0.3644
  185POPC  C31321266   6.077   5.286   5.173  0.5950 -0.1262 -0.2433
  185POPC  H13X21267   6.048   5.179   5.172  2.5176 -0.6948 -0.0612
  185POPC  H13Y21268   6.186   5.289   5.195  0.3373 -0.1129  1.1467
  185POPC  C31421269   6.043   5.341   5.026 -0.1472 -0.1770 -0.1416
  185POPC  H14X21270   6.084   5.443   5.009 -1.8002  0.1937 -2.4229
  185POPC  H14Y21271   5.932   5.350   5.014 -0.1830 -1.3707 -0.9106
  185POPC  C31521272   6.096   5.256   4.908  0.0691 -0.5353  0.4864
  185POPC  H15X21273   6.051   5.293   4.813 -1.2619 -0.7664  0.9990
  185POPC  H15Y21274   6.047   5.156   4.913 -1.0432 -0.0276  0.1519
  185POPC  C31621275   6.242   5.241   4.888  0.3229 -0.8726 -0.3115
  185POPC  H16X21276   6.287   5.175   4.965  2.0793 -1.2835 -1.6239
  185POPC  H16Y21277   6.285   5.343   4.898 -2.0119  0.0098  1.8492
  185POPC  H16Z21278   6.252   5.208   4.782  0.9541 -0.9783 -0.2199
  186POPC     N21279   0.535   5.612   7.396 -0.1042 -0.0645  0.1086
  186POPC   C1221280   0.513   5.539   7.268  1.0018 -0.8175  0.1587
  186POPC  H12A21281   0.413   5.499   7.274  0.9597 -0.6997  0.2335
  186POPC  H12B21282   0.581   5.455   7.262  1.6571 -0.4695  2.2034
  186POPC   C1321283   0.427   5.716   7.420  0.1816  0.0919  0.0224
  186POPC  H13A21284   0.330   5.669   7.421  0.0522  0.1904 -2.0837
  186POPC  H13B21285   0.451   5.763   7.514  1.0146  0.6977 -0.4794
  186POPC  H13C21286   0.438   5.789   7.341  3.8421 -0.0873  0.1823
  186POPC   C1421287   0.525   5.505   7.500 -0.8343  0.6042 -0.0334
  186POPC  H14A21288   0.427   5.458   7.500 -1.6787  2.2519 -1.6727
  186POPC  H14B21289   0.598   5.427   7.481 -0.7496  0.6411  0.1350
  186POPC  H14C21290   0.561   5.534   7.598  1.1380 -2.5223  0.3177
  186POPC   C1521291   0.680   5.667   7.400 -0.7711  0.2177 -0.2490
  186POPC  H15A21292   0.749   5.604   7.346  2.2914  1.8909  1.3910
  186POPC  H15B21293   0.710   5.684   7.503  2.0556  1.6743 -1.2140
  186POPC  H15C21294   0.677   5.765   7.356  2.3529  0.5075 -0.0947
  186POPC   C1121295   0.529   5.622   7.142 -0.1690  0.8131 -0.0354
  186POPC  H11A21296   0.500   5.567   7.051  2.5348  0.4864 -0.7594
  186POPC  H11B21297   0.635   5.648   7.125  0.1466 -0.8468 -0.7282
  186POPC     P21298   0.297   5.723   7.087  0.0042 -0.3390  0.7307
  186POPC   O1321299   0.253   5.865   7.064  0.3447  0.6647 -0.3236
  186POPC   O1421300   0.217   5.641   7.182 -0.1768  0.7551 -0.7233
  186POPC   O1221301   0.446   5.733   7.144  0.0678 -0.3957 -0.0231
  186POPC   O1121302   0.314   5.645   6.941  0.0966 -0.2161 -0.0258
  186POPC    C121303   0.371   5.709   6.826 -0.3352 -0.2435  1.4073
  186POPC    HA21304   0.469   5.752   6.856 -0.6238  0.8027  0.9029
  186POPC    HB21305   0.304   5.791   6.792  0.7882  0.0424 -0.2067
  186POPC    C221306   0.384   5.610   6.707 -0.5238  0.5047  0.3268
  186POPC    HS21307   0.437   5.663   6.625 -2.6614  0.1286 -1.3789
  186POPC   O2121308   0.256   5.560   6.664 -0.7008 -0.3573 -0.1736
  186POPC   C2121309   0.198   5.630   6.566 -0.2024 -0.4320 -1.1750
  186POPC   O2221310   0.230   5.736   6.513  0.0772 -0.4921  0.2333
  186POPC   C2221311   0.059   5.570   6.547 -0.0958 -0.5754  0.2417
  186POPC   H2R21312   0.012   5.638   6.473  1.5590  0.8463  0.4120
  186POPC   H2S21313  -0.000   5.559   6.641 -1.7393 -2.6651 -0.9743
  186POPC    C321314   0.474   5.495   6.758 -0.5638 -0.9812  0.0265
  186POPC    HX21315   0.419   5.445   6.841 -0.1942 -1.1706  0.1620
  186POPC    HY21316   0.569   5.526   6.807 -2.3035 -0.6763  3.5513
  186POPC   O3121317   0.504   5.394   6.653  0.2471  0.6881  0.2590
  186POPC   C3121318   0.412   5.291   6.638 -0.2192 -0.2228 -0.1989
  186POPC   O3221319   0.327   5.258   6.716 -0.3239  0.4614 -0.4513
  186POPC   C3221320   0.463   5.207   6.523 -0.2342  0.1356  0.5300
  186POPC   H2X21321   0.573   5.191   6.527  0.3037  3.2872  1.1740
  186POPC   H2Y21322   0.437   5.250   6.424 -0.1725  0.2191  0.5491
  186POPC   C2321323   0.062   5.426   6.499 -0.6455  0.4184  0.2852
  186POPC   H3R21324  -0.044   5.409   6.472 -1.0116  1.6248  0.8883
  186POPC   H3S21325   0.100   5.356   6.576  2.1418  2.5723  1.0247
  186POPC   C2421326   0.149   5.393   6.380 -0.3110 -0.3563  0.1616
  186POPC   H4R21327   0.149   5.283   6.365  1.3356 -0.3997  0.3285
  186POPC   H4S21328   0.253   5.415   6.412 -0.3528  0.6684 -0.3613
  186POPC   C2521329   0.100   5.462   6.251 -0.0183  0.8571 -0.9344
  186POPC   H5R21330   0.178   5.436   6.176  0.3206  2.8744 -1.3502
  186POPC   H5S21331   0.100   5.573   6.255  2.1718  0.9486 -2.1482
  186POPC   C2621332  -0.040   5.406   6.204 -0.0243 -0.0387  0.5028
  186POPC   H6R21333  -0.119   5.472   6.246 -0.5129  1.1597 -2.0689
  186POPC   H6S21334  -0.062   5.306   6.245 -0.6853 -0.1146 -0.0138
  186POPC   C2721335  -0.056   5.409   6.051  0.2114 -0.4164 -0.3626
  186POPC   H7R21336  -0.124   5.322   6.036 -0.4429 -0.0961  0.5903
  186POPC   H7S21337   0.032   5.376   5.993  0.7960 -1.5477  1.0788
  186POPC   C2821338  -0.133   5.533   6.004 -0.3591 -0.4373  0.2242
  186POPC   H8R21339  -0.209   5.565   6.079  0.5943  0.1556  0.9515
  186POPC   H8S21340  -0.194   5.523   5.912 -1.6741  1.2683  0.8417
  186POPC   C2921341  -0.028   5.643   5.997  0.1141  0.5665 -0.1685
  186POPC   H9121342  -0.000   5.679   6.097 -1.7450 -2.0841  1.4135
  186POPC  C21021343   0.027   5.698   5.879 -0.8209  0.2243 -0.1194
  186POPC  H10121344   0.091   5.787   5.892  0.3240 -0.7068  0.9252
  186POPC  C21121345  -0.017   5.669   5.736  0.8980  0.8118 -0.0055
  186POPC  H11R21346  -0.007   5.559   5.732 -0.4043  0.6555  0.6336
  186POPC  H11S21347   0.061   5.704   5.665  2.3123  0.4735  1.3341
  186POPC  C21221348  -0.153   5.722   5.695  0.5414  0.0395  0.0436
  186POPC  H12R21349  -0.149   5.833   5.692  2.2340 -0.0047 -3.0880
  186POPC  H12S21350  -0.236   5.693   5.764  1.0984  0.9056  1.0978
  186POPC  C21321351  -0.189   5.667   5.555  0.1610  0.1193  0.3244
  186POPC  H13R21352  -0.209   5.558   5.567 -0.3976  0.0729 -0.8058
  186POPC  H13S21353  -0.097   5.671   5.493 -0.4637  0.8884 -0.5923
  186POPC  C21421354  -0.295   5.746   5.478  0.3910  0.1006  0.2132
  186POPC  H14R21355  -0.243   5.844   5.472 -0.6124  0.6047 -0.6423
  186POPC  H14S21356  -0.392   5.773   5.526  0.9664  3.4522 -0.2522
  186POPC  C21521357  -0.314   5.671   5.347 -0.2362  0.9585 -0.4893
  186POPC  H15R21358  -0.377   5.581   5.364  0.9711  0.2420  0.3671
  186POPC  H15S21359  -0.215   5.656   5.299  0.5243 -0.3628  1.3833
  186POPC  C21621360  -0.364   5.759   5.231 -0.4626  0.1822 -0.5964
  186POPC  H16R21361  -0.302   5.851   5.228 -0.6642  0.3055 -1.0345
  186POPC  H16S21362  -0.470   5.788   5.248 -0.8043 -1.6116  0.6521
  186POPC  C21721363  -0.373   5.692   5.097 -0.0780 -0.0601  0.9487
  186POPC  H17R21364  -0.269   5.664   5.070  1.1235  2.9183  2.1055
  186POPC  H17S21365  -0.404   5.775   5.029  0.3401  0.0757  0.9195
  186POPC  C21821366  -0.470   5.579   5.082  0.5198  0.4454  0.7916
  186POPC  H18R21367  -0.446   5.521   4.990 -0.6674  1.3890 -0.1602
  186POPC  H18S21368  -0.571   5.626   5.081  0.7018  0.9401 -1.9912
  186POPC  H18T21369  -0.464   5.503   5.162  0.5240 -1.7426 -1.1768
  186POPC   C3321370   0.388   5.072   6.514 -0.3430  0.4215  0.1913
  186POPC   H3X21371   0.278   5.089   6.509 -0.3449 -0.0331 -3.0915
  186POPC   H3Y21372   0.422   5.014   6.603  1.5716 -3.7928 -2.9499
  186POPC   C3421373   0.413   4.983   6.387 -0.1452 -0.1598 -0.5121
  186POPC   H4X21374   0.374   4.882   6.409 -0.4974 -0.4967 -2.4344
  186POPC   H4Y21375   0.523   4.991   6.377  0.1962 -0.9664  1.9929
  186POPC   C3521376   0.335   5.033   6.257  0.5542 -0.1897  0.1069
  186POPC   H5X21377   0.375   5.130   6.222  1.1697 -1.1431 -2.0211
  186POPC   H5Y21378   0.233   5.066   6.284  0.2103 -0.0995 -1.1970
  186POPC   C3621379   0.332   4.941   6.139 -0.4690 -0.9325 -0.2623
  186POPC   H6X21380   0.282   4.850   6.180 -0.7704  0.1126  1.8469
  186POPC   H6Y21381   0.437   4.915   6.113 -0.5303  0.0820 -1.6298
  186POPC   C3721382   0.264   4.990   6.006  0.2759  0.2484 -0.3886
  186POPC   H7X21383   0.155   4.988   6.030  1.0633 -1.6087  3.9726
  186POPC   H7Y21384   0.288   4.911   5.933  1.4398  0.8919 -0.7246
  186POPC   C3821385   0.304   5.130   5.959 -0.6232 -0.8641  0.0369
  186POPC   H8X21386   0.415   5.138   5.950 -0.8030  3.6682 -0.6774
  186POPC   H8Y21387   0.274   5.200   6.040  1.2513 -1.5910  1.4690
  186POPC   C3921388   0.235   5.174   5.821 -0.0801  0.3537  0.1027
  186POPC   H9X21389   0.126   5.159   5.839 -0.3551  3.8597  2.2269
  186POPC   H9Y21390   0.261   5.117   5.729 -0.5710 -0.5967  0.5293
  186POPC  C31021391   0.268   5.320   5.798 -0.4292 -0.9253 -0.3431
  186POPC  H10X21392   0.378   5.317   5.784 -0.4105 -0.9822 -0.1812
  186POPC  H10Y21393   0.248   5.380   5.889 -1.1036 -0.0163 -1.0710
  186POPC  C31121394   0.193   5.370   5.681  0.5468  0.1698  0.1612
  186POPC  H11X21395   0.205   5.480   5.680  1.5470  0.0739 -1.2001
  186POPC  H11Y21396   0.084   5.355   5.700  0.9727  0.0533  2.8569
  186POPC  C31221397   0.245   5.328   5.549 -0.1431  0.0275  0.0980
  186POPC  H12X21398   0.223   5.220   5.536 -0.6740 -0.1713  2.3026
  186POPC  H12Y21399   0.354   5.344   5.538  0.1830 -1.4291  0.9054
  186POPC  C31321400   0.167   5.402   5.440 -0.4095 -0.1793 -0.5535
  186POPC  H13X21401   0.216   5.501   5.427  2.2866 -1.1913  0.9776
  186POPC  H13Y21402   0.066   5.418   5.484 -0.7141 -1.5440 -0.6971
  186POPC  C31421403   0.158   5.341   5.300 -0.2264  0.3740  0.4277
  186POPC  H14X21404   0.099   5.402   5.229  0.8187 -0.0022 -0.7966
  186POPC  H14Y21405   0.094   5.251   5.313 -0.7690  0.3711 -1.8940
  186POPC  C31521406   0.291   5.304   5.248 -0.0253  0.0832 -0.1900
  186POPC  H15X21407   0.280   5.218   5.178 -0.0710 -1.0589  1.1797
  186POPC  H15Y21408   0.361   5.258   5.321 -1.2641 -2.3925 -0.4486
  186POPC  C31621409   0.345   5.409   5.165  0.1400  0.1469 -0.2707
  186POPC  H16X21410   0.440   5.374   5.119  0.5416  1.0978 -0.1994
  186POPC  H16Y21411   0.365   5.489   5.239 -1.1689  1.2103 -1.0228
  186POPC  H16Z21412   0.266   5.443   5.095  0.1573  0.3897 -0.1730
  187POPC     N21413   1.175   4.492   2.591  0.1064 -0.4254  1.0034
  187POPC   C1221414   1.185   4.373   2.680  0.8444 -0.4512 -0.0682
  187POPC  H12A21415   1.252   4.398   2.761 -0.2870  1.4824  0.3325
  187POPC  H12B21416   1.247   4.298   2.633  0.0947 -2.0662  1.4371
  187POPC   C1321417   1.132   4.455   2.452  0.4108 -0.0476 -0.7304
  187POPC  H13A21418   1.171   4.357   2.428  0.4542 -0.6794  1.6494
  187POPC  H13B21419   1.026   4.435   2.459  0.2361  1.2774  1.5091
  187POPC  H13C21420   1.143   4.530   2.376 -0.0839  1.8219  0.9526
  187POPC   C1421421   1.091   4.605   2.634 -0.5014  0.5054 -0.5793
  187POPC  H14A21422   1.078   4.671   2.550 -2.2122 -1.7136 -2.2010
  187POPC  H14B21423   0.997   4.561   2.665 -0.6578  0.4215 -1.1453
  187POPC  H14C21424   1.122   4.651   2.726  1.1905  0.7132 -1.2284
  187POPC   C1521425   1.317   4.544   2.566  0.9524 -0.3097  0.7438
  187POPC  H15A21426   1.311   4.633   2.505 -3.1493 -1.3198 -0.7185
  187POPC  H15B21427   1.378   4.480   2.503 -2.8499 -2.4472 -1.1911
  187POPC  H15C21428   1.360   4.568   2.661  0.6280  4.5874 -0.1221
  187POPC   C1121429   1.062   4.293   2.716  0.3124 -0.3013  0.2531
  187POPC  H11A21430   0.999   4.357   2.781  1.5692  0.5312  0.7045
  187POPC  H11B21431   1.098   4.202   2.769 -2.5428 -1.9414 -0.4318
  187POPC     P21432   0.859   4.163   2.610 -0.0015  0.0018  0.0778
  187POPC   O1321433   0.900   4.028   2.656  0.1388 -0.1209 -0.4864
  187POPC   O1421434   0.788   4.184   2.484 -0.2457  0.7133  0.6916
  187POPC   O1221435   0.993   4.242   2.596  0.1169  0.7431 -0.1040
  187POPC   O1121436   0.790   4.226   2.743  0.1024 -0.7006 -0.5154
  187POPC    C121437   0.719   4.353   2.727  0.2843  0.0577  0.3958
  187POPC    HA21438   0.654   4.350   2.636  0.5347  1.8677  0.1160
  187POPC    HB21439   0.787   4.436   2.698 -0.9987  1.6189  1.6847
  187POPC    C221440   0.629   4.399   2.847  0.2542 -0.0499  0.2953
  187POPC    HS21441   0.605   4.507   2.836 -0.6588 -0.3295 -0.6587
  187POPC   O2121442   0.696   4.373   2.968 -0.6865 -0.1614 -1.3212
  187POPC   C2121443   0.808   4.447   2.992 -0.5331  0.6528 -0.6228
  187POPC   O2221444   0.846   4.540   2.930 -0.6492 -0.5827  0.6512
  187POPC   C2221445   0.896   4.387   3.097  0.2687  0.2716 -0.3120
  187POPC   H2R21446   0.963   4.470   3.126  0.0786 -0.4538  2.4395
  187POPC   H2S21447   0.959   4.311   3.046 -0.1338  1.5037 -2.8155
  187POPC    C321448   0.500   4.311   2.838  0.5598 -0.4521  0.1691
  187POPC    HX21449   0.527   4.214   2.790 -0.9419 -1.1096  0.6251
  187POPC    HY21450   0.427   4.354   2.766  1.7674  0.9958 -0.2436
  187POPC   O3121451   0.443   4.299   2.971  0.1693  0.0340 -0.2515
  187POPC   C3121452   0.477   4.198   3.040  1.0408  0.6010 -0.4394
  187POPC   O3221453   0.544   4.103   3.012 -0.1616 -0.0883  0.0958
  187POPC   C3221454   0.409   4.213   3.181 -0.3369 -0.3309 -0.1910
  187POPC   H2X21455   0.368   4.110   3.185 -1.9962  0.2650 -0.7408
  187POPC   H2Y21456   0.328   4.289   3.173  1.4513  1.6813  0.1397
  187POPC   C2321457   0.822   4.334   3.217  0.4404 -0.4654 -0.7960
  187POPC   H3R21458   0.761   4.244   3.195 -3.2758  0.8518  2.7671
  187POPC   H3S21459   0.748   4.406   3.258  1.1265 -0.6603  0.8685
  187POPC   C2421460   0.918   4.286   3.333 -0.0944 -0.6301 -0.3932
  187POPC   H4R21461   0.966   4.377   3.376 -1.0324 -0.5049  0.4556
  187POPC   H4S21462   0.999   4.219   3.298  1.9743  1.2328  0.5711
  187POPC   C2521463   0.842   4.225   3.451 -0.7848  0.0951 -0.2838
  187POPC   H5R21464   0.784   4.137   3.417 -1.3372 -0.1885  1.2926
  187POPC   H5S21465   0.771   4.300   3.492 -0.6112  0.4794 -0.6755
  187POPC   C2621466   0.937   4.157   3.555 -0.2670 -0.2822  0.3538
  187POPC   H6R21467   1.011   4.225   3.602  0.4415 -1.4395  0.9610
  187POPC   H6S21468   1.006   4.090   3.500 -1.7333 -2.5638  1.1444
  187POPC   C2721469   0.867   4.065   3.653 -0.0465  0.1665  0.1653
  187POPC   H7R21470   0.815   3.984   3.598  1.3226  0.5926 -1.8579
  187POPC   H7S21471   0.786   4.130   3.695 -0.0888  0.5706 -0.5243
  187POPC   C2821472   0.970   4.008   3.746  0.1591 -0.1809  0.6959
  187POPC   H8R21473   1.057   4.076   3.757  0.0307 -0.2095  2.1110
  187POPC   H8S21474   1.016   3.911   3.717 -2.8659 -1.5819  0.1823
  187POPC   C2921475   0.906   4.008   3.881 -0.0649  0.4669  0.3413
  187POPC   H9121476   0.867   3.906   3.898  0.8329 -0.0536 -0.5895
  187POPC  C21021477   0.897   4.107   3.970  0.2758 -0.6455  0.2768
  187POPC  H10121478   0.829   4.102   4.056  0.8511  2.1248  1.0157
  187POPC  C21121479   0.956   4.241   3.946  0.9085 -0.3732  0.3994
  187POPC  H11R21480   0.870   4.311   3.958  1.0760 -0.3032  1.2902
  187POPC  H11S21481   0.985   4.270   3.843  0.1100 -1.2214 -0.0777
  187POPC  C21221482   1.063   4.291   4.047 -0.0587  0.5305 -0.6546
  187POPC  H12R21483   1.091   4.391   4.005  0.1146  0.6175 -0.3287
  187POPC  H12S21484   1.157   4.233   4.042 -1.6406 -2.5419  1.8077
  187POPC  C21321485   1.018   4.314   4.190 -0.3092  0.4455 -0.3427
  187POPC  H13R21486   1.002   4.215   4.237 -0.8369  0.2807 -0.8583
  187POPC  H13S21487   0.919   4.363   4.200 -1.3113 -1.8487  2.3034
  187POPC  C21421488   1.126   4.387   4.262  0.5607  0.2485  0.9515
  187POPC  H14R21489   1.149   4.485   4.215 -1.0682  0.1526 -0.1316
  187POPC  H14S21490   1.218   4.327   4.249  0.3632  0.3649 -1.4214
  187POPC  C21521491   1.092   4.417   4.403 -0.1951  0.9517 -0.3441
  187POPC  H15R21492   1.042   4.334   4.457  4.0303 -0.4698  1.7328
  187POPC  H15S21493   1.022   4.503   4.416  0.4442  1.4438 -0.1017
  187POPC  C21621494   1.214   4.439   4.497  0.7482  0.0031  0.0215
  187POPC  H16R21495   1.184   4.478   4.597 -1.0870 -0.7266 -0.2064
  187POPC  H16S21496   1.269   4.525   4.451 -0.7854  2.7992  2.9902
  187POPC  C21721497   1.301   4.315   4.517 -0.0168 -0.0411  0.1618
  187POPC  H17R21498   1.320   4.276   4.414 -0.0916  1.2697 -0.3621
  187POPC  H17S21499   1.236   4.234   4.558 -1.0562 -1.3846 -3.6790
  187POPC  C21821500   1.434   4.330   4.595 -0.0732  0.2265  0.8824
  187POPC  H18R21501   1.411   4.336   4.704 -0.3872 -1.3746  0.9375
  187POPC  H18S21502   1.487   4.417   4.553 -2.8956  1.4995 -0.2963
  187POPC  H18T21503   1.502   4.242   4.587  1.0477  1.2523 -1.4993
  187POPC   C3321504   0.494   4.241   3.304 -0.6116  0.2020  0.6809
  187POPC   H3X21505   0.541   4.341   3.297  0.4059 -0.2231  1.2467
  187POPC   H3Y21506   0.571   4.162   3.301 -0.2987  0.5331 -0.9020
  187POPC   C3421507   0.409   4.245   3.432  0.1730 -0.7009 -0.2008
  187POPC   H4X21508   0.351   4.151   3.439 -1.9707  0.5360 -0.4055
  187POPC   H4Y21509   0.330   4.323   3.427  1.7114  0.8301 -3.6573
  187POPC   C3521510   0.490   4.288   3.548 -0.5552  0.1126 -0.2904
  187POPC   H5X21511   0.551   4.377   3.521  0.4776 -0.0257  1.4500
  187POPC   H5Y21512   0.563   4.213   3.587 -2.0697 -0.5639  1.3479
  187POPC   C3621513   0.400   4.333   3.660  0.2472  0.2085 -0.5152
  187POPC   H6X21514   0.335   4.255   3.706  0.4615  0.8693  0.9818
  187POPC   H6Y21515   0.317   4.392   3.616 -0.2196  1.3772  1.7387
  187POPC   C3721516   0.455   4.415   3.784  0.0845  0.4851  0.0490
  187POPC   H7X21517   0.373   4.453   3.849  1.3503  2.3135  0.6565
  187POPC   H7Y21518   0.497   4.507   3.737  1.6129 -0.4311 -0.4260
  187POPC   C3821519   0.563   4.341   3.873  0.4007  0.1981  0.8290
  187POPC   H8X21520   0.653   4.318   3.812 -0.8067 -0.1469 -0.9227
  187POPC   H8Y21521   0.509   4.247   3.896 -0.6250  1.3367  3.3452
  187POPC   C3921522   0.601   4.415   3.997  0.1981  0.3560  0.5277
  187POPC   H9X21523   0.674   4.357   4.059  1.4759 -1.2498 -2.3047
  187POPC   H9Y21524   0.512   4.431   4.061 -0.2136  1.2446 -0.2557
  187POPC  C31021525   0.662   4.551   3.959  0.3174 -0.6839 -0.2083
  187POPC  H10X21526   0.581   4.611   3.912  0.1227 -1.7153 -1.2227
  187POPC  H10Y21527   0.729   4.533   3.872 -0.2923 -1.3939 -0.5413
  187POPC  C31121528   0.718   4.636   4.069  0.9967 -0.2230  0.4851
  187POPC  H11X21529   0.731   4.736   4.022  2.1008 -0.9956 -0.9410
  187POPC  H11Y21530   0.822   4.603   4.090  0.9036 -1.1963 -0.4812
  187POPC  C31221531   0.628   4.648   4.185 -0.7844  0.8368 -0.5654
  187POPC  H12X21532   0.592   4.559   4.240  0.6157 -0.6012 -1.8428
  187POPC  H12Y21533   0.540   4.699   4.140 -0.5450  2.7246  0.9870
  187POPC  C31321534   0.684   4.737   4.298  0.3021 -0.2756 -0.1368
  187POPC  H13X21535   0.741   4.816   4.245  3.1496 -0.9014  1.7526
  187POPC  H13Y21536   0.754   4.675   4.357 -0.0444 -1.2786 -0.7598
  187POPC  C31421537   0.565   4.795   4.379 -0.4397 -0.2463  0.9009
  187POPC  H14X21538   0.497   4.728   4.435 -1.4198 -0.2088 -0.2003
  187POPC  H14Y21539   0.486   4.840   4.314 -1.6209 -1.9121  1.1188
  187POPC  C31521540   0.624   4.890   4.478  0.3185 -0.7068  0.6184
  187POPC  H15X21541   0.675   4.971   4.422 -3.0145  0.7076 -0.6099
  187POPC  H15Y21542   0.698   4.847   4.549  0.5410 -0.2415  0.6674
  187POPC  C31621543   0.506   4.946   4.558 -0.1625 -0.8928  0.0570
  187POPC  H16X21544   0.540   5.037   4.612  0.7108 -0.6827 -0.8149
  187POPC  H16Y21545   0.453   4.869   4.618 -0.4682 -0.5243  0.2624
  187POPC  H16Z21546   0.443   4.986   4.476 -0.1570  0.7319  0.8032
  188POPC     N21547   2.306   3.417   2.242  0.1581 -0.9797 -0.0437
  188POPC   C1221548   2.250   3.511   2.348  0.1071  0.0348  0.6348
  188POPC  H12A21549   2.144   3.520   2.326 -0.4111  1.1890  3.2912
  188POPC  H12B21550   2.295   3.608   2.339 -1.8702  0.8939 -0.8762
  188POPC   C1321551   2.449   3.399   2.257  0.2803  0.0246  0.5745
  188POPC  H13A21552   2.504   3.487   2.227  1.8184 -0.8692  0.6874
  188POPC  H13B21553   2.472   3.384   2.361  1.0908  0.3464  0.4498
  188POPC  H13C21554   2.480   3.312   2.202  1.0191  1.3114 -1.1240
  188POPC   C1421555   2.242   3.285   2.255 -0.1967  0.6537  0.3976
  188POPC  H14A21556   2.272   3.222   2.173  3.0072 -0.0386  1.9359
  188POPC  H14B21557   2.286   3.226   2.334  1.4016 -0.5129 -1.2722
  188POPC  H14C21558   2.134   3.288   2.261 -0.1882  1.8336  0.1810
  188POPC   C1521559   2.269   3.477   2.104  0.8486  0.2937  0.6679
  188POPC  H15A21560   2.303   3.416   2.022 -0.7521 -0.4051  0.4839
  188POPC  H15B21561   2.304   3.578   2.086  0.1398  0.2466 -1.2105
  188POPC  H15C21562   2.163   3.481   2.084  1.1004  1.5672 -0.6448
  188POPC   C1121563   2.261   3.466   2.494 -0.9212  0.3189 -0.3387
  188POPC  H11A21564   2.247   3.356   2.507  2.8852 -0.4539 -1.3867
  188POPC  H11B21565   2.190   3.517   2.563 -0.5586  1.4471 -0.7861
  188POPC     P21566   2.449   3.473   2.679  0.0905  0.3023 -0.1741
  188POPC   O1321567   2.515   3.599   2.718  0.1927 -0.5034 -0.0265
  188POPC   O1421568   2.534   3.354   2.665 -0.2958 -0.0154 -0.0515
  188POPC   O1221569   2.394   3.493   2.531  0.2379  0.2570 -0.2605
  188POPC   O1121570   2.339   3.433   2.789  0.2401 -0.1273 -0.4770
  188POPC    C121571   2.290   3.297   2.803 -0.8485  0.4885 -0.8029
  188POPC    HA21572   2.326   3.230   2.722 -0.8555 -0.2145 -0.2313
  188POPC    HB21573   2.179   3.299   2.796 -0.8703  1.9114 -0.3857
  188POPC    C221574   2.322   3.234   2.942 -0.0277  0.5661 -0.9582
  188POPC    HS21575   2.301   3.126   2.934 -3.3917  1.1283 -1.1452
  188POPC   O2121576   2.232   3.296   3.041  0.1125  0.1894  0.4921
  188POPC   C2121577   2.188   3.213   3.129  0.5946 -0.5221 -0.1085
  188POPC   O2221578   2.190   3.091   3.126 -0.1254 -0.5855 -0.2418
  188POPC   C2221579   2.132   3.293   3.245 -0.2556 -0.3087  0.6541
  188POPC   H2R21580   2.037   3.240   3.264 -0.2734 -1.5907 -2.4404
  188POPC   H2S21581   2.101   3.395   3.212 -2.1612 -1.0657 -0.0193
  188POPC    C321582   2.465   3.268   2.995  0.3949  0.1742 -0.4009
  188POPC    HX21583   2.470   3.379   3.003  2.5385  0.1070 -0.2147
  188POPC    HY21584   2.546   3.238   2.924  0.3220 -1.5282  0.1975
  188POPC   O3121585   2.492   3.210   3.127  0.3721  0.7109 -0.2423
  188POPC   C3121586   2.512   3.079   3.126 -0.0041 -0.1380 -0.1875
  188POPC   O3221587   2.533   3.011   3.027  0.1116  0.2441 -0.2671
  188POPC   C3221588   2.500   3.024   3.273 -0.1478 -0.2253  0.3953
  188POPC   H2X21589   2.555   2.928   3.261 -0.9920 -0.5836 -0.9554
  188POPC   H2Y21590   2.390   3.021   3.287 -0.0629  0.9722  1.4456
  188POPC   C2321591   2.232   3.306   3.362  0.0718 -0.3688  0.3231
  188POPC   H3R21592   2.322   3.368   3.344  0.5558  0.4897  4.5465
  188POPC   H3S21593   2.264   3.203   3.389 -0.7269 -1.3742 -2.2268
  188POPC   C2421594   2.163   3.368   3.487  0.0895 -0.1298  0.7630
  188POPC   H4R21595   2.059   3.332   3.503 -0.2040  1.5524  3.2256
  188POPC   H4S21596   2.149   3.476   3.463  0.3734 -0.1926  0.3108
  188POPC   C2521597   2.238   3.349   3.619  0.1480  0.2513 -0.0856
  188POPC   H5R21598   2.347   3.371   3.609  0.4211 -1.0829 -0.1890
  188POPC   H5S21599   2.220   3.241   3.641 -0.2225  0.7490  2.3616
  188POPC   C2621600   2.181   3.439   3.730 -0.1205 -0.2433  0.6042
  188POPC   H6R21601   2.071   3.432   3.718 -0.5566 -2.8015  4.4991
  188POPC   H6S21602   2.211   3.546   3.728 -1.2987  0.1155  1.2377
  188POPC   C2721603   2.208   3.384   3.870 -0.4756 -0.2427  0.9118
  188POPC   H7R21604   2.201   3.273   3.866 -0.9519 -0.2299  1.2725
  188POPC   H7S21605   2.121   3.422   3.929 -1.7446  0.3517 -1.2565
  188POPC   C2821606   2.349   3.437   3.920  0.1958  0.2041 -0.5382
  188POPC   H8R21607   2.421   3.395   3.847 -1.3397 -0.1035 -1.9559
  188POPC   H8S21608   2.377   3.383   4.013 -0.7046  2.2989  1.0124
  188POPC   C2921609   2.349   3.579   3.943 -0.1595 -1.0592 -0.0793
  188POPC   H9121610   2.277   3.620   4.016 -0.7301 -1.0015 -0.6660
  188POPC  C21021611   2.451   3.658   3.910  0.1033 -0.2036 -0.1419
  188POPC  H10121612   2.434   3.766   3.912 -0.5397 -0.2857 -0.8747
  188POPC  C21121613   2.576   3.612   3.835  0.1254 -0.4049 -0.5287
  188POPC  H11R21614   2.590   3.503   3.849 -0.4814 -0.5954 -1.3475
  188POPC  H11S21615   2.668   3.657   3.877  0.0278 -1.4204  0.8383
  188POPC  C21221616   2.584   3.645   3.686 -0.0330 -0.2233 -0.4238
  188POPC  H12R21617   2.590   3.756   3.680  0.1879 -0.2104 -0.0210
  188POPC  H12S21618   2.489   3.613   3.637 -0.5918  1.9127 -0.8491
  188POPC  C21321619   2.691   3.557   3.618 -0.1307 -0.1288 -0.2857
  188POPC  H13R21620   2.681   3.456   3.662 -1.2375  0.8922  1.9566
  188POPC  H13S21621   2.797   3.592   3.623  0.2827 -1.1120 -1.7128
  188POPC  C21421622   2.658   3.533   3.467 -0.0098  0.2684  0.2579
  188POPC  H14R21623   2.674   3.633   3.421  0.3877  1.0871  2.0787
  188POPC  H14S21624   2.555   3.495   3.449 -0.5237  2.4636 -1.9581
  188POPC  C21521625   2.755   3.439   3.392 -0.5523  0.1589 -1.1931
  188POPC  H15R21626   2.725   3.333   3.393 -1.1487  0.3217  0.0898
  188POPC  H15S21627   2.852   3.450   3.446 -1.9272  2.4341  1.0293
  188POPC  C21621628   2.774   3.485   3.243  0.1994  0.1439  0.4857
  188POPC  H16R21629   2.835   3.577   3.231 -0.1814  0.9292  3.7999
  188POPC  H16S21630   2.674   3.513   3.204  0.3467  0.6927  0.4941
  188POPC  C21721631   2.824   3.383   3.140  0.0435  0.3744  0.6664
  188POPC  H17R21632   2.849   3.433   3.044  0.9419 -0.5039  0.4207
  188POPC  H17S21633   2.746   3.309   3.114  1.2956 -0.1785 -1.8443
  188POPC  C21821634   2.950   3.310   3.176  0.2024 -0.2581  0.0807
  188POPC  H18R21635   2.930   3.256   3.271 -0.0482  0.8588  0.6746
  188POPC  H18S21636   3.034   3.382   3.183  0.5535 -0.7528  1.2848
  188POPC  H18T21637   2.972   3.233   3.098 -1.2204 -0.5579 -0.0434
  188POPC   C3321638   2.562   3.106   3.382  0.0082  0.9174 -0.1171
  188POPC   H3X21639   2.548   3.217   3.380 -1.4948  0.7483 -1.4526
  188POPC   H3Y21640   2.671   3.088   3.388 -0.5048 -2.1891  3.3074
  188POPC   C3421641   2.530   3.051   3.525 -0.4031 -0.3869 -0.1321
  188POPC   H4X21642   2.560   2.944   3.523  2.6254  0.3462  1.2394
  188POPC   H4Y21643   2.422   3.074   3.534 -0.0634  1.8492 -1.0482
  188POPC   C3521644   2.605   3.124   3.632 -0.3630 -0.6750 -0.0895
  188POPC   H5X21645   2.587   3.233   3.618  0.8479 -0.6146 -1.4567
  188POPC   H5Y21646   2.713   3.105   3.612 -0.3253  0.8838 -1.5608
  188POPC   C3621647   2.570   3.062   3.769  0.4760  0.4915 -0.1942
  188POPC   H6X21648   2.610   2.958   3.763  0.2859  0.4184 -0.2224
  188POPC   H6Y21649   2.459   3.063   3.780  0.2857 -2.6223 -0.8760
  188POPC   C3721650   2.643   3.125   3.888  0.1520 -0.4372  0.1697
  188POPC   H7X21651   2.651   3.235   3.896  1.6547 -0.5384  0.5192
  188POPC   H7Y21652   2.750   3.096   3.880  0.3367  0.6984 -2.3894
  188POPC   C3821653   2.591   3.088   4.023  0.3335 -0.2158 -0.5054
  188POPC   H8X21654   2.497   3.144   4.044  0.7411  0.6652 -1.0039
  188POPC   H8Y21655   2.671   3.108   4.098  0.1515 -1.0340 -0.0790
  188POPC   C3921656   2.533   2.944   4.038 -0.2349 -0.2444  0.8360
  188POPC   H9X21657   2.615   2.870   4.024 -0.2523 -0.4989  2.0333
  188POPC   H9Y21658   2.462   2.926   3.955  1.4438  0.9819 -0.9702
  188POPC  C31021659   2.457   2.926   4.162 -0.2987  0.3328  0.0583
  188POPC  H10X21660   2.429   2.819   4.163 -0.2598  0.3194 -0.3026
  188POPC  H10Y21661   2.359   2.979   4.157 -0.0381  1.1954  2.5329
  188POPC  C31121662   2.522   2.970   4.302  0.5059  0.3700  0.2403
  188POPC  H11X21663   2.522   3.081   4.296 -3.4438  0.5105  0.0589
  188POPC  H11Y21664   2.622   2.923   4.308  0.0713 -0.8572 -1.2663
  188POPC  C31221665   2.444   2.924   4.426 -0.2646 -0.9653 -0.0365
  188POPC  H12X21666   2.392   2.831   4.395  0.5342 -1.4552  0.0430
  188POPC  H12Y21667   2.365   2.995   4.459 -0.0334  1.1123 -3.4791
  188POPC  C31321668   2.534   2.895   4.547  0.4537 -0.1689  0.5749
  188POPC  H13X21669   2.470   2.893   4.637 -1.7951 -1.2637 -0.9486
  188POPC  H13Y21670   2.600   2.984   4.554  1.5497 -0.8914 -0.2637
  188POPC  C31421671   2.615   2.758   4.536  0.4769 -0.2033  0.2464
  188POPC  H14X21672   2.683   2.764   4.447  0.4605  0.0280  0.2486
  188POPC  H14Y21673   2.547   2.673   4.516  0.8982  0.2231 -4.1051
  188POPC  C31521674   2.714   2.743   4.650  0.1363  0.0912  0.4636
  188POPC  H15X21675   2.787   2.827   4.645  0.4828 -0.2796 -1.0452
  188POPC  H15Y21676   2.780   2.655   4.631  0.4599  0.1674  1.1924
  188POPC  C31621677   2.659   2.728   4.787 -0.6705  0.1115  0.5809
  188POPC  H16X21678   2.605   2.822   4.812  1.8926  1.4687  1.3406
  188POPC  H16Y21679   2.743   2.731   4.860  0.9131 -0.5590 -1.1260
  188POPC  H16Z21680   2.589   2.642   4.789 -1.2606  0.5994  1.8123
  189SAPI   C1221681   0.170   5.010   6.981  0.3106  0.0565  0.1385
  189SAPI    H221682   0.102   5.044   7.062 -1.5438 -3.7420  0.3614
  189SAPI    O221683   0.261   5.118   6.952 -0.1778 -0.4062 -0.4768
  189SAPI   HO221684   0.245   5.150   6.863  2.2787 -2.2897 -1.7076
  189SAPI   C1321685   0.251   4.888   7.014 -0.1215  0.8055  0.3133
  189SAPI    H321686   0.177   4.814   7.052  0.7537  0.1567  0.7975
  189SAPI    O321687   0.333   4.910   7.131 -0.1158  0.1665  0.7892
  189SAPI   HO321688   0.351   4.826   7.173  1.0223 -0.6319 -1.1650
  189SAPI   C1421689   0.325   4.836   6.894  0.1289  1.0273  0.2001
  189SAPI    H421690   0.391   4.912   6.847  1.4105 -0.4220 -0.4260
  189SAPI    O421691   0.397   4.715   6.939  0.2584  0.7912  0.4297
  189SAPI   HO421692   0.416   4.659   6.864 -1.0579 -1.0093  1.3675
  189SAPI   C1521693   0.239   4.807   6.771  0.3749 -0.1495 -0.6162
  189SAPI    H521694   0.165   4.729   6.801  1.0965 -1.0910 -1.2285
  189SAPI    O521695   0.312   4.767   6.664 -1.0199 -0.0131  0.0197
  189SAPI   HO521696   0.267   4.782   6.580  1.5674  2.9457 -1.0396
  189SAPI   C1621697   0.151   4.928   6.740 -0.0229  0.0063 -0.2931
  189SAPI    H621698   0.226   5.000   6.702  0.1246 -0.5851 -1.1654
  189SAPI    O621699   0.065   4.902   6.636  0.5526  0.0856  0.2346
  189SAPI   HO621700   0.004   4.974   6.620 -1.7925 -2.1351 -1.6709
  189SAPI   C1121701   0.078   4.985   6.863 -0.5693  0.3555 -0.0852
  189SAPI    H121702   0.003   4.908   6.891  1.9642 -2.1047  0.3971
  189SAPI     P21703  -0.151   5.119   6.808 -0.2980 -0.5575  0.3399
  189SAPI   O1321704  -0.196   5.256   6.798 -0.4343 -0.1158 -0.3461
  189SAPI   O1421705  -0.214   5.037   6.910 -0.1414  0.6993 -0.4484
  189SAPI   O1221706   0.014   5.111   6.834  0.1215  0.0562 -0.1800
  189SAPI   O1121707  -0.152   5.048   6.665  0.5145 -0.1724 -0.2886
  189SAPI    C121708  -0.278   4.998   6.611  0.2126 -0.1238 -0.5026
  189SAPI    HA21709  -0.263   4.893   6.579 -1.0423 -0.2889 -0.6048
  189SAPI    HB21710  -0.364   5.003   6.681  0.9720 -0.4457  0.4778
  189SAPI    C221711  -0.328   5.080   6.489 -0.0957 -0.2226 -0.0656
  189SAPI    HS21712  -0.398   5.159   6.526  1.4181  0.4191  1.5823
  189SAPI   O2121713  -0.403   4.990   6.398  0.3925  0.3507  0.0441
  189SAPI   C2121714  -0.509   4.924   6.457 -1.3444  0.0671 -0.4626
  189SAPI   O2221715  -0.555   4.953   6.565  0.0139  0.3933  0.3876
  189SAPI   C2221716  -0.551   4.804   6.376  0.0724  0.1000 -0.3429
  189SAPI   H2R21717  -0.548   4.842   6.272  1.3958 -1.2639 -0.8406
  189SAPI   H2S21718  -0.472   4.726   6.374  0.8903  0.8941  0.1848
  189SAPI    C321719  -0.220   5.143   6.400  0.8415  0.5041 -0.4262
  189SAPI    HX21720  -0.135   5.078   6.371 -0.8136 -1.5154 -0.9982
  189SAPI    HY21721  -0.169   5.214   6.469 -0.4046 -1.1185  2.3685
  189SAPI   O3121722  -0.272   5.197   6.278  0.1219 -0.1720  0.3072
  189SAPI   C3121723  -0.339   5.310   6.295  0.7455 -0.0296  0.5755
  189SAPI   O3221724  -0.341   5.384   6.390  0.2218  0.9062 -0.9500
  189SAPI   C3221725  -0.409   5.351   6.165  0.6767 -0.2357 -0.1522
  189SAPI   H2X21726  -0.476   5.264   6.154  1.4081 -0.7342 -0.7822
  189SAPI   H2Y21727  -0.327   5.347   6.090  0.1310 -0.1306 -0.7569
  189SAPI   C2321728  -0.689   4.737   6.405 -0.1597  0.2356 -0.1473
  189SAPI   H3R21729  -0.769   4.813   6.401 -0.0151  0.3217 -1.8992
  189SAPI   H3S21730  -0.676   4.708   6.512  0.7465 -2.1484 -0.8348
  189SAPI   C2421731  -0.736   4.620   6.324 -0.5151  1.0274  0.5905
  189SAPI   H4R21732  -0.744   4.656   6.220  0.0141  1.9484  0.8552
  189SAPI   H4S21733  -0.834   4.591   6.366  0.0568  0.6779  1.7340
  189SAPI   C2521734  -0.624   4.514   6.335 -0.4438 -0.5977  0.5106
  189SAPI   H5R21735  -0.596   4.500   6.440  0.9310 -1.8307  0.0118
  189SAPI   C2621736  -0.546   4.478   6.233 -0.8255  0.5791  0.2274
  189SAPI   H6R21737  -0.481   4.389   6.247 -1.9429 -0.3673 -0.4332
  189SAPI   C2721738  -0.568   4.515   6.087  0.1139  0.3606 -0.0477
  189SAPI   H7R21739  -0.533   4.617   6.059 -0.5016  0.8363  0.8707
  189SAPI   H7S21740  -0.675   4.513   6.059 -0.1158 -1.7807  0.7559
  189SAPI   C2821741  -0.513   4.413   5.992  0.0585 -0.3744  0.5875
  189SAPI   H8R21742  -0.539   4.309   6.018  0.1006 -0.6742 -0.4896
  189SAPI   C2921743  -0.428   4.429   5.886  1.0669 -0.9114  0.1025
  189SAPI   H9R21744  -0.389   4.344   5.828  1.7431 -1.6143  1.5255
  189SAPI  C21021745  -0.378   4.564   5.846 -0.3522  0.9932  1.3081
  189SAPI  H10R21746  -0.282   4.559   5.789 -0.5960  1.1992  0.8728
  189SAPI  H10S21747  -0.351   4.625   5.934  3.3937  2.4907 -0.6574
  189SAPI  C21121748  -0.466   4.663   5.769 -0.0606  1.3990  0.0819
  189SAPI  H11R21749  -0.561   4.684   5.821 -1.5435  0.8237 -2.2279
  189SAPI  C21221750  -0.427   4.744   5.671  0.4542 -0.2007  0.1881
  189SAPI  H12R21751  -0.504   4.814   5.635  1.3846  0.4436 -0.5748
  189SAPI  C21321752  -0.306   4.752   5.594 -0.6774  0.2370 -0.5047
  189SAPI  H13R21753  -0.237   4.760   5.681 -0.4114  3.0026 -0.8825
  189SAPI  H13S21754  -0.306   4.849   5.540 -1.0382  0.2329 -0.5149
  189SAPI  C21421755  -0.268   4.621   5.520 -0.1306 -0.3067 -0.2517
  189SAPI  H14R21756  -0.206   4.556   5.583 -1.8450 -2.7771 -0.9907
  189SAPI  C21521757  -0.299   4.593   5.396  0.2943  0.2528  0.1158
  189SAPI  H15R21758  -0.271   4.492   5.364 -0.0687 -0.1511  1.0254
  189SAPI  C21621759  -0.384   4.687   5.309 -1.4601  0.1602  0.1738
  189SAPI  H16R21760  -0.343   4.789   5.321  0.7786 -0.5795 -0.6398
  189SAPI  H16S21761  -0.492   4.692   5.331 -1.6335 -0.7809 -0.3708
  189SAPI  C21721762  -0.376   4.647   5.158 -0.0662 -0.3419  0.1727
  189SAPI  H17R21763  -0.434   4.726   5.104 -0.3842  1.3177  2.7409
  189SAPI  H17S21764  -0.424   4.547   5.149 -0.0096 -0.6672  2.5932
  189SAPI  C21821765  -0.236   4.623   5.099 -0.0474 -0.6616 -0.7107
  189SAPI  H18R21766  -0.165   4.572   5.168  0.1870 -0.3314 -0.7122
  189SAPI  H18S21767  -0.199   4.725   5.079 -2.1080  0.0900 -1.0110
  189SAPI  C21921768  -0.237   4.547   4.965  0.3654  0.1825 -0.3118
  189SAPI  H19R21769  -0.319   4.583   4.900 -0.9040  0.3800  1.3243
  189SAPI  H19S21770  -0.262   4.443   4.996  0.9678  0.4783  1.2690
  189SAPI  C22021771  -0.106   4.530   4.894  0.4364 -0.3018 -0.4610
  189SAPI  H20R21772  -0.048   4.442   4.928 -2.0975 -1.6749  0.5230
  189SAPI  H20S21773  -0.049   4.622   4.923 -0.3985 -0.0390  0.4098
  189SAPI  H20T21774  -0.118   4.520   4.784 -0.8804 -3.0670 -0.1250
  189SAPI   C3321775  -0.474   5.488   6.157  0.0332 -0.1222 -0.1695
  189SAPI   H3X21776  -0.405   5.570   6.184 -1.4999  1.0893  0.1775
  189SAPI   H3Y21777  -0.568   5.484   6.216 -0.1016 -1.7764 -0.4293
  189SAPI   C3421778  -0.506   5.529   6.007 -0.3966  0.3862 -0.1115
  189SAPI   H4X21779  -0.411   5.526   5.950  0.1896 -2.5567  0.8420
  189SAPI   H4Y21780  -0.547   5.632   6.009  1.2349  1.0553  0.0333
  189SAPI   C3521781  -0.610   5.441   5.932 -0.1066  0.1228 -1.1682
  189SAPI   H5X21782  -0.703   5.455   5.992  0.1007  1.2339 -1.0809
  189SAPI   H5Y21783  -0.593   5.331   5.923  1.4680  0.3939 -1.8303
  189SAPI   C3621784  -0.647   5.488   5.790 -0.2058 -0.0798 -0.6472
  189SAPI   H6X21785  -0.617   5.595   5.791  0.1997 -0.1437  1.7966
  189SAPI   H6Y21786  -0.757   5.487   5.780 -0.5310  2.0419  1.6482
  189SAPI   C3721787  -0.581   5.402   5.681  0.1553  0.2722  0.4441
  189SAPI   H7X21788  -0.612   5.433   5.579 -1.5206 -3.3140 -0.2919
  189SAPI   H7Y21789  -0.625   5.303   5.707  2.0985 -0.5911  0.6010
  189SAPI   C3821790  -0.432   5.391   5.681 -0.4176 -0.1137  0.0690
  189SAPI   H8X21791  -0.392   5.370   5.782  3.1874 -0.3418 -1.2549
  189SAPI   H8Y21792  -0.387   5.487   5.648 -0.3067  0.5975  2.1683
  189SAPI   C3921793  -0.391   5.282   5.579  0.2812  0.4837 -0.0079
  189SAPI   H9X21794  -0.420   5.315   5.477 -2.0472 -0.7179  0.2034
  189SAPI   H9Y21795  -0.443   5.185   5.593  0.6391  0.4988  1.6366
  189SAPI  C31021796  -0.243   5.256   5.569 -0.2409  0.2374 -0.3045
  189SAPI  H10X21797  -0.230   5.193   5.660 -2.5139 -1.3201 -0.9636
  189SAPI  H10Y21798  -0.185   5.349   5.585  0.0490 -0.1339  0.9281
  189SAPI  C31121799  -0.205   5.177   5.441 -0.3588 -0.3652 -0.2989
  189SAPI  H11X21800  -0.238   5.072   5.445 -0.4794 -0.3109  0.3018
  189SAPI  H11Y21801  -0.094   5.170   5.446 -0.2628  0.4196 -1.1150
  189SAPI  C31221802  -0.257   5.234   5.306 -0.6972 -0.0823 -0.0711
  189SAPI  H12X21803  -0.229   5.341   5.301  1.0658 -0.5192 -0.1947
  189SAPI  H12Y21804  -0.368   5.229   5.302 -0.6257 -1.4170 -1.2077
  189SAPI  C31321805  -0.187   5.174   5.190  0.5228 -0.2361 -0.6326
  189SAPI  H13X21806  -0.237   5.077   5.171 -0.1836 -0.6143  2.5758
  189SAPI  H13Y21807  -0.084   5.141   5.218 -0.3862 -3.5731 -0.7889
  189SAPI  C31421808  -0.182   5.263   5.066 -0.7090 -0.5284  0.1198
  189SAPI  H14X21809  -0.138   5.362   5.088 -0.9264 -0.5306  0.5899
  189SAPI  H14Y21810  -0.280   5.292   5.023  0.2953  1.7877 -0.7760
  189SAPI  C31521811  -0.091   5.197   4.960 -0.1842  0.2290  0.0414
  189SAPI  H15X21812   0.007   5.174   5.007 -1.1517 -2.5974  0.8617
  189SAPI  H15Y21813  -0.061   5.253   4.868 -2.1162  0.0818 -0.7384
  189SAPI  C31621814  -0.152   5.065   4.907  0.4541  0.8122  0.3056
  189SAPI  H16X21815  -0.255   5.085   4.869  0.3989 -1.7471 -1.1049
  189SAPI  H16Y21816  -0.165   4.996   4.993 -1.4887  2.1897  1.2160
  189SAPI  C31721817  -0.062   5.009   4.794  0.5714 -0.2628 -0.0660
  189SAPI  H17X21818  -0.072   4.898   4.788  0.6275 -0.5898  3.7816
  189SAPI  H17Y21819   0.039   5.048   4.818  0.2784 -0.5934  1.8441
  189SAPI  C31821820  -0.108   5.066   4.661  0.3830  1.0516  0.2670
  189SAPI  H18X21821  -0.092   5.175   4.655 -0.5241  1.1854  0.0996
  189SAPI  H18Y21822  -0.219   5.067   4.667  0.2836 -2.2832  1.3302
  189SAPI  H18Z21823  -0.066   5.015   4.572 -2.4707  0.9684 -1.1649
  190SAPI   C1221824   5.678   1.755   7.300 -0.1096 -0.1476  0.4079
  190SAPI    H221825   5.785   1.765   7.330 -0.2035  2.6300  0.1099
  190SAPI    O221826   5.603   1.684   7.398  0.1009  0.0901 -0.2091
  190SAPI   HO221827   5.651   1.622   7.454 -2.6899 -0.1005  2.2147
  190SAPI   C1321828   5.620   1.900   7.270 -0.3587  0.4004 -0.6848
  190SAPI    H321829   5.671   1.930   7.176 -2.0597  3.9892 -0.6220
  190SAPI    O321830   5.671   1.995   7.369 -0.2551 -0.0998 -0.0792
  190SAPI   HO321831   5.648   1.967   7.458  0.8962 -3.2192 -0.6601
  190SAPI   C1421832   5.474   1.897   7.253  0.3239  0.2078 -0.8159
  190SAPI    H421833   5.433   1.881   7.354  0.1196 -1.7121 -1.1635
  190SAPI    O421834   5.406   2.022   7.224  0.1774  0.9644 -0.0039
  190SAPI   HO421835   5.433   2.058   7.139  1.9064 -2.2213 -0.9319
  190SAPI   C1521836   5.429   1.777   7.164 -0.7264  0.5949  0.4017
  190SAPI    H521837   5.409   1.826   7.066 -1.1963 -1.9023 -0.8430
  190SAPI    O521838   5.294   1.732   7.196  0.5179  0.7390  0.4271
  190SAPI   HO521839   5.240   1.805   7.226 -1.2742  0.1634 -1.1377
  190SAPI   C1621840   5.523   1.661   7.125  0.2413  0.0979  0.4229
  190SAPI    H621841   5.476   1.572   7.171  0.1046  0.5999  1.2876
  190SAPI    O621842   5.514   1.627   6.985 -0.0048  0.0530 -0.5796
  190SAPI   HO621843   5.516   1.532   6.976 -0.0747 -0.0017 -0.0289
  190SAPI   C1121844   5.673   1.681   7.168  0.6399  0.2288  0.1398
  190SAPI    H121845   5.719   1.737   7.084 -1.1835 -0.9257 -1.6983
  190SAPI     P21846   5.891   1.514   7.168 -0.0977 -0.1598  0.2820
  190SAPI   O1321847   5.918   1.369   7.201 -0.2452  0.2117 -0.1419
  190SAPI   O1421848   5.955   1.613   7.256 -0.5745  0.3567  0.0366
  190SAPI   O1221849   5.722   1.541   7.174 -0.4714  0.1526 -0.2436
  190SAPI   O1121850   5.928   1.544   7.009  0.0118  0.5832  0.0808
  190SAPI    C121851   5.889   1.440   6.916  0.6605 -0.3212 -0.4448
  190SAPI    HA21852   5.950   1.347   6.924 -0.9259 -1.3115  0.7148
  190SAPI    HB21853   5.784   1.411   6.940  0.2811  1.6947  0.4926
  190SAPI    C221854   5.886   1.481   6.768 -0.8042  0.1445  0.2405
  190SAPI    HS21855   5.822   1.401   6.728 -0.8307  1.2211 -2.0108
  190SAPI   O2121856   6.020   1.487   6.717 -0.4255  0.2890  0.1197
  190SAPI   C2121857   6.066   1.372   6.677  0.4025  0.5980 -0.8584
  190SAPI   O2221858   6.002   1.270   6.648  0.4358  0.2487  0.5462
  190SAPI   C2221859   6.215   1.380   6.667 -0.9317 -0.1185 -0.4453
  190SAPI   H2R21860   6.248   1.485   6.680  1.4314 -0.5639 -2.0804
  190SAPI   H2S21861   6.263   1.343   6.760 -0.4880  3.5408  0.9294
  190SAPI    C321862   5.809   1.610   6.734 -0.1423 -0.1433  0.3936
  190SAPI    HX21863   5.853   1.703   6.775  0.8406 -0.9519  1.2274
  190SAPI    HY21864   5.718   1.605   6.799  0.7550 -0.1600  1.6797
  190SAPI   O3121865   5.764   1.610   6.600 -0.3206  0.1730 -0.4262
  190SAPI   C3121866   5.834   1.678   6.511  0.1009 -0.4154 -0.3655
  190SAPI   O3221867   5.942   1.735   6.531  0.4432 -0.1128 -0.2327
  190SAPI   C3221868   5.754   1.674   6.386  0.0309 -0.3060  0.3698
  190SAPI   H2X21869   5.670   1.746   6.397  0.7888  0.4820  1.1736
  190SAPI   H2Y21870   5.700   1.577   6.379 -3.4834  1.4532  0.9429
  190SAPI   C2321871   6.261   1.311   6.537 -0.1108  0.1190  0.8032
  190SAPI   H3R21872   6.225   1.206   6.532  2.0712 -0.8278 -6.2098
  190SAPI   H3S21873   6.371   1.298   6.540 -0.1170  0.2306  2.3147
  190SAPI   C2421874   6.212   1.383   6.412 -0.7670 -0.1905  0.4862
  190SAPI   H4R21875   6.101   1.391   6.409 -0.7918 -0.9055 -1.4335
  190SAPI   H4S21876   6.244   1.316   6.330  1.9640 -1.2480  2.2745
  190SAPI   C2521877   6.286   1.513   6.385 -0.3723 -0.0313  0.7159
  190SAPI   H5R21878   6.322   1.561   6.477  1.5584 -0.2543  0.1146
  190SAPI   C2621879   6.296   1.573   6.265 -0.4777  0.4934 -0.3007
  190SAPI   H6R21880   6.363   1.660   6.268  0.2306 -0.0476  2.4401
  190SAPI   C2721881   6.255   1.516   6.132  0.1175  0.7581 -0.2730
  190SAPI   H7R21882   6.221   1.411   6.135  1.8365  0.0912 -1.9509
  190SAPI   H7S21883   6.353   1.505   6.080  0.1783  2.5966 -0.6337
  190SAPI   C2821884   6.168   1.605   6.049 -0.0300 -0.4949 -0.3600
  190SAPI   H8R21885   6.062   1.610   6.077  0.2407 -0.1237  0.6338
  190SAPI   C2921886   6.201   1.688   5.946  0.5083  0.7043  0.2386
  190SAPI   H9R21887   6.121   1.729   5.882 -0.5494 -1.1269  0.3238
  190SAPI  C21021888   6.343   1.724   5.906 -0.1515 -0.7011 -0.2920
  190SAPI  H10R21889   6.380   1.651   5.830 -1.7061 -2.1996  0.3247
  190SAPI  H10S21890   6.412   1.719   5.993  0.6489 -1.2731 -0.9333
  190SAPI  C21121891   6.349   1.866   5.848 -0.2006 -0.1627 -0.4939
  190SAPI  H11R21892   6.381   1.937   5.926 -3.3034 -2.6879  3.4962
  190SAPI  C21221893   6.318   1.895   5.721  0.0463 -0.2196  0.6261
  190SAPI  H12R21894   6.322   2.003   5.697 -1.4689 -0.2335  0.1847
  190SAPI  C21321895   6.272   1.799   5.613 -0.3495  0.1902  0.0976
  190SAPI  H13R21896   6.189   1.738   5.654 -1.2658  0.9190 -0.6126
  190SAPI  H13S21897   6.356   1.729   5.597 -0.2542  0.4604 -0.6142
  190SAPI  C21421898   6.232   1.845   5.476  0.0327 -0.4120 -0.4230
  190SAPI  H14R21899   6.303   1.839   5.392 -1.5093 -2.0649 -1.6792
  190SAPI  C21521900   6.118   1.913   5.465 -0.2509  0.1885  0.2121
  190SAPI  H15R21901   6.085   1.956   5.369 -1.4677  2.9795  1.7460
  190SAPI  C21621902   6.013   1.943   5.569  0.5138  0.1458  0.1821
  190SAPI  H16R21903   6.041   1.905   5.670  0.2840  0.2242  0.2753
  190SAPI  H16S21904   5.911   1.915   5.536  0.5410 -0.9640  0.9661
  190SAPI  C21721905   6.009   2.099   5.590 -0.7829  0.7672  0.2387
  190SAPI  H17R21906   6.104   2.152   5.612 -0.6039  1.0556 -1.1616
  190SAPI  H17S21907   5.940   2.118   5.675 -0.6307  1.5304  0.2005
  190SAPI  C21821908   5.945   2.191   5.475  0.0618 -0.0767  0.2427
  190SAPI  H18R21909   6.026   2.205   5.401 -0.7624 -1.8937 -1.0566
  190SAPI  H18S21910   5.909   2.290   5.512 -2.7239 -1.4679  1.5543
  190SAPI  C21921911   5.848   2.125   5.379 -0.3613  0.2629 -0.1366
  190SAPI  H19R21912   5.900   2.046   5.322 -0.9987  1.5945 -2.6798
  190SAPI  H19S21913   5.828   2.198   5.298  2.9358  0.9109 -0.5207
  190SAPI  C22021914   5.721   2.083   5.438 -0.1030  0.8407  0.1189
  190SAPI  H20R21915   5.643   2.070   5.360  0.8681 -2.2076 -0.4679
  190SAPI  H20S21916   5.686   2.163   5.507  0.6056  0.7915  0.5413
  190SAPI  H20T21917   5.732   1.993   5.501  3.0582  0.4250 -0.8658
  190SAPI   C3321918   5.829   1.710   6.264 -0.3500  0.3411  1.1309
  190SAPI   H3X21919   5.904   1.632   6.238  2.1324  3.1657 -0.9534
  190SAPI   H3Y21920   5.876   1.808   6.286 -0.0372  0.7770 -1.1482
  190SAPI   C3421921   5.732   1.718   6.139 -0.2300 -0.2533 -0.0388
  190SAPI   H4X21922   5.662   1.799   6.168  1.0135  1.6018 -1.9557
  190SAPI   H4Y21923   5.668   1.627   6.133  1.5290 -1.5510  0.1922
  190SAPI   C3521924   5.794   1.756   6.006  0.9039 -0.4767 -0.6185
  190SAPI   H5X21925   5.838   1.662   5.967  2.3766  0.2299 -0.7173
  190SAPI   H5Y21926   5.880   1.817   6.040  3.1197 -3.2371 -0.9507
  190SAPI   C3621927   5.702   1.821   5.907 -0.1513  0.0764 -0.2749
  190SAPI   H6X21928   5.766   1.855   5.824 -1.1330  1.2819 -0.5793
  190SAPI   H6Y21929   5.666   1.920   5.945  0.6028 -0.4482  1.9898
  190SAPI   C3721930   5.592   1.727   5.853 -0.0659  0.2799  0.2561
  190SAPI   H7X21931   5.505   1.705   5.919 -2.9499 -1.1056 -3.6148
  190SAPI   H7Y21932   5.649   1.632   5.842  0.6038  0.8087 -1.0013
  190SAPI   C3821933   5.543   1.795   5.720 -0.9762 -0.2238  0.4435
  190SAPI   H8X21934   5.635   1.840   5.676  0.9408 -0.6567  3.7485
  190SAPI   H8Y21935   5.480   1.885   5.738  0.6306  0.7756  1.3502
  190SAPI   C3921936   5.480   1.698   5.620 -0.4759 -0.5942 -0.0385
  190SAPI   H9X21937   5.382   1.661   5.659 -1.1666 -0.5647 -1.6795
  190SAPI   H9Y21938   5.545   1.608   5.622 -2.2332 -1.9175  1.3406
  190SAPI  C31021939   5.483   1.767   5.484  0.1518  0.3627  0.6384
  190SAPI  H10X21940   5.585   1.768   5.440  0.4010  2.7196  1.1425
  190SAPI  H10Y21941   5.448   1.870   5.506 -1.1657 -0.1575  1.0992
  190SAPI  C31121942   5.386   1.703   5.374 -0.5042 -0.1337 -1.0200
  190SAPI  H11X21943   5.285   1.700   5.422 -0.1292 -1.5250 -0.2683
  190SAPI  H11Y21944   5.413   1.597   5.362 -0.3969  0.1112 -3.2223
  190SAPI  C31221945   5.386   1.771   5.245 -0.3267  0.1444 -0.0567
  190SAPI  H12X21946   5.487   1.783   5.200  0.0113 -0.4782  0.5236
  190SAPI  H12Y21947   5.333   1.868   5.256 -2.0453 -0.8943  1.2331
  190SAPI  C31321948   5.292   1.696   5.147  0.2117  0.3988 -0.1008
  190SAPI  H13X21949   5.262   1.769   5.069  1.0075  0.1535 -0.6469
  190SAPI  H13Y21950   5.194   1.674   5.195  0.1995  0.2553 -0.1902
  190SAPI  C31421951   5.354   1.569   5.081  0.2768  0.0112 -0.4666
  190SAPI  H14X21952   5.411   1.504   5.152 -0.0118  0.9823  0.6902
  190SAPI  H14Y21953   5.429   1.604   5.007  0.6997 -2.8182 -1.4859
  190SAPI  C31521954   5.254   1.482   5.009 -0.4372 -0.1142  0.4184
  190SAPI  H15X21955   5.189   1.427   5.081 -0.0007 -3.0261 -1.2557
  190SAPI  H15Y21956   5.304   1.397   4.958  3.4343  1.3633  1.4616
  190SAPI  C31621957   5.177   1.559   4.897 -0.3845 -0.3473  0.4094
  190SAPI  H16X21958   5.247   1.618   4.835 -0.9036  1.3691  1.4170
  190SAPI  H16Y21959   5.106   1.631   4.943 -1.2217  0.6927 -2.3111
  190SAPI  C31721960   5.099   1.467   4.804  1.0005 -0.2271 -0.3816
  190SAPI  H17X21961   5.168   1.381   4.794  3.7287  1.3319  2.8897
  190SAPI  H17Y21962   5.077   1.506   4.702 -1.5805  0.8061  0.4734
  190SAPI  C31821963   4.954   1.430   4.866  0.1196 -0.1149 -0.5834
  190SAPI  H18X21964   4.884   1.516   4.858 -0.0121 -0.1129  0.4324
  190SAPI  H18Y21965   4.978   1.384   4.965 -0.2142 -0.8909 -0.8550
  190SAPI  H18Z21966   4.919   1.342   4.807 -0.1103 -1.1060  0.9507
  191SAPI   C1221967   2.341   2.519   2.216  0.5817  0.1283 -0.1866
  191SAPI    H221968   2.273   2.598   2.253  0.0766 -0.0603 -0.6943
  191SAPI    O221969   2.259   2.404   2.191  0.3477 -0.5210 -0.1439
  191SAPI   HO221970   2.206   2.381   2.267  0.3157 -0.4536 -0.1455
  191SAPI   C1321971   2.410   2.574   2.096  0.6835  0.3625  0.6427
  191SAPI    H321972   2.481   2.656   2.119  0.7278  1.1136 -1.8938
  191SAPI    O321973   2.317   2.644   2.011  0.1707  0.0818 -0.5456
  191SAPI   HO321974   2.365   2.683   1.938  0.8598  0.7969  0.2616
  191SAPI   C1421975   2.480   2.450   2.028  0.0353  0.0866  0.1340
  191SAPI    H421976   2.407   2.370   2.004  1.3934 -1.3266  0.5473
  191SAPI    O421977   2.529   2.495   1.900 -0.5568 -0.1327  0.6219
  191SAPI   HO421978   2.492   2.441   1.830 -1.9888  1.9023 -0.2766
  191SAPI   C1521979   2.583   2.384   2.125 -0.1807  0.1276 -0.0139
  191SAPI    H521980   2.664   2.460   2.120  0.8767 -0.9992 -0.4765
  191SAPI    O521981   2.645   2.264   2.079 -0.0201  0.7363  0.0270
  191SAPI   HO521982   2.740   2.276   2.078  0.4557 -1.3973  3.5838
  191SAPI   C1621983   2.539   2.376   2.274  0.6668  0.4361  0.7771
  191SAPI    H621984   2.479   2.282   2.276 -1.6323  1.7009 -2.0627
  191SAPI    O621985   2.656   2.361   2.356  0.1371 -0.3431 -0.2342
  191SAPI   HO621986   2.631   2.288   2.413  0.4624 -2.4905 -2.6313
  191SAPI   C1121987   2.444   2.482   2.320 -1.2414  0.2457 -0.0667
  191SAPI    H121988   2.521   2.562   2.327 -0.8313 -0.2364  1.1700
  191SAPI     P21989   2.358   2.595   2.542  0.3931  0.0085 -0.0609
  191SAPI   O1321990   2.252   2.566   2.644 -0.1569 -0.1180 -0.0176
  191SAPI   O1421991   2.346   2.718   2.456  0.1635  0.1073 -0.4089
  191SAPI   O1221992   2.383   2.463   2.447 -0.2550  0.5152 -0.1684
  191SAPI   O1121993   2.490   2.598   2.619  0.2830 -0.1924  0.1292
  191SAPI    C121994   2.544   2.486   2.699 -0.4319  0.0788 -0.0685
  191SAPI    HA21995   2.461   2.415   2.719  0.3834 -0.6841  0.6744
  191SAPI    HB21996   2.623   2.429   2.645 -1.2727  0.9314 -2.3228
  191SAPI    C221997   2.601   2.538   2.831  0.0300 -0.0173 -0.2754
  191SAPI    HS21998   2.608   2.458   2.908  0.3299  0.9640  0.7521
  191SAPI   O2121999   2.517   2.639   2.887  0.0721  0.3905  0.1638
  191SAPI   C2122000   2.409   2.596   2.939  0.7684  0.5836 -0.0155
  191SAPI   O2222001   2.383   2.480   2.964  0.2543  0.1193 -0.4932
  191SAPI   C2222002   2.325   2.713   2.967 -0.0041 -0.2075  0.1666
  191SAPI   H2R22003   2.382   2.785   3.029  1.3028  1.6269 -2.9416
  191SAPI   H2S22004   2.303   2.771   2.875 -0.7186 -2.3853 -1.0853
  191SAPI    C322005   2.742   2.605   2.814 -0.9729  0.7534  0.4217
  191SAPI    HX22006   2.730   2.661   2.719  0.5862  0.1892 -0.1475
  191SAPI    HY22007   2.824   2.536   2.783 -1.4110  0.9600 -1.2973
  191SAPI   O3122008   2.782   2.679   2.937  0.1047  0.3693  0.1509
  191SAPI   C3122009   2.802   2.809   2.919  0.0673 -0.6456 -0.1787
  191SAPI   O3222010   2.808   2.870   2.814 -0.2730 -0.1740  0.0195
  191SAPI   C3222011   2.827   2.869   3.051 -0.2232  0.4030 -0.7458
  191SAPI   H2X22012   2.735   2.841   3.107 -0.9145 -0.4905 -2.2473
  191SAPI   H2Y22013   2.829   2.980   3.050 -1.9427  0.4986  0.8510
  191SAPI   C2322014   2.199   2.672   3.045 -0.3684  0.5219 -0.0032
  191SAPI   H3R22015   2.145   2.583   3.006  1.1246 -1.3042  1.9016
  191SAPI   H3S22016   2.132   2.759   3.027  1.1995  1.2267 -3.3867
  191SAPI   C2422017   2.226   2.645   3.202  0.0030 -0.1134  0.9195
  191SAPI   H4R22018   2.308   2.713   3.235  0.5726 -0.9781  1.2974
  191SAPI   H4S22019   2.268   2.543   3.203  2.0709  0.4364 -3.8141
  191SAPI   C2522020   2.106   2.662   3.291 -0.8122  0.4078 -0.1194
  191SAPI   H5R22021   2.027   2.596   3.253  0.7755 -1.1539 -0.8578
  191SAPI   C2622022   2.081   2.767   3.373  0.3750 -0.3600  0.7982
  191SAPI   H6R22023   1.994   2.760   3.440  0.4716  1.2724  1.1208
  191SAPI   C2722024   2.178   2.876   3.419  0.2003 -0.1267 -0.4669
  191SAPI   H7R22025   2.118   2.970   3.419  0.8212  0.3089  1.4037
  191SAPI   H7S22026   2.239   2.891   3.328 -1.5439 -1.8615 -2.0094
  191SAPI   C2822027   2.269   2.843   3.536  0.5337  0.5371 -0.1292
  191SAPI   H8R22028   2.357   2.780   3.520  1.1945  2.0074 -3.0287
  191SAPI   C2922029   2.242   2.889   3.660 -0.8430 -0.5143  0.4319
  191SAPI   H9R22030   2.319   2.872   3.736  1.0044 -1.1351 -1.4707
  191SAPI  C21022031   2.117   2.966   3.699  0.2346 -0.0699 -0.2925
  191SAPI  H10R22032   2.047   2.995   3.618  1.0193  3.0815  0.0419
  191SAPI  H10S22033   2.134   3.059   3.756 -1.8598  0.1999 -0.0247
  191SAPI  C21122034   2.040   2.871   3.788 -0.3031  0.5759 -0.4160
  191SAPI  H11R22035   1.999   2.801   3.715  0.8211  1.9848 -2.5070
  191SAPI  C21222036   2.044   2.849   3.923  0.2718  0.3994  0.4655
  191SAPI  H12R22037   1.966   2.778   3.953 -1.1911  0.2118 -3.1684
  191SAPI  C21322038   2.127   2.924   4.022  0.0129  0.1231  0.4071
  191SAPI  H13R22039   2.108   3.033   4.023  1.1155  0.3589 -0.9181
  191SAPI  H13S22040   2.232   2.906   3.990  0.1676  0.7978  0.5321
  191SAPI  C21422041   2.104   2.870   4.161  0.3728 -0.7938 -0.0051
  191SAPI  H14R22042   2.173   2.789   4.191  1.0820 -0.2446 -0.1383
  191SAPI  C21522043   2.009   2.909   4.247  0.1585  0.1792 -0.1746
  191SAPI  H15R22044   2.010   2.852   4.341  1.7089  0.5904  0.0918
  191SAPI  C21622045   1.886   2.998   4.220 -0.6562  0.3191 -0.6402
  191SAPI  H16R22046   1.867   3.016   4.112  1.2359  2.4599 -0.7020
  191SAPI  H16S22047   1.894   3.095   4.274 -0.4713 -0.8380  1.5251
  191SAPI  C21722048   1.754   2.935   4.281 -0.0643 -0.2574 -0.4022
  191SAPI  H17R22049   1.747   2.826   4.260 -0.3060 -0.1151 -1.0734
  191SAPI  H17S22050   1.666   2.983   4.232 -1.0956 -2.5600 -0.9352
  191SAPI  C21822051   1.745   2.956   4.434  0.2842 -0.2484  0.2191
  191SAPI  H18R22052   1.749   3.061   4.471  0.1396 -0.5098  0.9946
  191SAPI  H18S22053   1.832   2.910   4.483 -1.2716 -2.3779  1.1315
  191SAPI  C21922054   1.616   2.893   4.483  1.3340  0.3347  0.1360
  191SAPI  H19R22055   1.645   2.789   4.511 -1.8642 -0.6332  0.2350
  191SAPI  H19S22056   1.539   2.893   4.403 -0.6132 -0.3352  1.9171
  191SAPI  C22022057   1.554   2.972   4.594  0.1586  0.1909 -0.2397
  191SAPI  H20R22058   1.531   3.078   4.568 -1.0337  1.1322  3.9588
  191SAPI  H20S22059   1.603   2.964   4.693  0.1301 -0.5417 -0.2799
  191SAPI  H20T22060   1.453   2.930   4.614  0.2013  0.0930 -0.2326
  191SAPI   C3322061   2.944   2.816   3.129 -0.6924  0.1901 -0.5924
  191SAPI   H3X22062   3.034   2.835   3.065 -0.9923  0.6106 -0.8920
  191SAPI   H3Y22063   2.930   2.707   3.145 -1.4016  0.0305 -2.0735
  191SAPI   C3422064   2.956   2.884   3.264  1.2320 -0.1887 -0.0903
  191SAPI   H4X22065   2.871   2.868   3.333  1.5192 -4.2744 -0.4597
  191SAPI   H4Y22066   2.973   2.993   3.250 -1.1157  0.1833 -0.5541
  191SAPI   C3522067   3.087   2.836   3.337  0.4786  0.2136 -0.1553
  191SAPI   H5X22068   3.163   2.888   3.274 -0.1487 -0.9518 -1.9303
  191SAPI   H5Y22069   3.103   2.727   3.325  1.8937  0.5077 -1.1928
  191SAPI   C3622070   3.084   2.878   3.482 -0.8443 -0.5628  0.9065
  191SAPI   H6X22071   3.170   2.829   3.532 -0.4412 -3.3609 -2.1627
  191SAPI   H6Y22072   3.000   2.821   3.528 -1.9073 -1.2133 -1.6919
  191SAPI   C3722073   3.057   3.028   3.499 -0.0179  0.7857 -0.4112
  191SAPI   H7X22074   2.970   3.073   3.447 -0.4530 -0.4765 -0.8199
  191SAPI   H7Y22075   3.152   3.073   3.463 -0.2286 -1.6494 -4.7974
  191SAPI   C3822076   3.027   3.049   3.647 -0.6959  0.0523  0.3823
  191SAPI   H8X22077   3.085   2.972   3.702 -5.0786 -4.4763 -0.6558
  191SAPI   H8Y22078   2.924   3.010   3.658 -0.0200 -0.9851  4.5770
  191SAPI   C3922079   3.022   3.194   3.691 -0.5772 -0.7118  0.5895
  191SAPI   H9X22080   2.991   3.200   3.798 -0.4734 -0.6585  0.6173
  191SAPI   H9Y22081   2.942   3.249   3.636 -1.9686 -1.8199  1.4251
  191SAPI  C31022082   3.152   3.280   3.673 -0.3996  0.0066  0.3798
  191SAPI  H10X22083   3.202   3.262   3.575  0.1053 -0.2768  0.6848
  191SAPI  H10Y22084   3.219   3.236   3.751 -0.8404 -2.2907 -0.4731
  191SAPI  C31122085   3.127   3.432   3.694 -0.2261 -0.3479  0.5785
  191SAPI  H11X22086   3.058   3.467   3.615 -0.9857 -2.9082  0.0328
  191SAPI  H11Y22087   3.222   3.483   3.666 -0.0607 -1.3413 -0.7533
  191SAPI  C31222088   3.052   3.470   3.827  0.1804  0.1050 -0.9085
  191SAPI  H12X22089   2.955   3.416   3.833  1.1777 -1.5477  3.2000
  191SAPI  H12Y22090   3.035   3.580   3.818 -0.2273 -0.0270 -1.8524
  191SAPI  C31322091   3.140   3.438   3.951  0.4147 -0.2230 -0.2333
  191SAPI  H13X22092   3.244   3.474   3.935  0.5212 -0.2832  0.3294
  191SAPI  H13Y22093   3.155   3.328   3.955 -0.5737 -0.3759 -0.5400
  191SAPI  C31422094   3.076   3.491   4.081 -0.0513  0.0644  0.3856
  191SAPI  H14X22095   3.033   3.591   4.057 -1.3156 -0.4529  0.4232
  191SAPI  H14Y22096   3.141   3.513   4.169  0.2712 -0.7561  0.3615
  191SAPI  C31522097   2.957   3.405   4.130  0.0061  0.0046 -0.2815
  191SAPI  H15X22098   2.985   3.298   4.142  1.2013  0.3325 -0.0997
  191SAPI  H15Y22099   2.884   3.406   4.046  0.5158 -2.9154 -0.8531
  191SAPI  C31622100   2.884   3.478   4.244 -0.4044  0.0431 -1.1910
  191SAPI  H16X22101   2.884   3.582   4.207 -1.7997 -0.2785 -2.1433
  191SAPI  H16Y22102   2.945   3.471   4.337 -0.0302  1.4732 -1.3145
  191SAPI  C31722103   2.741   3.432   4.278 -0.0507 -0.6425  0.0427
  191SAPI  H17X22104   2.713   3.468   4.379  1.7911  1.7052 -0.2051
  191SAPI  H17Y22105   2.718   3.324   4.289 -0.4991 -0.6308 -0.6519
  191SAPI  C31822106   2.642   3.495   4.178 -0.1681  0.5119  0.3002
  191SAPI  H18X22107   2.537   3.476   4.208 -0.4248 -0.6699 -1.2406
  191SAPI  H18Y22108   2.662   3.449   4.079 -0.0819 -0.7198  0.8656
  191SAPI  H18Z22109   2.655   3.605   4.167  1.0028  0.2276 -1.7707
  192SAPI   C1222110   3.737   0.532   1.936 -0.4861  0.2574 -0.2193
  192SAPI    H222111   3.680   0.617   1.893 -0.4818 -0.0374 -0.8142
  192SAPI    O222112   3.666   0.411   1.903 -0.2337 -0.0756  0.1214
  192SAPI   HO222113   3.572   0.426   1.908 -0.2651 -0.5451  1.2411
  192SAPI   C1322114   3.878   0.535   1.872  0.0878  0.0074  0.9267
  192SAPI    H322115   3.910   0.639   1.893  1.1557  0.0754 -0.8155
  192SAPI    O322116   3.871   0.510   1.726 -0.4037 -1.0354  0.1384
  192SAPI   HO322117   3.785   0.472   1.709  0.3197 -2.1849 -1.1819
  192SAPI   C1422118   3.977   0.440   1.944 -0.2120 -0.3298  0.5928
  192SAPI    H422119   3.960   0.341   1.896 -1.9500  1.4911 -2.9274
  192SAPI    O422120   4.110   0.486   1.901  0.3346 -0.3836  0.1140
  192SAPI   HO422121   4.133   0.445   1.817 -1.9052 -1.7182  0.0707
  192SAPI   C1522122   3.970   0.421   2.095  0.0015  0.1399  0.3603
  192SAPI    H522123   4.028   0.507   2.134  0.0086  0.1929  0.2338
  192SAPI    O522124   4.032   0.304   2.139  0.4222 -0.3522  0.0950
  192SAPI   HO522125   4.112   0.339   2.180  0.4199  3.2479 -2.4514
  192SAPI   C1622126   3.831   0.441   2.163  0.0660  0.0118  0.5469
  192SAPI    H622127   3.774   0.346   2.153  1.1939 -1.1566  3.8397
  192SAPI    O622128   3.836   0.476   2.302 -0.5458 -0.1058  0.1985
  192SAPI   HO622129   3.755   0.514   2.337 -0.4898 -0.4119  0.6638
  192SAPI   C1122130   3.746   0.542   2.089  0.1165 -0.6428  0.3960
  192SAPI    H122131   3.796   0.640   2.106 -2.2646  0.6748  0.4211
  192SAPI     P22132   3.555   0.707   2.175 -0.3595 -0.4248 -0.0203
  192SAPI   O1322133   3.410   0.700   2.194 -0.1680  0.0331 -0.1352
  192SAPI   O1422134   3.597   0.803   2.068 -0.2522  0.3887  0.3311
  192SAPI   O1222135   3.613   0.551   2.148  0.3702  0.7030 -0.2853
  192SAPI   O1122136   3.629   0.742   2.313  0.2660  0.2757  0.5433
  192SAPI    C122137   3.561   0.713   2.435  0.5618  0.1836 -0.5702
  192SAPI    HA22138   3.467   0.771   2.445  1.4188  1.2351  2.2743
  192SAPI    HB22139   3.535   0.607   2.456  0.9641 -0.2552 -2.0849
  192SAPI    C222140   3.645   0.766   2.561 -0.0874 -0.0881  0.5904
  192SAPI    HS22141   3.701   0.854   2.523  0.6220 -0.6572  0.2955
  192SAPI   O2122142   3.738   0.663   2.595  0.0214 -0.1205 -0.0796
  192SAPI   C2122143   3.841   0.702   2.668  0.2473 -0.1103 -0.2045
  192SAPI   O2222144   3.862   0.816   2.708 -0.1450 -0.5336 -0.5522
  192SAPI   C2222145   3.939   0.577   2.687  1.0050 -0.1999  0.1549
  192SAPI   H2R22146   3.872   0.493   2.715 -1.6486  1.2721 -1.2944
  192SAPI   H2S22147   3.971   0.554   2.583 -1.0009 -1.1262 -0.3022
  192SAPI    C322148   3.545   0.806   2.682 -0.6744 -0.3405 -0.4218
  192SAPI    HX22149   3.485   0.887   2.638  1.7475  1.7497 -0.1225
  192SAPI    HY22150   3.597   0.854   2.768 -1.1510  0.6590 -0.6845
  192SAPI   O3122151   3.469   0.692   2.726 -0.0803 -0.4123  0.1251
  192SAPI   C3122152   3.335   0.702   2.735 -0.1188  0.2684 -0.9251
  192SAPI   O3222153   3.274   0.805   2.744  0.2227 -0.1184 -0.2839
  192SAPI   C3222154   3.264   0.567   2.750 -0.2666 -0.7074  0.2449
  192SAPI   H2X22155   3.326   0.480   2.721 -0.8248 -1.5442  1.4819
  192SAPI   H2Y22156   3.183   0.568   2.674 -0.8311 -1.8952  0.7935
  192SAPI   C2322157   4.065   0.595   2.781 -0.0061  0.2714 -0.4801
  192SAPI   H3R22158   4.038   0.618   2.886 -0.3915  0.3585 -0.5949
  192SAPI   H3S22159   4.126   0.681   2.746 -0.9702  0.7704 -0.9857
  192SAPI   C2422160   4.155   0.474   2.782 -0.4077 -0.0553  0.6553
  192SAPI   H4R22161   4.237   0.496   2.853  0.2906  2.0350 -0.6897
  192SAPI   H4S22162   4.195   0.463   2.679 -2.0786 -0.3264  0.0069
  192SAPI   C2522163   4.072   0.355   2.810 -0.2424  0.0973 -0.6702
  192SAPI   H5R22164   4.037   0.311   2.715  0.4159  1.3730 -1.5329
  192SAPI   C2622165   4.028   0.304   2.930 -0.3961  0.3699  0.4573
  192SAPI   H6R22166   3.965   0.215   2.928  0.7426 -0.4949 -3.0882
  192SAPI   C2722167   4.071   0.359   3.060 -0.3016 -0.1048 -0.6989
  192SAPI   H7R22168   3.995   0.348   3.140  1.4348  0.1658  1.0675
  192SAPI   H7S22169   4.089   0.468   3.045 -2.4013  0.7996  2.2420
  192SAPI   C2822170   4.197   0.294   3.123  0.3648  0.6152  0.7155
  192SAPI   H8R22171   4.256   0.226   3.060  0.0667  0.9921  0.0146
  192SAPI   C2922172   4.244   0.320   3.250  0.8716  0.8751  0.1371
  192SAPI   H9R22173   4.330   0.264   3.289 -0.0517  1.1401  2.7450
  192SAPI  C21022174   4.173   0.401   3.354  0.5327 -0.3679 -0.3409
  192SAPI  H10R22175   4.085   0.451   3.309  0.6278 -0.2970 -0.4491
  192SAPI  H10S22176   4.251   0.472   3.390 -0.1170 -0.5800  1.6319
  192SAPI  C21122177   4.136   0.318   3.471 -0.1233  0.0158  0.2931
  192SAPI  H11R22178   4.086   0.223   3.448 -0.2708 -0.2417  1.6227
  192SAPI  C21222179   4.165   0.330   3.603  0.4855 -0.2449  1.0336
  192SAPI  H12R22180   4.126   0.261   3.680  1.9378  1.0725  3.0445
  192SAPI  C21322181   4.238   0.449   3.659 -0.4129  0.3273 -0.2960
  192SAPI  H13R22182   4.266   0.523   3.581 -1.2219  2.0529  0.9761
  192SAPI  H13S22183   4.338   0.429   3.702 -0.8487  0.7806  0.9780
  192SAPI  C21422184   4.149   0.527   3.739 -0.9292  0.1185 -0.1870
  192SAPI  H14R22185   4.050   0.550   3.696 -1.0243 -0.3286 -0.2031
  192SAPI  C21522186   4.179   0.585   3.856  0.6684  0.6075 -0.6511
  192SAPI  H15R22187   4.096   0.629   3.914 -1.0454 -1.2555 -1.5735
  192SAPI  C21622188   4.302   0.571   3.935 -0.1514 -0.1827 -0.1311
  192SAPI  H16R22189   4.329   0.677   3.956  1.6853 -0.1153 -2.3902
  192SAPI  H16S22190   4.385   0.548   3.865  0.1146 -1.8094  0.6794
  192SAPI  C21722191   4.315   0.475   4.048 -0.1893  0.0173 -0.4504
  192SAPI  H17R22192   4.413   0.472   4.101 -0.4286 -0.4794 -0.0244
  192SAPI  H17S22193   4.296   0.370   4.015 -0.9310  0.1780 -0.5319
  192SAPI  C21822194   4.215   0.503   4.169 -0.3701 -0.2510  0.0441
  192SAPI  H18R22195   4.241   0.445   4.260  1.3062 -0.2049 -0.3669
  192SAPI  H18S22196   4.109   0.494   4.138 -0.0882 -0.7158 -0.8306
  192SAPI  C21922197   4.240   0.651   4.211  0.5850 -0.3792  0.3814
  192SAPI  H19R22198   4.215   0.716   4.124  1.4003 -0.5315  0.0250
  192SAPI  H19S22199   4.347   0.662   4.239  0.6097 -2.7278  1.4788
  192SAPI  C22022200   4.162   0.694   4.336  0.2137  0.2714 -0.0911
  192SAPI  H20R22201   4.170   0.804   4.341  0.7821  0.2361 -0.1672
  192SAPI  H20S22202   4.205   0.650   4.428  1.1405  0.9507 -0.1884
  192SAPI  H20T22203   4.055   0.668   4.323 -0.0396  0.4560  1.3959
  192SAPI   C3322204   3.204   0.546   2.891  0.2334 -0.2019 -0.1328
  192SAPI   H3X22205   3.125   0.470   2.873 -0.0837 -0.0996  0.7333
  192SAPI   H3Y22206   3.152   0.633   2.937 -1.5407  0.1068 -2.5645
  192SAPI   C3422207   3.309   0.476   2.986 -0.5436 -0.3989  0.7912
  192SAPI   H4X22208   3.400   0.539   2.989 -0.3468 -0.5915 -0.4133
  192SAPI   H4Y22209   3.336   0.376   2.946 -0.3742  0.6177 -1.8572
  192SAPI   C3522210   3.262   0.463   3.129 -0.6360  0.2213 -0.4007
  192SAPI   H5X22211   3.168   0.403   3.122 -1.5109  1.5756 -0.5145
  192SAPI   H5Y22212   3.221   0.560   3.164 -0.0468  0.1783  0.4402
  192SAPI   C3622213   3.368   0.404   3.227  0.9365 -0.8694 -0.1155
  192SAPI   H6X22214   3.453   0.474   3.241  1.6754 -1.5628 -1.0591
  192SAPI   H6Y22215   3.404   0.316   3.170  0.7508 -1.5359  0.7768
  192SAPI   C3722216   3.304   0.370   3.370 -0.2665 -0.6158 -0.1046
  192SAPI   H7X22217   3.234   0.284   3.370  0.2449 -1.0382 -0.4578
  192SAPI   H7Y22218   3.236   0.454   3.394  1.6138  0.3045  2.5170
  192SAPI   C3822219   3.396   0.344   3.490  0.5463  0.0085 -0.0276
  192SAPI   H8X22220   3.461   0.433   3.497  1.7127 -0.9640  3.2480
  192SAPI   H8Y22221   3.469   0.262   3.473 -0.3043 -1.0404  1.1937
  192SAPI   C3922222   3.321   0.313   3.621 -0.1531 -0.3228 -0.4718
  192SAPI   H9X22223   3.269   0.215   3.614 -0.6783 -0.1691  0.9009
  192SAPI   H9Y22224   3.244   0.388   3.646  1.6149  0.7374  2.2842
  192SAPI  C31022225   3.424   0.311   3.740 -0.3474  0.8252  0.8804
  192SAPI  H10X22226   3.487   0.402   3.726  1.0160 -0.0639  1.0614
  192SAPI  H10Y22227   3.490   0.223   3.740 -2.3496 -0.7652  1.8331
  192SAPI  C31122228   3.359   0.300   3.875  0.6426 -0.6577 -0.6167
  192SAPI  H11X22229   3.346   0.398   3.926  0.5573 -0.2089 -1.4768
  192SAPI  H11Y22230   3.436   0.257   3.943 -0.0613 -0.6748  0.1737
  192SAPI  C31222231   3.229   0.216   3.881 -0.1370  0.0293 -0.2541
  192SAPI  H12X22232   3.267   0.114   3.860  0.6802  0.3953 -0.6224
  192SAPI  H12Y22233   3.166   0.262   3.802  0.0615  1.0649  0.1719
  192SAPI  C31322234   3.155   0.215   4.014 -0.4183 -0.0264  0.0944
  192SAPI  H13X22235   3.225   0.214   4.100  0.7617  2.0233 -0.7876
  192SAPI  H13Y22236   3.085   0.128   4.011  1.9049 -1.9959  0.0398
  192SAPI  C31422237   3.067   0.339   4.036 -0.1806  0.5839  0.7747
  192SAPI  H14X22238   2.958   0.318   4.033 -0.3332  1.4744 -0.6724
  192SAPI  H14Y22239   3.085   0.412   3.954 -0.3451 -0.2402  0.0006
  192SAPI  C31522240   3.105   0.402   4.165  0.2009 -0.6419  0.3262
  192SAPI  H15X22241   3.042   0.493   4.167  0.1471 -0.6881  1.4009
  192SAPI  H15Y22242   3.212   0.431   4.160  0.9549 -3.3659 -2.2435
  192SAPI  C31622243   3.064   0.322   4.292  0.3254 -0.0391 -0.4180
  192SAPI  H16X22244   3.125   0.229   4.290 -3.0377 -2.4492  0.2082
  192SAPI  H16Y22245   2.954   0.305   4.286  0.0189  2.1641 -2.5673
  192SAPI  C31722246   3.095   0.391   4.428  0.0004 -0.2594  0.0992
  192SAPI  H17X22247   3.045   0.490   4.422 -0.8775 -0.5742  1.6395
  192SAPI  H17Y22248   3.204   0.410   4.437  0.1612 -0.9184 -0.3653
  192SAPI  C31822249   3.034   0.316   4.543  0.4773 -0.1550  0.3772
  192SAPI  H18X22250   2.934   0.284   4.505  0.8800 -1.6343  0.5063
  192SAPI  H18Y22251   3.023   0.365   4.642  1.7111 -0.0828  0.4893
  192SAPI  H18Z22252   3.087   0.220   4.564 -1.4939 -2.5425 -4.0404
  193SOD    SOD22253   1.896   0.515   1.961 -0.3187  0.2003  0.3391
  194SOD    SOD22254   4.336   6.041   0.521  0.1643 -0.3197  0.3207
  195SOD    SOD22255   1.829   1.234   0.198 -0.3274  0.2831 -0.2779
  196SOD    SOD22256   6.744   4.028   2.303  0.1630  0.3902 -0.1511
  197SOD    SOD22257   5.967   2.248   1.923 -0.0533  0.5061  0.3401
  198SOD    SOD22258   2.427   3.822   0.959  0.1742  0.3373  0.2766
  199SOD    SOD22259   5.673   6.522   8.092 -0.2283  0.3996  0.0256
  200SOD    SOD22260   3.350   4.102   0.658 -0.1191 -0.4645 -0.1063
  201SOD    SOD22261   1.499   3.947   7.442  0.0519 -0.5180 -0.3310
  202SOD    SOD22262   4.597   0.643   7.397  0.3911  0.5980 -0.0405
  203SOD    SOD22263   5.855   2.991   0.816 -0.1066 -0.4150 -0.0688
  204SOD    SOD22264   5.710   1.216   0.562 -0.1809  0.3045 -0.4472
  205SOD    SOD22265   5.603   2.370   7.576 -0.4781  0.0170  0.1239
  206SOD    SOD22266   0.316   2.728   0.617 -0.0254  0.1326 -0.2989
  207SOD    SOD22267   2.257   0.439   0.804 -0.4341  0.3215  0.2686
  208SOD    SOD22268   6.480   6.739   1.632  0.0011 -0.1624 -0.7288
  209SOD    SOD22269   1.368   6.372   1.931 -0.2770 -0.1440  0.1332
  210SOD    SOD22270   3.968   4.045   7.352 -0.2159 -0.2032  0.1884
  211SOD    SOD22271   5.038   1.412   1.551  0.4649  0.5168 -0.2595
  212SOD    SOD22272   1.779   0.817   7.619 -0.2147 -0.4060  0.0050
  213SOD    SOD22273   1.030   4.289   6.839 -0.1640  0.3715 -0.7849
  214SOD    SOD22274   6.856   6.073   8.264 -0.1065 -0.4589 -0.1318
  215SOD    SOD22275   0.734   1.409   2.409  0.0907  0.1100 -0.1509
  216SOD    SOD22276   6.596   0.555   7.638 -0.2273  0.0311 -0.2897
  217SOD    SOD22277   4.360   2.697   7.317 -0.3781  0.1955  0.1206
  218SOD    SOD22278   0.003   0.468   2.336  0.0814  0.0163 -0.0693
  219SOD    SOD22279   3.056   5.292   6.557  0.0326 -0.2950 -0.3258
  220SOD    SOD22280   5.315   6.470   0.935 -0.3980 -0.2842  0.2917
  221SOD    SOD22281   2.186   3.973   7.230 -0.5269  0.2013  0.3307
  222SOD    SOD22282   6.555   2.452   0.502 -0.0630  0.1051  0.4286
  223SOD    SOD22283   4.386   6.435   2.397 -0.4056 -0.2933 -0.5902
  224SOD    SOD22284   2.127   5.908   2.253  0.6373  0.2453  0.1705
  225SOD    SOD22285   5.137   1.900   0.338  0.3162  0.0390 -0.0892
  226SOD    SOD22286   6.811   5.374   7.368 -0.3610 -0.1660  0.0771
  227SOD    SOD22287   6.637   1.257   0.327 -0.0842 -0.3137  0.0061
  228SOD    SOD22288   6.721   5.524   0.252  0.0344  0.1025  0.1432
  229SOD    SOD22289   1.710   2.006   6.731 -0.0641  0.0416  0.0977
  230SOD    SOD22290   0.156   5.293   1.688  0.1104  0.0639 -0.0576
  231SOD    SOD22291   4.859   3.652   7.367  0.1166  0.3258  0.1835
  232SOD    SOD22292   5.619   3.666   1.499 -0.0159 -0.0829 -0.0189
  233SOD    SOD22293   2.869   2.055   6.787  0.7407  0.1917  0.2417
  234CLA    CLA22294   4.991   5.857   0.848 -0.2135  0.0909 -0.3379
  235CLA    CLA22295   0.215   2.959   1.454 -0.1320  0.7321 -0.3004
  236CLA    CLA22296   4.584   0.631   0.533 -0.2575 -0.1429 -0.3868
  237CLA    CLA22297   5.718   2.757   0.423  0.1291  0.4026  0.5076
  238CLA    CLA22298   3.399   3.122   1.351  0.1660 -0.0002  0.0358
  239CLA    CLA22299   1.013   6.147   1.780 -0.0391 -0.1343 -0.5410
  240CLA    CLA22300   5.396   5.610   8.574  0.0149  0.0784  0.1223
  241CLA    CLA22301   6.267   3.592   1.063  0.0153  0.1522  0.2469
  242CLA    CLA22302   2.319   2.128   0.575  0.3459 -0.0671 -0.4583
  243CLA    CLA22303   1.460   0.412   0.286  0.1372  0.1929  0.1237
  244CLA    CLA22304   2.812   3.494   0.007  0.1755  0.5044  0.3334
  245CLA    CLA22305   2.622   0.142   8.416 -0.3607 -0.6009 -0.0717
  246CLA    CLA22306   5.648   6.752   1.220  0.0225  0.1262 -0.0661
  247CLA    CLA22307   6.398   6.794   0.058  0.0264 -0.4049  0.1887
  248CLA    CLA22308   4.671   5.170   7.963 -0.5535 -0.1011  0.0308
  249CLA    CLA22309   3.259   4.234   0.465 -0.0573 -0.0142 -0.0599
  250CLA    CLA22310   5.379   1.168   1.451  0.1538 -0.0420  0.0447
  251TIP3   OH222311   2.829   4.596   6.837 -0.4790  0.0870  0.4116
  251TIP3    H122312   2.916   4.570   6.869 -0.4937 -0.1347  0.2773
  251TIP3    H222313   2.786   4.513   6.817 -0.8546  0.1838  0.8232
  252TIP3   OH222314   2.374   3.279   8.341 -0.1442  0.0628  1.3030
  252TIP3    H122315   2.369   3.368   8.375 -1.1861  0.0874  1.1119
  252TIP3    H222316   2.313   3.229   8.395 -0.1962 -0.3628  0.8582
  253TIP3   OH222317   6.573   2.402   0.758  0.1112 -0.1307 -0.1137
  253TIP3    H122318   6.622   2.436   0.833  0.1558  0.3441 -0.3597
  253TIP3    H222319   6.571   2.307   0.773  0.0082 -0.0317  0.5567
  254TIP3   OH222320   6.057   6.157   2.246 -0.7211 -0.0238 -0.3765
  254TIP3    H122321   5.979   6.164   2.300 -1.1668 -0.8483 -0.8820
  254TIP3    H222322   6.096   6.074   2.271 -0.1913  0.2267 -0.3664
  255TIP3   OH222323   2.561   2.227   7.180  0.4372 -0.0654  0.4722
  255TIP3    H122324   2.580   2.320   7.170  1.5460 -0.3726 -0.5051
  255TIP3    H222325   2.604   2.202   7.262  1.7946 -0.1085 -0.2229
  256TIP3   OH222326   6.583   5.929   7.303  0.2385 -0.0221 -0.2241
  256TIP3    H122327   6.660   5.927   7.247 -0.1013  0.4746 -0.7270
  256TIP3    H222328   6.617   5.940   7.391  0.7455  0.1900 -0.4447
  257TIP3   OH222329   2.772   3.984   7.965  0.2590  0.0354 -0.6910
  257TIP3    H122330   2.716   3.911   7.937  0.0432  0.4575 -1.3891
  257TIP3    H222331   2.831   3.945   8.029 -0.9558 -0.3758  0.2167
  258TIP3   OH222332   5.507   5.842   1.877 -0.2573 -0.3733 -0.0739
  258TIP3    H122333   5.484   5.878   1.791  0.2940 -1.0813 -0.5264
  258TIP3    H222334   5.488   5.748   1.869 -0.1888 -0.4410  0.5718
  259TIP3   OH222335   0.455   6.660   8.183  0.3413 -0.0092 -0.6894
  259TIP3    H122336   0.482   6.731   8.241 -0.7768  0.4121 -0.6765
  259TIP3    H222337   0.422   6.704   8.105 -0.5381 -0.5081 -0.6034
  260TIP3   OH222338   6.522   0.612   7.849 -0.4722  0.1147 -0.2341
  260TIP3    H122339   6.442   0.585   7.895 -1.1118  0.1065 -1.3277
  260TIP3    H222340   6.570   0.664   7.914 -0.6766 -1.0462  0.9063
  261TIP3   OH222341   0.822   1.516   0.108 -0.0595  0.0726  0.4035
  261TIP3    H122342   0.875   1.451   0.155  0.1984  0.0858  0.1309
  261TIP3    H222343   0.835   1.597   0.158  1.5861  0.5047 -0.6386
  262TIP3   OH222344   3.694   4.103   7.896  0.5470  0.2170  0.0477
  262TIP3    H122345   3.711   4.095   7.802  3.4591 -0.0227  0.4742
  262TIP3    H222346   3.685   4.013   7.926  0.4073  0.2530  0.1130
  263TIP3   OH222347   3.765   1.933   8.270  0.1278  0.5676  0.3051
  263TIP3    H122348   3.705   1.914   8.342 -0.7190 -1.0623 -0.7937
  263TIP3    H222349   3.715   1.917   8.191  1.4011  1.1890 -0.6778
  264TIP3   OH222350   2.623   0.229   6.897  0.0328 -0.5023 -0.3744
  264TIP3    H122351   2.714   0.207   6.875  1.5736  2.5126  2.1929
  264TIP3    H222352   2.605   0.308   6.845 -0.5043 -0.1150  0.3937
  265TIP3   OH222353   2.116   5.438   1.295 -0.2440 -0.4250  0.1363
  265TIP3    H122354   2.083   5.363   1.345  0.9343 -0.4100  0.9751
  265TIP3    H222355   2.037   5.488   1.273 -0.7813  0.1323  2.9198
  266TIP3   OH222356   4.645   6.457   1.036 -0.6398  0.1182  0.1459
  266TIP3    H122357   4.576   6.516   1.066 -0.2553  1.5040 -1.5157
  266TIP3    H222358   4.602   6.399   0.973 -0.2575  1.2136 -1.1568
  267TIP3   OH222359   0.414   6.213   2.876  0.3879 -0.0803  0.0380
  267TIP3    H122360   0.509   6.201   2.867  0.3251 -1.6033  0.9433
  267TIP3    H222361   0.386   6.137   2.928 -1.1872  0.8715  0.6359
  268TIP3   OH222362   4.817   6.510   7.574  0.6044 -0.4086  0.1092
  268TIP3    H122363   4.745   6.448   7.573  1.5403 -1.5355 -0.6310
  268TIP3    H222364   4.797   6.570   7.646 -1.0952 -0.6209 -0.1575
  269TIP3   OH222365   6.265   0.057   8.410 -0.0877 -0.1431  0.7013
  269TIP3    H122366   6.276   0.141   8.455  1.0027  0.4623 -0.6155
  269TIP3    H222367   6.200   0.010   8.462  0.2451  0.9843  2.2106
  270TIP3   OH222368   3.912   5.109   7.334 -0.1118 -0.0622  0.1716
  270TIP3    H122369   3.944   5.074   7.251  1.1894  1.7986 -0.1820
  270TIP3    H222370   3.987   5.158   7.369 -0.9941  0.1200  1.9011
  271TIP3   OH222371   1.551   4.324   1.887 -0.0168  0.1969  0.0933
  271TIP3    H122372   1.636   4.347   1.924 -0.3331  0.4984  0.6647
  271TIP3    H222373   1.515   4.260   1.949 -0.2941  0.2413 -0.0206
  272TIP3   OH222374   1.909   4.454   2.530  0.7376 -0.0061 -1.0076
  272TIP3    H122375   1.984   4.475   2.586 -0.1665  0.9182 -0.0943
  272TIP3    H222376   1.843   4.518   2.554 -0.4850 -1.0260 -1.5306
  273TIP3   OH222377   2.413   6.390   0.996  0.1768 -0.8120 -0.2412
  273TIP3    H122378   2.432   6.347   1.080  0.3471 -0.3075 -0.0210
  273TIP3    H222379   2.318   6.378   0.985  0.0868 -0.5426  0.2139
  274TIP3   OH222380   4.241   0.328   0.775  0.1901  1.0648  0.6438
  274TIP3    H122381   4.334   0.313   0.793  0.1149  0.8889  0.8984
  274TIP3    H222382   4.239   0.405   0.719  0.6101  0.1148 -0.7370
  275TIP3   OH222383   3.810   3.995   8.295  0.4685  0.2154  0.3395
  275TIP3    H122384   3.770   3.908   8.297  0.5025  0.2025  2.0951
  275TIP3    H222385   3.739   4.054   8.321  0.2373  0.8233 -1.5825
  276TIP3   OH222386   1.265   6.084   0.975 -0.2689 -0.3288  0.3565
  276TIP3    H122387   1.240   6.003   1.019  0.9741 -1.0089 -0.1393
  276TIP3    H222388   1.237   6.071   0.884 -0.0512 -0.2008  0.2726
  277TIP3   OH222389   5.271   2.513   8.415  0.5637  0.1939 -0.0901
  277TIP3    H122390   5.227   2.459   8.348 -1.6845  0.4737  1.0636
  277TIP3    H222391   5.270   2.458   8.493  2.8392  0.0193 -0.1337
  278TIP3   OH222392   0.701   2.214   8.082  0.1027 -0.6942  0.4411
  278TIP3    H122393   0.746   2.145   8.130  1.8624  0.5302  0.6446
  278TIP3    H222394   0.763   2.240   8.014 -0.0904  1.3518  0.9878
  279TIP3   OH222395   0.527   4.861   1.881  0.6028  0.0659  0.1651
  279TIP3    H122396   0.465   4.794   1.851  1.2677 -0.7950  0.6772
  279TIP3    H222397   0.603   4.811   1.912  1.9929  1.1083 -1.3696
  280TIP3   OH222398   0.040   1.035   8.139  0.1417  0.8935 -0.2338
  280TIP3    H122399  -0.033   1.092   8.164  0.3589  0.6730  0.9986
  280TIP3    H222400   0.023   0.953   8.185  0.6515  0.4971 -0.7361
  281TIP3   OH222401   1.085   1.993   1.722 -0.1906 -0.1428 -0.1767
  281TIP3    H122402   1.177   2.018   1.710  0.0011 -0.8000 -0.1546
  281TIP3    H222403   1.088   1.899   1.739 -0.9065 -0.2773 -0.7004
  282TIP3   OH222404   5.866   5.853   1.885 -0.3005 -0.1731  0.1196
  282TIP3    H122405   5.855   5.942   1.850 -0.5660 -0.8878 -1.7569
  282TIP3    H222406   5.843   5.860   1.977 -1.2998  1.5241 -0.2207
  283TIP3   OH222407   1.588   0.147   8.391  0.3710  0.2828 -0.4819
  283TIP3    H122408   1.583   0.108   8.304 -0.0807  2.3404 -1.4300
  283TIP3    H222409   1.633   0.230   8.378  0.3152  0.6214  1.2568
  284TIP3   OH222410   4.227   0.055   7.949 -0.1552  0.1077 -0.3298
  284TIP3    H122411   4.231   0.151   7.954  1.8459  0.0411  0.0255
  284TIP3    H222412   4.318   0.027   7.949 -0.7011 -1.9219  1.5638
  285TIP3   OH222413   3.447   4.336   1.722 -0.3195 -0.1354  1.0294
  285TIP3    H122414   3.472   4.314   1.812 -0.1106  1.3569  1.3628
  285TIP3    H222415   3.384   4.407   1.731  1.6189  1.8289 -0.0305
  286TIP3   OH222416   5.096   6.512   7.139  0.0481 -0.3148 -0.2028
  286TIP3    H122417   5.071   6.570   7.067  4.0515  1.0088 -0.7889
  286TIP3    H222418   5.087   6.567   7.217 -1.2484 -0.7103 -0.0572
  287TIP3   OH222419   5.199   1.369   0.510 -0.2832 -0.2897  0.2789
  287TIP3    H122420   5.146   1.305   0.557  0.2997  0.4852  2.0632
  287TIP3    H222421   5.136   1.427   0.468 -0.8117 -1.5198 -0.6824
  288TIP3   OH222422   6.055   0.855   7.476  0.5418  0.2387  0.1153
  288TIP3    H122423   6.010   0.850   7.392  1.4519  1.1241 -0.4529
  288TIP3    H222424   5.986   0.845   7.541 -0.0964 -1.0787 -0.7341
  289TIP3   OH222425   5.347   5.179   0.051  0.2073  0.4794  0.1980
  289TIP3    H122426   5.362   5.268   0.082 -0.5696  0.7164 -0.0637
  289TIP3    H222427   5.339   5.188  -0.044  2.2222 -0.1866 -0.0741
  290TIP3   OH222428   6.428   1.727   7.649  0.0850 -0.0954 -0.1822
  290TIP3    H122429   6.444   1.637   7.678 -0.3314 -0.0811  0.1049
  290TIP3    H222430   6.343   1.723   7.605  0.8881 -0.1958 -1.7952
  291TIP3   OH222431   3.066   5.500   0.082 -0.1010  0.4934 -0.3307
  291TIP3    H122432   3.045   5.583   0.040  1.4117  1.1788  0.1711
  291TIP3    H222433   3.147   5.518   0.130 -1.4265 -0.3713  2.4264
  292TIP3   OH222434   3.045   5.387   7.566  0.5835  0.0834  0.3587
  292TIP3    H122435   2.964   5.438   7.573  0.0460 -0.8710  1.3293
  292TIP3    H222436   3.015   5.297   7.558  1.5239 -0.1260 -1.1880
  293TIP3   OH222437   4.195   1.733   7.254 -0.3618 -0.2743  0.0166
  293TIP3    H122438   4.249   1.810   7.238  0.9694 -1.4159 -1.3336
  293TIP3    H222439   4.255   1.659   7.240 -1.2133 -1.5618  2.6744
  294TIP3   OH222440   0.810   0.924   2.382 -0.1465  0.2763 -0.7644
  294TIP3    H122441   0.879   0.977   2.422 -0.7254 -0.4243  1.3062
  294TIP3    H222442   0.743   0.987   2.356 -1.5600  0.6473  3.1173
  295TIP3   OH222443   5.006   3.145   7.238  0.0165  0.2217  0.0486
  295TIP3    H122444   4.978   3.059   7.207  0.0256  0.4408 -0.5657
  295TIP3    H222445   5.043   3.188   7.161  0.0113  0.7803  0.3533
  296TIP3   OH222446   2.762   5.198   7.619 -0.1157 -0.1470 -0.2269
  296TIP3    H122447   2.792   5.194   7.528  2.1410 -0.1973  0.4525
  296TIP3    H222448   2.757   5.107   7.647  0.8784 -0.0992  0.1653
  297TIP3   OH222449   3.892   5.346   6.591  0.1368  0.1001  0.5057
  297TIP3    H122450   3.970   5.296   6.567 -0.0021 -0.3734  1.0331
  297TIP3    H222451   3.925   5.434   6.609  0.5229 -0.0490  0.5398
  298TIP3   OH222452   0.803   5.984   6.578  0.3950  0.0335 -0.2880
  298TIP3    H122453   0.851   5.967   6.659 -0.1238  1.5116  0.3723
  298TIP3    H222454   0.713   5.959   6.597  0.4530 -0.5134 -0.7311
  299TIP3   OH222455   4.245   5.944   6.841 -0.0964  0.2675 -1.1930
  299TIP3    H122456   4.185   5.979   6.776  0.0058  1.4386 -0.6757
  299TIP3    H222457   4.236   5.849   6.833 -0.8162  0.4100 -2.2202
  300TIP3   OH222458   3.900   6.414   0.473 -0.0399  0.1635 -0.4730
  300TIP3    H122459   3.890   6.504   0.443  0.3887 -0.6785 -3.4381
  300TIP3    H222460   3.811   6.380   0.481 -0.1896  0.7208  0.3367
  301TIP3   OH222461   6.731   2.028   0.522  0.1882 -0.5710  0.6220
  301TIP3    H122462   6.821   2.020   0.553  0.5515  0.3212 -0.1622
  301TIP3    H222463   6.709   1.940   0.490  1.1861 -0.5265 -0.2365
  302TIP3   OH222464   2.561   1.555   0.447  0.1567  0.6855 -0.2532
  302TIP3    H122465   2.511   1.575   0.526  0.1660  1.4684 -0.4383
  302TIP3    H222466   2.498   1.515   0.388  0.3558 -0.7816  0.4827
  303TIP3   OH222467   2.383   0.304   7.440  0.0919  0.1040  0.8194
  303TIP3    H122468   2.355   0.304   7.349  0.1415 -0.5335  0.7978
  303TIP3    H222469   2.306   0.272   7.489 -0.3075  1.4937  1.1307
  304TIP3   OH222470   3.674   3.654   0.146  0.0743 -0.4686 -0.2907
  304TIP3    H122471   3.727   3.723   0.184 -2.0035  1.2006 -0.2729
  304TIP3    H222472   3.724   3.624   0.070  1.7714 -0.1357  0.6517
  305TIP3   OH222473   3.908   6.311   7.756 -0.2081  0.5808  0.1690
  305TIP3    H122474   3.874   6.232   7.715  0.2845 -0.0234  0.8874
  305TIP3    H222475   3.833   6.347   7.805 -0.0077 -0.3929  1.2270
  306TIP3   OH222476   3.997   3.356   7.909  0.3091 -0.1959  0.6730
  306TIP3    H122477   4.056   3.415   7.862 -0.9824 -0.5534 -1.5455
  306TIP3    H222478   3.941   3.414   7.961  1.3101  0.2715  1.2470
  307TIP3   OH222479   0.383   0.751   7.861  0.0174  0.3002  0.7417
  307TIP3    H122480   0.425   0.668   7.839  0.5741  0.8324 -0.2605
  307TIP3    H222481   0.408   0.767   7.952  1.7355  0.4299  0.2780
  308TIP3   OH222482   4.374   5.894   8.060 -0.0496 -0.6680  0.3660
  308TIP3    H122483   4.387   5.895   7.965 -0.2193  0.7311  0.3333
  308TIP3    H222484   4.293   5.846   8.073 -0.8120  0.3755 -0.3344
  309TIP3   OH222485   1.413   1.252   8.208 -0.6588  0.3283 -0.1390
  309TIP3    H122486   1.339   1.217   8.258 -0.4577  0.0754 -0.0099
  309TIP3    H222487   1.398   1.222   8.119  0.4799 -1.7760  0.2928
  310TIP3   OH222488   6.141   5.183   8.400 -0.1881 -0.2868  0.4844
  310TIP3    H122489   6.087   5.236   8.340 -1.3924 -2.2023 -0.1974
  310TIP3    H222490   6.079   5.151   8.465  0.1066 -2.3466 -0.1827
  311TIP3   OH222491   2.197   0.096   8.044 -0.9317  0.2044  0.1414
  311TIP3    H122492   2.250   0.031   7.997 -0.6926  0.3496  0.2061
  311TIP3    H222493   2.242   0.107   8.128 -1.1591  0.2060  0.2627
  312TIP3   OH222494   0.801   4.687   1.582  0.0998  0.6400 -0.2980
  312TIP3    H122495   0.850   4.607   1.566  0.4162  0.8199 -0.2308
  312TIP3    H222496   0.867   4.756   1.585 -0.0192  0.7085  1.1181
  313TIP3   OH222497   2.699   2.565   0.928  0.2394  0.2031 -0.5294
  313TIP3    H122498   2.748   2.642   0.957  0.5512 -0.3804  0.5517
  313TIP3    H222499   2.755   2.525   0.861 -0.2765  1.3083 -1.6752
  314TIP3   OH222500   5.795   0.859   2.254  0.2090  0.5560  0.0164
  314TIP3    H122501   5.838   0.944   2.260  2.4452 -0.5683  2.6598
  314TIP3    H222502   5.855   0.805   2.202 -0.6429  0.3197 -0.7277
  315TIP3   OH222503   3.103   1.054   2.745  0.0783 -0.2403  0.1877
  315TIP3    H122504   3.146   1.098   2.818  0.3539  0.8415 -0.6005
  315TIP3    H222505   3.155   0.974   2.731  1.0390  0.3851  0.1114
  316TIP3   OH222506   4.722   1.317   7.480  0.1896 -0.2321 -0.0834
  316TIP3    H122507   4.750   1.226   7.475 -0.4334 -0.3899 -0.9179
  316TIP3    H222508   4.732   1.350   7.391  0.1567  0.4476  0.1568
  317TIP3   OH222509   2.780   0.323   2.354  0.3048  0.3666  0.2764
  317TIP3    H122510   2.841   0.294   2.422  1.3884  0.6097 -0.5601
  317TIP3    H222511   2.750   0.409   2.383  2.6237  1.5782 -0.6622
  318TIP3   OH222512   3.374   0.836   0.562 -0.0740  0.3520 -0.1798
  318TIP3    H122513   3.376   0.772   0.633 -1.4954 -0.3838 -0.7471
  318TIP3    H222514   3.342   0.916   0.603  2.1043  0.8667  0.6230
  319TIP3   OH222515   6.804   1.923   1.816  0.3008  0.4664  0.2539
  319TIP3    H122516   6.773   1.964   1.735  0.4157 -0.9338 -0.5260
  319TIP3    H222517   6.862   1.989   1.856  1.5967  0.5444 -1.6525
  320TIP3   OH222518   1.062   4.244   7.402 -0.2634 -0.5718  0.3303
  320TIP3    H122519   1.055   4.153   7.375  0.7672 -0.2468 -1.1827
  320TIP3    H222520   1.023   4.294   7.330 -1.9155  0.1556  1.6683
  321TIP3   OH222521   0.584   4.519   1.696 -0.2488 -0.1403  1.0078
  321TIP3    H122522   0.505   4.570   1.675 -0.0112 -0.8852 -2.0655
  321TIP3    H222523   0.657   4.576   1.670  0.0227 -1.9837 -3.0443
  322TIP3   OH222524   6.571   0.894   7.738 -0.0956  0.0394  0.2259
  322TIP3    H122525   6.483   0.869   7.766  0.8300 -1.5435  1.9363
  322TIP3    H222526   6.585   0.846   7.657 -0.9741  0.7390 -0.3683
  323TIP3   OH222527   4.948   6.231   7.504  0.1554 -0.3455  0.0779
  323TIP3    H122528   4.986   6.287   7.436 -0.0167  1.6869  1.5323
  323TIP3    H222529   5.020   6.217   7.566 -0.9138  2.3696  2.1413
  324TIP3   OH222530   2.063   0.851   0.742 -0.1113  0.3679 -0.0336
  324TIP3    H122531   2.006   0.926   0.723 -1.3821 -0.3439  0.7773
  324TIP3    H222532   2.139   0.863   0.685 -1.1671  1.2446 -1.3292
  325TIP3   OH222533   2.002   0.660   8.549  0.3452  0.3748  0.5223
  325TIP3    H122534   2.091   0.668   8.513  0.3816  1.3512  0.8005
  325TIP3    H222535   1.968   0.579   8.511  0.2147  1.5574 -2.1176
  326TIP3   OH222536   1.426   0.828   0.094 -0.7469  0.0341 -0.0922
  326TIP3    H122537   1.493   0.760   0.089  0.0815  0.8749 -0.9131
  326TIP3    H222538   1.376   0.818   0.013  0.3034  1.2915 -0.9390
  327TIP3   OH222539   4.864   4.641   7.198 -0.1837 -0.6955 -0.1242
  327TIP3    H122540   4.821   4.559   7.223 -1.6154 -0.3241 -1.2401
  327TIP3    H222541   4.812   4.675   7.125  0.3546  1.2332  0.3214
  328TIP3   OH222542   4.302   2.685   8.562  0.5626  0.1337  0.2249
  328TIP3    H122543   4.283   2.697   8.469  1.0308  0.1958  0.1377
  328TIP3    H222544   4.217   2.664   8.601  0.1949  1.0574 -0.0576
  329TIP3   OH222545   1.008   6.193   2.117 -0.0007  0.4153  0.3411
  329TIP3    H122546   1.030   6.172   2.026  1.1886  1.5618  0.3366
  329TIP3    H222547   1.021   6.111   2.165  0.0195 -0.0275 -0.4136
  330TIP3   OH222548   6.218   5.014   0.733  0.2056  0.2492  0.0478
  330TIP3    H122549   6.207   5.109   0.724  0.0203  0.5139  2.4117
  330TIP3    H222550   6.128   4.980   0.734  0.2807 -0.0967 -1.6006
  331TIP3   OH222551   5.228   6.153   2.119 -0.4825 -0.1047  0.0660
  331TIP3    H122552   5.138   6.133   2.144 -0.3101 -2.9351 -1.0988
  331TIP3    H222553   5.254   6.079   2.064  2.5026  0.7115  0.1954
  332TIP3   OH222554   0.789   6.636   0.224 -0.6582  0.0264  0.7598
  332TIP3    H122555   0.835   6.553   0.229  0.9826  0.9061  0.8448
  332TIP3    H222556   0.761   6.653   0.315  0.0454  0.1222  0.9644
  333TIP3   OH222557   2.817   1.246   0.916 -0.4968 -0.0074  0.0579
  333TIP3    H122558   2.893   1.258   0.973  0.6782 -0.8618 -1.2717
  333TIP3    H222559   2.812   1.326   0.865  0.6504 -0.6531 -1.1192
  334TIP3   OH222560   4.463   2.816   7.494 -0.1051  0.7921  0.0817
  334TIP3    H122561   4.518   2.763   7.551  0.6128  0.5686 -0.7951
  334TIP3    H222562   4.435   2.890   7.549 -0.0413  0.1995  0.9208
  335TIP3   OH222563   5.825   4.263   7.224 -0.2475  0.1030 -0.6203
  335TIP3    H122564   5.739   4.222   7.221 -0.8273  1.2945 -0.8437
  335TIP3    H222565   5.884   4.198   7.185 -1.0102 -0.7826 -0.3317
  336TIP3   OH222566   2.391   2.958   8.694 -0.3279  0.0427  0.3519
  336TIP3    H122567   2.379   2.879   8.746 -3.0193  1.3399  1.9747
  336TIP3    H222568   2.384   2.929   8.603 -3.1684 -1.4318  0.9171
  337TIP3   OH222569   5.924   1.130   0.537 -0.3941 -0.5908 -0.8011
  337TIP3    H122570   5.994   1.118   0.602 -0.5502 -0.7162 -0.6547
  337TIP3    H222571   5.939   1.059   0.474  0.0939 -0.1339 -1.2072
  338TIP3   OH222572   3.369   4.928   8.132  0.2557  0.3015  0.3427
  338TIP3    H122573   3.334   4.989   8.067  0.6527  1.9377  1.5746
  338TIP3    H222574   3.295   4.910   8.190  0.6449  1.3439  1.1985
  339TIP3   OH222575   2.312   4.861   0.786  0.4440  0.5298  0.3426
  339TIP3    H122576   2.351   4.891   0.869  0.0887  0.9884  0.3470
  339TIP3    H222577   2.279   4.941   0.745 -1.2957  0.0403  0.7455
  340TIP3   OH222578   2.263   2.219   8.157  0.3945  0.6334 -0.0277
  340TIP3    H122579   2.273   2.297   8.102  1.1036  0.7001  0.1766
  340TIP3    H222580   2.257   2.146   8.096  0.5638  0.7708 -0.2105
  341TIP3   OH222581   2.882   3.077   7.203  0.2663  0.2412  0.4267
  341TIP3    H122582   2.911   2.986   7.200 -3.4226 -1.0923 -1.8780
  341TIP3    H222583   2.909   3.114   7.119 -0.3692  0.4840  0.3230
  342TIP3   OH222584   3.054   0.682   0.788 -0.3019  0.7131 -0.2985
  342TIP3    H122585   3.022   0.684   0.698 -0.1631 -3.1240 -0.5989
  342TIP3    H222586   3.147   0.660   0.781 -0.5906 -1.0593  0.7298
  343TIP3   OH222587   3.462   3.957   1.155 -0.6040 -0.2269  0.1837
  343TIP3    H122588   3.529   4.024   1.168 -0.8329  0.0485 -0.0464
  343TIP3    H222589   3.379   4.002   1.171 -0.9938  0.3757 -2.8623
  344TIP3   OH222590   1.287   2.364   7.830  0.1070  0.3241 -0.1217
  344TIP3    H122591   1.309   2.431   7.894 -1.8888  0.0976  0.8613
  344TIP3    H222592   1.263   2.413   7.751  2.0838  0.6134 -0.5913
  345TIP3   OH222593   2.378   2.281   1.087  0.1852 -0.3671  0.0905
  345TIP3    H122594   2.402   2.338   1.014  1.5799  0.5769  1.2321
  345TIP3    H222595   2.318   2.217   1.049  0.0277  0.7442 -1.6382
  346TIP3   OH222596   0.625   4.111   6.797 -0.0836  0.5433 -0.3345
  346TIP3    H122597   0.538   4.139   6.770 -1.2760 -1.9761  0.6167
  346TIP3    H222598   0.610   4.047   6.867  2.5279  0.0787 -0.0742
  347TIP3   OH222599   3.363   4.067   7.806  0.4691 -0.3538  0.2607
  347TIP3    H122600   3.281   4.103   7.840 -0.3727 -1.9006 -0.0035
  347TIP3    H222601   3.431   4.101   7.864 -0.1269  2.2025 -0.4048
  348TIP3   OH222602   6.795   0.837   0.335 -0.3102 -0.6340 -0.2588
  348TIP3    H122603   6.886   0.839   0.305 -0.2765 -0.3814 -0.1444
  348TIP3    H222604   6.798   0.879   0.421 -0.7074  0.3880 -0.7322
  349TIP3   OH222605   0.311   1.390   0.933 -0.1498  0.1450 -0.3038
  349TIP3    H122606   0.215   1.392   0.929 -0.1966  0.1610  0.5503
  349TIP3    H222607   0.340   1.447   0.862 -0.7689  0.1420 -0.5655
  350TIP3   OH222608   1.652   1.232   0.534  0.3940  0.1548  0.4156
  350TIP3    H122609   1.591   1.222   0.462  0.7509 -0.2755  0.1684
  350TIP3    H222610   1.738   1.243   0.491  0.3945  1.6501  0.7201
  351TIP3   OH222611   0.426   4.596   1.341  0.2687  0.0665 -0.5440
  351TIP3    H122612   0.336   4.617   1.366  0.2489 -1.3283  0.6359
  351TIP3    H222613   0.418   4.556   1.254 -0.3527 -0.8630 -0.0668
  352TIP3   OH222614   0.547   1.324   8.564 -0.0499  0.6845  0.0070
  352TIP3    H122615   0.536   1.255   8.499  0.0092 -0.0685  0.7820
  352TIP3    H222616   0.641   1.334   8.574 -0.0516  1.1352 -0.3539
  353TIP3   OH222617   3.481   5.822   0.768 -0.0810  0.2688  0.0603
  353TIP3    H122618   3.468   5.849   0.859 -0.4580  1.5147 -0.3305
  353TIP3    H222619   3.394   5.796   0.738  0.1540 -0.7359  0.2210
  354TIP3   OH222620   2.360   0.664   2.461  0.0323 -0.4424  0.2549
  354TIP3    H122621   2.288   0.654   2.398 -0.0908  2.8642 -0.2863
  354TIP3    H222622   2.403   0.578   2.462 -1.8347 -1.5142 -1.9636
  355TIP3   OH222623   1.686   4.451   0.878  0.2229  0.0839 -0.0762
  355TIP3    H122624   1.644   4.383   0.825 -0.4363  0.6826 -0.3427
  355TIP3    H222625   1.731   4.506   0.815 -2.7029  2.3351 -0.4086
  356TIP3   OH222626   6.868   2.297   0.725  0.0935  0.4347 -0.1170
  356TIP3    H122627   6.913   2.215   0.744 -1.5816 -1.1575 -2.3447
  356TIP3    H222628   6.776   2.279   0.748 -0.2800  1.6997 -0.5447
  357TIP3   OH222629   4.645   4.380   0.543 -0.3470 -0.0853 -0.1194
  357TIP3    H122630   4.634   4.468   0.580 -0.0474 -0.2040  0.2546
  357TIP3    H222631   4.713   4.340   0.597 -0.1793 -0.3967 -0.5596
  358TIP3   OH222632   1.745   1.131   8.488 -0.3529  0.1574  0.0380
  358TIP3    H122633   1.807   1.152   8.558 -0.0637  0.7359 -0.3780
  358TIP3    H222634   1.708   1.216   8.463  0.3910  0.1215 -1.2763
  359TIP3   OH222635   0.793   2.233   0.728 -0.3433  0.2636 -0.2270
  359TIP3    H122636   0.716   2.185   0.696 -0.7323  0.1155  0.8867
  359TIP3    H222637   0.757   2.314   0.764 -0.1709 -0.4196  1.5822
  360TIP3   OH222638   4.315   4.578   8.164  0.3027 -0.8571  0.6463
  360TIP3    H122639   4.255   4.640   8.204 -0.7369 -0.4286 -1.4412
  360TIP3    H222640   4.382   4.632   8.123  1.1329 -1.2683  1.4173
  361TIP3   OH222641   1.218   1.754   0.875  0.5650  0.4802 -0.1963
  361TIP3    H122642   1.267   1.745   0.794  1.4591  1.7077  0.1782
  361TIP3    H222643   1.134   1.791   0.850  0.7789  0.7026 -0.5822
  362TIP3   OH222644   3.421   5.512   8.688 -0.8696  0.1359  0.3423
  362TIP3    H122645   3.471   5.496   8.768 -0.7750  2.0617  0.7206
  362TIP3    H222646   3.435   5.434   8.634 -0.4022 -0.9138  1.9175
  363TIP3   OH222647   1.334   1.190   6.837  0.4274 -0.3089  0.2573
  363TIP3    H122648   1.311   1.113   6.785 -1.1929  1.5394 -2.0374
  363TIP3    H222649   1.374   1.250   6.774  0.1555  1.3368  1.5750
  364TIP3   OH222650   0.710   6.767   7.924  0.7000 -0.1344 -0.1014
  364TIP3    H122651   0.788   6.758   7.978  1.5196  1.5251 -0.9224
  364TIP3    H222652   0.742   6.765   7.834 -0.3872 -0.8307 -0.4910
  365TIP3   OH222653   4.374   6.790   1.356  0.3399  0.3811 -0.6645
  365TIP3    H122654   4.331   6.733   1.419  1.5551  0.1225 -0.0250
  365TIP3    H222655   4.322   6.870   1.356 -2.0245 -1.0639 -2.3852
  366TIP3   OH222656   4.281   2.641   0.400 -0.5052  0.3202 -0.4710
  366TIP3    H122657   4.216   2.664   0.466  0.5730 -1.8773  1.5092
  366TIP3    H222658   4.365   2.651   0.445  0.4180  0.7966 -2.2148
  367TIP3   OH222659   1.779   4.356   8.338 -0.2978 -0.1997 -0.3254
  367TIP3    H122660   1.871   4.382   8.335 -1.0085  2.6433 -0.5710
  367TIP3    H222661   1.735   4.428   8.385 -2.2570 -2.0335  0.8738
  368TIP3   OH222662   1.452   6.735   7.585 -0.1887  0.3408  0.5949
  368TIP3    H122663   1.540   6.698   7.586 -0.2460  0.1872  2.0471
  368TIP3    H222664   1.453   6.797   7.512  0.8828 -0.2028  0.1271
  369TIP3   OH222665   5.451   3.761   0.916 -0.3575  0.7506 -0.0389
  369TIP3    H122666   5.369   3.779   0.961 -1.1969  2.2554 -2.0252
  369TIP3    H222667   5.460   3.833   0.854  0.3716 -1.5263 -2.7455
  370TIP3   OH222668   5.136   3.444   2.077 -0.2079 -0.6832  0.0306
  370TIP3    H122669   5.164   3.422   2.165 -0.9705 -0.8575  0.2346
  370TIP3    H222670   5.206   3.411   2.020  0.3812 -0.3838  0.5768
  371TIP3   OH222671   6.379   3.805   7.273  0.0557  0.0724  0.6596
  371TIP3    H122672   6.316   3.866   7.234  1.6630  1.0915 -0.4392
  371TIP3    H222673   6.421   3.763   7.198  1.4101  0.1659  1.3354
  372TIP3   OH222674   3.904   2.934   7.987  0.6917  0.2177 -0.0453
  372TIP3    H122675   3.853   2.896   8.058 -0.5697 -2.0353 -1.9956
  372TIP3    H222676   3.929   3.021   8.018 -1.7668  0.2195  2.2033
  373TIP3   OH222677   3.905   5.003   0.857  0.7889 -0.0072  0.3546
  373TIP3    H122678   3.839   5.023   0.923  1.5246 -1.0871  1.4669
  373TIP3    H222679   3.969   5.074   0.864  0.1278  0.6619 -0.2359
  374TIP3   OH222680   1.997   4.136   1.938 -0.1132 -0.0972  0.0490
  374TIP3    H122681   1.940   4.168   2.008 -0.0580 -0.6892  0.3737
  374TIP3    H222682   1.985   4.041   1.940 -2.2538  0.0075 -2.5635
  375TIP3   OH222683   4.662   3.009   7.808 -0.5706  0.0917 -0.1740
  375TIP3    H122684   4.602   3.083   7.806 -0.6820  0.0101 -2.5076
  375TIP3    H222685   4.737   3.039   7.858 -1.6729  0.8979  1.0387
  376TIP3   OH222686   4.116   2.219   1.871 -0.6087  0.6936 -0.1487
  376TIP3    H122687   4.124   2.241   1.964  0.2322 -1.8049  0.4739
  376TIP3    H222688   4.024   2.193   1.860  0.1157 -3.2005  1.2088
  377TIP3   OH222689   4.988   1.040   2.393 -0.2250 -0.0771 -0.1141
  377TIP3    H122690   4.947   0.978   2.333 -1.8730 -0.2292  1.0892
  377TIP3    H222691   4.958   1.013   2.480  2.0179  0.1694  0.8256
  378TIP3   OH222692   4.617   0.033   1.831  0.4482  0.7229  0.4203
  378TIP3    H122693   4.573   0.054   1.749  0.4906  0.5564  0.3554
  378TIP3    H222694   4.564  -0.039   1.868  1.5100 -0.5026 -0.3659
  379TIP3   OH222695   6.492   2.298   8.667 -0.2915  0.2023 -0.3587
  379TIP3    H122696   6.429   2.241   8.622  0.4221 -0.9755  0.0770
  379TIP3    H222697   6.473   2.286   8.760  0.4619 -0.0677 -0.2261
  380TIP3   OH222698   0.544   1.056   0.313 -0.0900 -0.3792  0.2878
  380TIP3    H122699   0.506   0.972   0.341 -0.8913 -0.7019 -1.6038
  380TIP3    H222700   0.630   1.033   0.278  0.6092 -0.0780  1.7544
  381TIP3   OH222701   4.158   1.057   1.194 -0.1521 -0.3622 -0.4553
  381TIP3    H122702   4.066   1.078   1.181  0.4523  1.1956 -2.7828
  381TIP3    H222703   4.186   1.019   1.111  1.0898 -1.8625  0.5742
  382TIP3   OH222704   1.105   2.154   8.323  0.2145 -0.0924  0.2837
  382TIP3    H122705   1.063   2.134   8.240 -1.1298  2.1495  0.3356
  382TIP3    H222706   1.141   2.070   8.353 -0.6898 -1.2772 -1.7333
  383TIP3   OH222707   2.188   0.035   7.638 -0.4026  0.3048 -0.0124
  383TIP3    H122708   2.217  -0.040   7.691  0.0487  0.7193  0.3327
  383TIP3    H222709   2.173  -0.003   7.551 -0.9344 -0.3356  0.3495
  384TIP3   OH222710   6.275   2.455   0.815  0.2022 -0.4961 -0.0755
  384TIP3    H122711   6.266   2.367   0.850  0.8887 -0.4198  0.3207
  384TIP3    H222712   6.370   2.467   0.804  0.2311  0.6637  1.1418
  385TIP3   OH222713   6.135   2.241   7.659  0.0437  0.0795  0.5069
  385TIP3    H122714   6.222   2.250   7.619 -0.5336 -0.3837 -0.9275
  385TIP3    H222715   6.112   2.329   7.687  0.2354  0.5511 -0.7531
  386TIP3   OH222716   3.647   2.709   0.800 -0.3163  0.8981  1.0113
  386TIP3    H122717   3.654   2.748   0.887 -2.6592 -0.3026  1.8156
  386TIP3    H222718   3.574   2.755   0.759 -0.6050  0.0104  0.5050
  387TIP3   OH222719   2.662   3.267   7.748 -0.4962 -0.4821 -0.0878
  387TIP3    H122720   2.749   3.287   7.714 -0.0201 -0.8819  0.8611
  387TIP3    H222721   2.667   3.174   7.773 -0.9985 -0.3475  0.5389
  388TIP3   OH222722   0.615   6.239   7.661 -0.9280 -0.3267  0.0387
  388TIP3    H122723   0.626   6.152   7.623 -1.4431 -0.4420  0.1468
  388TIP3    H222724   0.576   6.223   7.747 -2.2636  0.0680 -0.4657
  389TIP3   OH222725   1.855   4.844   1.207  0.2856 -0.4302 -0.0511
  389TIP3    H122726   1.892   4.769   1.161  1.0593 -1.0518  1.5146
  389TIP3    H222727   1.829   4.904   1.138  0.9960 -1.5094 -1.2993
  390TIP3   OH222728   5.148   1.054   0.344  0.1914 -0.4928 -0.4427
  390TIP3    H122729   5.067   1.088   0.382 -0.6701 -2.7263 -0.1628
  390TIP3    H222730   5.124   1.024   0.257  1.2955  0.9516 -1.3089
  391TIP3   OH222731   0.881   6.057   2.795  0.7157  0.0117  0.4033
  391TIP3    H122732   0.852   5.971   2.765  0.7248 -0.0563  0.5843
  391TIP3    H222733   0.963   6.072   2.750  0.4339  0.1743 -0.0630
  392TIP3   OH222734   3.174   0.796   7.666 -0.4514 -0.1051  0.7681
  392TIP3    H122735   3.205   0.747   7.590 -2.2502 -0.5683  0.2842
  392TIP3    H222736   3.125   0.732   7.718 -0.5701  0.5648  1.5048
  393TIP3   OH222737   3.297   0.246   1.601  0.4164 -0.0992  0.3121
  393TIP3    H122738   3.275   0.232   1.693  2.0434  1.0957  0.9461
  393TIP3    H222739   3.223   0.210   1.552  0.0861 -1.9118  2.0213
  394TIP3   OH222740   0.835   2.254   7.480 -0.5179  0.3921 -0.2695
  394TIP3    H122741   0.876   2.306   7.549  0.9465  1.0520 -1.5597
  394TIP3    H222742   0.835   2.313   7.404 -2.2735 -0.2372 -0.7871
  395TIP3   OH222743   5.878   0.432   7.595  0.3717 -0.0790 -0.6150
  395TIP3    H122744   5.940   0.366   7.626  0.8334  0.6760  0.1123
  395TIP3    H222745   5.822   0.385   7.534  1.2815 -0.9238 -0.8283
  396TIP3   OH222746   5.391   1.830   1.850 -0.4955 -0.6530 -0.7016
  396TIP3    H122747   5.377   1.741   1.880  0.0803 -0.6807 -0.4885
  396TIP3    H222748   5.356   1.832   1.761 -2.0837 -0.6150 -0.1099
  397TIP3   OH222749   5.269   0.669   7.903 -0.2771 -0.2943 -0.0940
  397TIP3    H122750   5.261   0.760   7.875  1.8296  1.2417  3.6651
  397TIP3    H222751   5.343   0.634   7.852 -0.1832  0.5296 -0.5367
  398TIP3   OH222752   4.008   3.004   0.459 -0.4904  0.0089  0.2694
  398TIP3    H122753   3.929   2.950   0.456 -0.6138  0.1242  1.1057
  398TIP3    H222754   4.068   2.956   0.516 -0.4778  0.5777  0.7529
  399TIP3   OH222755   4.387   2.921   0.129 -0.0978 -0.1219 -0.1814
  399TIP3    H122756   4.386   2.969   0.212 -1.0709  0.0164 -0.2636
  399TIP3    H222757   4.304   2.873   0.129 -0.3321  0.2666 -1.3028
  400TIP3   OH222758   4.824   5.543   7.217  0.0351 -0.7524 -0.4055
  400TIP3    H122759   4.847   5.631   7.187 -1.6098 -0.8090 -1.9984
  400TIP3    H222760   4.804   5.554   7.310  0.5375  0.4249 -0.4219
  401TIP3   OH222761   3.058   2.312   0.363 -0.6562  0.5986  0.1388
  401TIP3    H122762   3.112   2.317   0.441 -0.4694  0.3116  0.0308
  401TIP3    H222763   2.991   2.379   0.375 -0.0907  1.1781  0.1281
  402TIP3   OH222764   0.082   5.964   7.242  0.2256 -0.1260  0.4588
  402TIP3    H122765   0.093   5.870   7.259 -1.0613 -0.4009 -0.1370
  402TIP3    H222766   0.137   5.981   7.166 -0.4726 -0.6657 -0.1766
  403TIP3   OH222767   0.409   1.502   1.983  0.2669  0.2113  0.2963
  403TIP3    H122768   0.319   1.515   2.011  0.3967  0.5789  0.5523
  403TIP3    H222769   0.461   1.557   2.041  1.0162 -2.4962  2.4378
  404TIP3   OH222770   0.500   2.622   2.057  0.5870 -0.3046 -0.2331
  404TIP3    H122771   0.505   2.698   1.999  1.1366 -1.6480 -2.0499
  404TIP3    H222772   0.576   2.631   2.115  0.2426  0.8643  0.0760
  405TIP3   OH222773   3.252   2.516   2.298  0.3244 -0.1860 -0.0815
  405TIP3    H122774   3.252   2.516   2.202  1.1468  3.0471 -0.2075
  405TIP3    H222775   3.343   2.501   2.322  0.2993  0.0326  0.1493
  406TIP3   OH222776   2.039   6.596   0.421  0.3360 -0.3496 -0.7829
  406TIP3    H122777   1.946   6.614   0.409  0.2379  0.3550  0.7936
  406TIP3    H222778   2.081   6.681   0.421  0.8869 -0.6150 -0.7602
  407TIP3   OH222779   1.697   0.803   7.892  0.5491 -0.2552  0.4482
  407TIP3    H122780   1.636   0.739   7.857 -2.5043  2.2271  0.8069
  407TIP3    H222781   1.767   0.750   7.932 -0.0470 -3.2173 -2.0229
  408TIP3   OH222782   2.848   1.134   8.550 -0.6935  0.0521  0.6285
  408TIP3    H122783   2.834   1.061   8.609 -0.2942 -0.8377 -0.3421
  408TIP3    H222784   2.802   1.109   8.470  0.0084  0.5496  0.0542
  409TIP3   OH222785   6.513   2.204   0.486 -0.0268  0.6264  0.3154
  409TIP3    H122786   6.600   2.170   0.506 -0.0730  0.2200 -0.1517
  409TIP3    H222787   6.459   2.126   0.474 -0.0831  0.8345 -0.9942
  410TIP3   OH222788   1.402   2.478   8.634 -0.2931 -0.3070 -0.6842
  410TIP3    H122789   1.352   2.413   8.584 -0.7159  0.0088 -0.6752
  410TIP3    H222790   1.494   2.458   8.614 -0.4709  0.3436 -2.2708
  411TIP3   OH222791   6.016   3.114   7.597 -0.7168 -0.2659  0.0481
  411TIP3    H122792   5.996   3.184   7.535 -1.0476 -0.6081 -0.2386
  411TIP3    H222793   5.930   3.085   7.628 -0.5359  1.3308  2.3112
  412TIP3   OH222794   2.444   3.752   0.725 -0.3736  0.4414 -0.1990
  412TIP3    H122795   2.518   3.691   0.721 -0.8648 -0.1287 -0.7244
  412TIP3    H222796   2.371   3.703   0.689 -0.9179  1.1473 -0.0670
  413TIP3   OH222797   6.733   3.942   2.515 -0.3548  0.3917 -0.2823
  413TIP3    H122798   6.668   3.988   2.569  1.2788  2.7637 -0.1576
  413TIP3    H222799   6.788   3.896   2.579 -0.4506  0.4154 -0.1820
  414TIP3   OH222800   5.746   5.078   7.801  0.4426 -0.8622  0.0695
  414TIP3    H122801   5.674   5.016   7.788 -1.8342  1.2132  1.9822
  414TIP3    H222802   5.792   5.045   7.879 -0.4899 -0.4062  0.8198
  415TIP3   OH222803   4.528   3.239   6.696  0.6040 -0.0034  0.1901
  415TIP3    H122804   4.486   3.325   6.696 -1.5323 -0.9957  0.5554
  415TIP3    H222805   4.597   3.247   6.630 -1.7274  0.9832 -2.2944
  416TIP3   OH222806   1.012   3.019   0.244  0.3714  0.9510  0.2578
  416TIP3    H122807   1.081   3.015   0.177 -1.4296  0.3373 -1.6415
  416TIP3    H222808   0.970   3.104   0.230  0.1310  0.9228  0.7886
  417TIP3   OH222809   2.932   5.276   8.440 -0.0024  0.4493  0.3287
  417TIP3    H122810   2.866   5.344   8.429  1.1032  1.3368 -1.2980
  417TIP3    H222811   2.991   5.311   8.507 -0.1296  0.5027  0.4142
  418TIP3   OH222812   6.739   1.267   0.554  0.1705  0.0315  0.8294
  418TIP3    H122813   6.833   1.254   0.562  0.0050 -2.0881  0.1022
  418TIP3    H222814   6.709   1.286   0.642  1.1727 -0.1636  1.2237
  419TIP3   OH222815   6.167   6.238   7.517 -0.0706  0.6431 -0.2077
  419TIP3    H122816   6.102   6.206   7.455  1.5430  0.4163 -1.8660
  419TIP3    H222817   6.116   6.272   7.591 -1.9733 -2.2791 -0.0287
  420TIP3   OH222818   3.960   2.471   0.473  0.0004 -0.3134  0.6572
  420TIP3    H122819   4.049   2.475   0.437 -0.4001  2.1092 -0.2466
  420TIP3    H222820   3.972   2.489   0.566  0.5610 -1.3923  0.8106
  421TIP3   OH222821   1.568   3.235   1.379 -0.4052  0.0748  0.2870
  421TIP3    H122822   1.645   3.194   1.417  0.2553  1.4884  0.5540
  421TIP3    H222823   1.524   3.276   1.454 -1.9242 -1.4342  0.2841
  422TIP3   OH222824   6.717   4.074   0.065 -0.1996  0.2815  0.0808
  422TIP3    H122825   6.798   4.068   0.014 -0.0446 -0.5275  0.4023
  422TIP3    H222826   6.647   4.059   0.002 -0.1054  1.1132 -0.2222
  423TIP3   OH222827   2.056   0.449   1.543 -0.4428 -0.2481 -0.5859
  423TIP3    H122828   2.011   0.399   1.611 -1.2531  0.4276 -0.6066
  423TIP3    H222829   2.132   0.487   1.587 -0.5800 -0.3848 -0.2290
  424TIP3   OH222830   3.440   1.148   2.076 -1.2625  0.7699 -0.1221
  424TIP3    H122831   3.527   1.125   2.110 -1.4560  0.7532  0.3747
  424TIP3    H222832   3.421   1.080   2.012 -0.5045  1.3001 -0.9427
  425TIP3   OH222833   5.332   1.565   7.434  0.3087  0.5932  0.6616
  425TIP3    H122834   5.293   1.600   7.354 -1.6403  1.7403  1.9845
  425TIP3    H222835   5.402   1.627   7.455  2.3022 -0.9062 -1.2058
  426TIP3   OH222836   5.254   4.579   1.886  0.4242  0.0447 -0.2030
  426TIP3    H122837   5.339   4.550   1.852  0.2575 -0.1439 -0.4554
  426TIP3    H222838   5.192   4.562   1.815  0.5331  2.2549 -0.9257
  427TIP3   OH222839   4.796   4.666   7.850 -0.0361 -0.0695 -0.3843
  427TIP3    H122840   4.730   4.653   7.782 -1.4638 -1.2506  1.1511
  427TIP3    H222841   4.822   4.758   7.841 -3.3514  1.0516  0.1843
  428TIP3   OH222842   1.235   1.548   2.527  0.1242  0.6921 -0.4075
  428TIP3    H122843   1.322   1.514   2.507 -0.9328 -1.4700 -1.6880
  428TIP3    H222844   1.233   1.634   2.484  1.4147  0.5278 -0.8505
  429TIP3   OH222845   2.069   4.023   6.530  0.2977 -0.3264  0.1904
  429TIP3    H122846   2.152   4.060   6.499  0.4645 -1.0171 -0.2189
  429TIP3    H222847   2.093   3.936   6.562 -0.4540 -0.9922 -0.9902
  430TIP3   OH222848   5.471   3.423   7.893  0.4869  0.3573  0.0218
  430TIP3    H122849   5.551   3.428   7.840 -0.0728  0.8062 -0.7951
  430TIP3    H222850   5.503   3.424   7.983  1.5988 -2.2693 -0.2209
  431TIP3   OH222851   0.051   3.414   8.303 -0.6112 -0.2913 -0.9998
  431TIP3    H122852   0.046   3.415   8.208  0.9915  1.0386 -1.1171
  431TIP3    H222853  -0.012   3.479   8.332  0.0976  0.5212 -1.2563
  432TIP3   OH222854   5.488   0.684   0.828  0.2438 -0.1753  0.5358
  432TIP3    H122855   5.514   0.636   0.907 -0.7835 -1.0564  0.3661
  432TIP3    H222856   5.498   0.620   0.758 -2.5066 -0.6622  0.4877
  433TIP3   OH222857   5.358   0.310   0.086 -0.5435  0.0638  0.1996
  433TIP3    H122858   5.330   0.266   0.006 -0.8176  1.5648 -0.5758
  433TIP3    H222859   5.452   0.295   0.090 -0.6502 -0.6627  0.0124
  434TIP3   OH222860   3.213   3.304   6.647  0.4570  0.0307  0.1850
  434TIP3    H122861   3.283   3.337   6.591  0.6984  0.1367  0.5436
  434TIP3    H222862   3.206   3.369   6.718 -0.0998  0.0945  0.0783
  435TIP3   OH222863   2.310   0.727   7.338  0.4327 -0.5603  0.0687
  435TIP3    H122864   2.349   0.646   7.304 -1.0449 -1.2059 -0.1795
  435TIP3    H222865   2.365   0.797   7.304  1.6191 -1.4520  0.1143
  436TIP3   OH222866   5.476   4.175   2.557  0.0999  0.1217 -0.5516
  436TIP3    H122867   5.521   4.097   2.527 -0.9527 -1.2315  1.2154
  436TIP3    H222868   5.410   4.192   2.491  0.5527 -0.2625 -1.1124
  437TIP3   OH222869   2.346   3.551   8.683  0.0666  0.5789  0.0423
  437TIP3    H122870   2.433   3.589   8.672 -0.6714  2.7826  1.1036
  437TIP3    H222871   2.296   3.583   8.608  0.0326 -0.2911 -0.3173
  438TIP3   OH222872   0.560   0.313   1.991 -0.4437  0.1500 -1.3664
  438TIP3    H122873   0.590   0.223   1.989  0.1869  0.3602 -1.6007
  438TIP3    H222874   0.477   0.312   1.942 -0.4680 -0.3092 -1.3138
  439TIP3   OH222875   0.870   2.895   7.004 -0.0868 -0.0114  0.3389
  439TIP3    H122876   0.791   2.840   7.006  1.0910 -1.7403  2.2182
  439TIP3    H222877   0.846   2.973   7.054 -1.0585  0.2085 -0.4298
  440TIP3   OH222878   1.238   5.884   2.240  0.0721 -0.3156 -0.3830
  440TIP3    H122879   1.219   5.790   2.234 -0.5453 -0.1725 -0.8259
  440TIP3    H222880   1.226   5.916   2.151  0.6018  0.1302 -0.2981
  441TIP3   OH222881   5.953   6.137   3.212 -0.3400 -0.0300 -0.4742
  441TIP3    H122882   6.046   6.134   3.237 -0.9940 -0.2448  2.3090
  441TIP3    H222883   5.947   6.207   3.147  1.9627 -0.9655 -1.8015
  442TIP3   OH222884   4.672   1.849   8.203 -0.1042 -0.4834  0.1150
  442TIP3    H122885   4.629   1.935   8.207 -0.1593 -0.5268  0.4893
  442TIP3    H222886   4.601   1.786   8.213 -0.3424 -0.6364 -2.1150
  443TIP3   OH222887   2.777   1.685   6.796  0.7554  0.1417 -0.2709
  443TIP3    H122888   2.706   1.750   6.786 -1.7784 -2.4915 -0.8872
  443TIP3    H222889   2.819   1.684   6.710  0.3670  0.4975 -0.4753
  444TIP3   OH222890   6.570   1.051   7.477  0.1276  0.2622  0.0303
  444TIP3    H122891   6.505   1.085   7.538  0.0123  0.3653 -0.1494
  444TIP3    H222892   6.558   0.956   7.479  1.3670  0.1081  1.5639
  445TIP3   OH222893   5.878   6.201   2.437 -0.1003  0.0491  0.0324
  445TIP3    H122894   5.913   6.233   2.520 -0.5247  0.0206  0.2245
  445TIP3    H222895   5.783   6.199   2.450 -0.3046  1.5102 -0.9583
  446TIP3   OH222896   4.776   2.350   7.399  0.6266 -0.0984 -0.3480
  446TIP3    H122897   4.786   2.259   7.372  1.1101  0.0567 -0.7112
  446TIP3    H222898   4.719   2.347   7.476 -1.3231 -0.5117 -1.7231
  447TIP3   OH222899   0.519   4.576   7.498 -0.2425 -0.1677 -0.1366
  447TIP3    H122900   0.578   4.510   7.463 -0.1733  0.8651 -2.1474
  447TIP3    H222901   0.461   4.528   7.557  1.2805 -1.5539  0.3085
  448TIP3   OH222902   6.326   4.694   8.082  0.5732 -0.3482 -0.0269
  448TIP3    H122903   6.343   4.752   8.008 -1.0269 -1.1986 -1.1131
  448TIP3    H222904   6.354   4.607   8.053  0.0056 -0.6797  0.3844
  449TIP3   OH222905   3.291   4.955   0.754  0.0952 -0.3032 -0.3088
  449TIP3    H122906   3.198   4.935   0.739  0.5593 -1.3582 -2.1785
  449TIP3    H222907   3.301   4.955   0.849 -2.1002  1.3038  0.0013
  450TIP3   OH222908   0.539   1.799   1.905 -0.9319  0.4872  0.3031
  450TIP3    H122909   0.587   1.879   1.925 -1.4500  0.6848  0.7953
  450TIP3    H222910   0.508   1.811   1.815  1.1718 -0.2776 -0.5913
  451TIP3   OH222911   3.100   0.266   1.067 -0.1643  0.9993 -0.2282
  451TIP3    H122912   3.010   0.232   1.062 -0.1343  0.6098  1.4790
  451TIP3    H222913   3.146   0.220   0.997 -0.3906 -1.7087  1.2799
  452TIP3   OH222914   0.369   1.520   8.571 -0.1848  0.4507  0.5382
  452TIP3    H122915   0.404   1.537   8.484 -0.8935  1.7063  0.4628
  452TIP3    H222916   0.413   1.440   8.600  0.7790  0.5491 -0.5705
  453TIP3   OH222917   0.155   0.369   6.940 -0.7044 -0.1819 -0.1391
  453TIP3    H122918   0.178   0.289   6.987 -0.0039 -0.9286 -1.6806
  453TIP3    H222919   0.078   0.345   6.888  0.3744 -0.3454 -1.7362
  454TIP3   OH222920   2.955   1.761   1.676  0.2397  0.0895 -0.7326
  454TIP3    H122921   2.860   1.770   1.673  0.2420  0.0537 -1.0127
  454TIP3    H222922   2.985   1.804   1.595  0.5557  1.2328 -0.0317
  455TIP3   OH222923   0.354   4.691   1.682  0.0897  0.0860 -0.5940
  455TIP3    H122924   0.307   4.612   1.656 -0.4132 -0.5027  1.8921
  455TIP3    H222925   0.297   4.733   1.746  2.2987  0.0345  1.5749
  456TIP3   OH222926   5.762   4.331   7.960 -0.4927  0.3410 -0.4882
  456TIP3    H122927   5.812   4.250   7.973 -0.2665  0.5307 -0.1625
  456TIP3    H222928   5.817   4.384   7.902  0.8660  1.5442  1.7159
  457TIP3   OH222929   2.371   3.767   6.863  0.4857  0.5467  0.3363
  457TIP3    H122930   2.398   3.839   6.807  0.1555  1.1889  0.9820
  457TIP3    H222931   2.440   3.760   6.929  0.2437  0.6306  0.5981
  458TIP3   OH222932   5.462   0.157   2.291  0.2232  0.4337  0.3233
  458TIP3    H122933   5.456   0.143   2.386  2.2675  0.0031  0.4388
  458TIP3    H222934   5.471   0.251   2.280  0.7298  0.4210  0.6206
  459TIP3   OH222935   0.734   1.157   7.524 -0.6719  0.0820 -0.2558
  459TIP3    H122936   0.677   1.229   7.551 -0.6908  0.5655 -1.5225
  459TIP3    H222937   0.724   1.153   7.429  0.4967 -0.6090 -0.3681
  460TIP3   OH222938   6.613   1.696   1.834  0.5588 -0.5688 -0.2326
  460TIP3    H122939   6.625   1.624   1.896 -0.2572 -0.2313  0.3324
  460TIP3    H222940   6.690   1.751   1.847 -0.0487  0.0086  1.2098
  461TIP3   OH222941   2.683   4.159   7.750 -0.3332 -0.1963 -0.0879
  461TIP3    H122942   2.744   4.112   7.807  0.5032  0.3260 -0.5402
  461TIP3    H222943   2.664   4.240   7.796  0.1442  0.1120 -0.4253
  462TIP3   OH222944   2.184   5.071   2.860  0.3772 -0.4903  0.0474
  462TIP3    H122945   2.141   5.020   2.929  0.8146  0.0154  0.6970
  462TIP3    H222946   2.206   5.154   2.901 -0.3222  0.2354 -1.0045
  463TIP3   OH222947   2.711   0.580   8.567  0.3229  0.4640 -0.1640
  463TIP3    H122948   2.732   0.497   8.611 -0.3045 -0.4895 -1.5758
  463TIP3    H222949   2.618   0.594   8.586  0.2017  0.3610 -0.6633
  464TIP3   OH222950   1.551   0.288   2.233  0.0760 -0.4934 -0.3857
  464TIP3    H122951   1.499   0.275   2.312  0.2387 -0.9871 -0.3562
  464TIP3    H222952   1.555   0.201   2.192  1.7888 -0.7157  0.1766
  465TIP3   OH222953   2.652   5.534   1.025 -0.0007  0.0964  0.2920
  465TIP3    H122954   2.733   5.586   1.020  0.6586 -0.9880 -0.8594
  465TIP3    H222955   2.678   5.454   1.071 -0.3258 -0.3882 -0.3487
  466TIP3   OH222956   1.612   4.630   1.081  0.0980  0.3709 -0.5027
  466TIP3    H122957   1.667   4.588   1.015  2.5329 -0.2346  1.7155
  466TIP3    H222958   1.618   4.723   1.062  2.9519  0.4425  0.2680
  467TIP3   OH222959   4.757   5.029   8.236 -0.8502 -0.5937  0.4452
  467TIP3    H122960   4.714   5.058   8.155  1.0229  0.8327 -0.1322
  467TIP3    H222961   4.711   4.949   8.261 -1.4585 -1.1196 -2.0688
  468TIP3   OH222962   2.961   2.465   8.256 -0.3367  0.4348  0.0721
  468TIP3    H122963   3.036   2.514   8.224 -0.4611  0.5910  0.0196
  468TIP3    H222964   2.957   2.387   8.201  1.1860 -0.7625  1.5421
  469TIP3   OH222965   2.633   0.541   2.501  0.3600  0.2767  0.0238
  469TIP3    H122966   2.661   0.622   2.545  1.1831 -0.8887  1.7618
  469TIP3    H222967   2.583   0.494   2.568 -0.1168 -0.6533 -0.9702
  470TIP3   OH222968   5.201   4.216   8.353  0.0706 -0.2251  0.3522
  470TIP3    H122969   5.105   4.226   8.353  0.1632  0.7955  1.1224
  470TIP3    H222970   5.216   4.135   8.402 -0.4088 -0.5839 -0.0768
  471TIP3   OH222971   0.892   6.626   2.813  0.5658  0.3175  0.5459
  471TIP3    H122972   0.946   6.653   2.739  0.0205  1.2309  0.4598
  471TIP3    H222973   0.921   6.680   2.886  2.6866 -2.1425  1.6821
  472TIP3   OH222974   1.549   5.435   2.234  0.1483 -0.3200 -0.4108
  472TIP3    H122975   1.564   5.471   2.321 -0.1870 -0.8155 -0.1431
  472TIP3    H222976   1.593   5.496   2.174  0.0582  0.2236  0.0760
  473TIP3   OH222977   6.249   1.206   0.588  0.2195  0.3911 -0.4594
  473TIP3    H122978   6.176   1.265   0.605  1.6108  2.6531 -1.7407
  473TIP3    H222979   6.257   1.205   0.492  1.1199 -0.7889 -0.3970
  474TIP3   OH222980   2.154   3.759   7.739  0.1605 -0.1997  0.8284
  474TIP3    H122981   2.216   3.720   7.678 -0.6547  1.2197 -1.0127
  474TIP3    H222982   2.208   3.810   7.800  0.8350  2.0636 -1.5103
  475TIP3   OH222983   4.289   0.698   8.317  0.3203 -0.1626 -0.1781
  475TIP3    H122984   4.277   0.754   8.240  1.8198  1.1821  0.4870
  475TIP3    H222985   4.240   0.743   8.386  1.0864  0.0517  0.2340
  476TIP3   OH222986   2.281   4.292   2.730 -0.3794 -0.4333 -0.2083
  476TIP3    H122987   2.324   4.262   2.810 -1.4957  0.4438  0.7509
  476TIP3    H222988   2.251   4.380   2.750 -0.5911 -0.1446 -1.6477
  477TIP3   OH222989   6.762   4.045   2.062  0.4252 -0.0710 -0.3962
  477TIP3    H122990   6.849   4.085   2.055  0.4830 -0.2660 -0.8444
  477TIP3    H222991   6.779   3.951   2.058  0.3205 -0.1661  1.0074
  478TIP3   OH222992   2.775   6.066   2.198 -0.1965 -0.2831  0.0457
  478TIP3    H122993   2.829   6.145   2.201  1.4905 -1.3282 -1.2888
  478TIP3    H222994   2.685   6.099   2.188  0.3667  1.4605  0.3543
  479TIP3   OH222995   5.314   4.396   0.226  0.2545 -0.3006  0.1754
  479TIP3    H122996   5.248   4.445   0.274 -0.2794 -0.7848 -0.0490
  479TIP3    H222997   5.398   4.432   0.255  0.0117 -1.2670  2.2614
  480TIP3   OH222998   2.688   1.908   0.787 -0.4232  0.0542  0.0916
  480TIP3    H122999   2.718   1.878   0.701  2.7935 -0.3858  1.2298
  480TIP3    H223000   2.662   1.829   0.833 -1.9742  0.2735 -0.3299
  481TIP3   OH223001   1.181   3.170   0.408  0.0532 -0.4810  0.1143
  481TIP3    H123002   1.149   3.103   0.348 -1.4505  0.2043  0.0842
  481TIP3    H223003   1.123   3.245   0.393  1.1409  0.5293  0.7534
  482TIP3   OH223004   2.020   2.113   0.014  0.1230  0.2317  0.6477
  482TIP3    H123005   1.966   2.068   0.079 -0.4207  1.2785  0.9522
  482TIP3    H223006   1.978   2.092  -0.070 -0.3875  0.5137  0.8265
  483TIP3   OH223007   6.012   4.031   7.524 -0.3615 -0.0433 -0.2782
  483TIP3    H123008   6.082   3.969   7.504  0.2213  0.0500  1.3323
  483TIP3    H223009   6.021   4.098   7.457  0.6039 -0.4286 -0.5646
  484TIP3   OH223010   0.135   2.919   2.022 -0.3123  0.1461 -0.2348
  484TIP3    H123011   0.207   2.969   2.061 -0.4469  0.4527 -0.3741
  484TIP3    H223012   0.151   2.923   1.928 -0.7097  0.5338 -0.2914
  485TIP3   OH223013   4.833   0.352   8.637  0.5816 -0.3020 -0.1174
  485TIP3    H123014   4.804   0.294   8.707  0.5956 -1.0891 -0.7546
  485TIP3    H223015   4.828   0.440   8.675 -2.1942 -0.4229 -0.0495
  486TIP3   OH223016   4.688   5.623   8.359 -0.2576  0.2150 -0.2211
  486TIP3    H123017   4.657   5.713   8.358  1.2548  0.7498 -0.3239
  486TIP3    H223018   4.661   5.590   8.445 -1.2395  0.5876 -0.3683
  487TIP3   OH223019   4.203   5.594   8.351 -0.6285  0.0783  0.0605
  487TIP3    H123020   4.175   5.503   8.360 -0.9261  0.1617 -0.0195
  487TIP3    H223021   4.219   5.623   8.441 -0.8330  0.0415  0.1093
  488TIP3   OH223022   4.513   2.708   1.077  0.0759  0.1798 -0.2303
  488TIP3    H123023   4.494   2.643   1.144  1.5806 -0.1118 -0.0509
  488TIP3    H223024   4.446   2.694   1.010 -0.6045 -0.4442  0.5553
  489TIP3   OH223025   5.919   4.952   7.989 -0.4566  0.6544 -0.1389
  489TIP3    H123026   5.983   5.009   8.030 -0.9165  1.1126 -0.0536
  489TIP3    H223027   5.959   4.865   7.992 -0.6912  0.5757  1.7310
  490TIP3   OH223028   6.081   4.626   8.512  0.0942  0.5373  0.1206
  490TIP3    H123029   6.037   4.692   8.458 -0.3152  0.5549  0.4778
  490TIP3    H223030   6.041   4.543   8.486 -0.3679  0.5874  0.6613
  491TIP3   OH223031   5.385   3.904   6.859  0.2069 -0.0211  0.8491
  491TIP3    H123032   5.329   3.914   6.782  1.1441  0.5639  0.2344
  491TIP3    H223033   5.362   3.979   6.915  1.4074  1.0704 -0.0746
  492TIP3   OH223034   0.234   6.784   0.193 -0.0123  0.5943 -0.3001
  492TIP3    H123035   0.234   6.811   0.285 -0.4640 -0.3399 -0.0100
  492TIP3    H223036   0.150   6.738   0.182  0.2278  0.3239 -1.0642
  493TIP3   OH223037   5.744   1.734   1.665 -0.0458 -0.1572 -0.3081
  493TIP3    H123038   5.649   1.735   1.649 -0.2914  0.4168  1.0752
  493TIP3    H223039   5.755   1.670   1.736  0.2863  1.5152  1.2153
  494TIP3   OH223040   0.172   2.935   0.927  0.4331 -0.3368  0.1479
  494TIP3    H123041   0.136   2.878   0.859  2.0188 -0.6707 -0.4518
  494TIP3    H223042   0.175   3.021   0.887  0.4795 -0.3434  0.1378
  495TIP3   OH223043   1.649   0.406   8.377 -0.3874  0.1322  0.0157
  495TIP3    H123044   1.735   0.432   8.410 -0.5615  0.5439  0.1399
  495TIP3    H223045   1.634   0.462   8.301  1.2188 -2.5973 -2.5411
  496TIP3   OH223046   2.072   0.020   0.274  0.4300 -0.2755 -0.1336
  496TIP3    H123047   2.162   0.043   0.297  0.2687  1.6460 -1.1637
  496TIP3    H223048   2.079  -0.015   0.185  0.1157  0.6111 -0.5258
  497TIP3   OH223049   6.870   1.212   0.269  0.0273  0.0821 -0.0932
  497TIP3    H123050   6.910   1.299   0.264  0.4661 -0.1875 -1.6433
  497TIP3    H223051   6.942   1.155   0.299 -0.1431  0.1578  0.4839
  498TIP3   OH223052   0.061   2.289   0.169  0.8961  0.1248 -0.3857
  498TIP3    H123053   0.119   2.277   0.094  1.6313 -0.3668  0.2296
  498TIP3    H223054   0.121   2.292   0.244  0.2955  1.9764  0.0703
  499TIP3   OH223055   1.474   1.286   7.472 -0.0341 -0.5840 -0.3760
  499TIP3    H123056   1.453   1.326   7.556 -1.2537 -0.8312 -0.5490
  499TIP3    H223057   1.395   1.239   7.447  0.1227 -0.0754 -1.9317
  500TIP3   OH223058   2.712   1.025   8.346 -0.0628 -0.2942  0.1756
  500TIP3    H123059   2.635   0.978   8.379 -0.0984 -0.8129 -0.6189
  500TIP3    H223060   2.678   1.076   8.271  0.4877 -1.0415 -0.5970
  501TIP3   OH223061   3.325   4.790   0.389  0.5992 -0.2306  0.4405
  501TIP3    H123062   3.265   4.716   0.388 -2.6577  2.1052 -2.9605
  501TIP3    H223063   3.383   4.777   0.314  1.1722 -0.0947  0.8417
  502TIP3   OH223064   4.045   0.630   0.520 -0.0224  0.2187  0.1306
  502TIP3    H123065   4.132   0.592   0.528 -0.9730 -1.9892  0.5823
  502TIP3    H223066   4.001   0.606   0.602 -1.0484  1.3366 -0.0680
  503TIP3   OH223067   2.615   4.135   1.880  0.4931 -0.5662 -0.3688
  503TIP3    H123068   2.561   4.116   1.957  1.8267 -0.0581  0.7206
  503TIP3    H223069   2.624   4.230   1.880 -1.6787 -0.2438 -2.7191
  504TIP3   OH223070   0.325   4.448   0.900 -0.0973  0.1426  0.0957
  504TIP3    H123071   0.261   4.465   0.830  0.2069  1.2565  0.0759
  504TIP3    H223072   0.409   4.441   0.855  0.2563  1.8940  0.4240
  505TIP3   OH223073   5.628   3.983   7.932  0.8472 -0.0201  0.4942
  505TIP3    H123074   5.705   4.033   7.959  2.7202 -1.9943 -0.8710
  505TIP3    H223075   5.623   3.912   7.996 -0.1059  0.2944  0.7866
  506TIP3   OH223076   5.148   3.847   0.982  0.4122  0.2284 -0.5169
  506TIP3    H123077   5.088   3.825   0.911  0.2663 -2.1298  0.2422
  506TIP3    H223078   5.095   3.839   1.061  0.7380  2.1572 -0.0474
  507TIP3   OH223079   6.068   0.219   7.638 -0.2511 -0.4107 -0.6601
  507TIP3    H123080   6.163   0.224   7.633 -0.1413  0.0186  1.2573
  507TIP3    H223081   6.046   0.139   7.589  1.2485 -1.4838  0.3103
  508TIP3   OH223082   4.779   3.303   8.253  0.1888  0.1651  0.0698
  508TIP3    H123083   4.766   3.315   8.159 -1.0461 -0.7225  0.1126
  508TIP3    H223084   4.874   3.314   8.265  0.3987  0.0805 -1.3033
  509TIP3   OH223085   6.865   6.527   8.284 -0.3387  0.2614  0.1946
  509TIP3    H123086   6.908   6.442   8.273  0.7701  0.9232 -0.7815
  509TIP3    H223087   6.774   6.505   8.306 -0.3658 -1.2044 -1.1839
  510TIP3   OH223088   0.239   5.701   8.689 -0.4540  0.0327  0.6392
  510TIP3    H123089   0.179   5.757   8.641  0.7530 -0.4998 -1.6171
  510TIP3    H223090   0.320   5.751   8.695  0.0600 -0.7321  0.2298
  511TIP3   OH223091   4.496   6.057   6.325 -0.1097 -0.5873  0.3511
  511TIP3    H123092   4.572   6.004   6.346  1.0722  0.1737 -1.7335
  511TIP3    H223093   4.436   5.997   6.280 -0.3863 -0.9673  1.1977
  512TIP3   OH223094   1.509   1.148   2.417 -0.2677 -0.0354  0.1989
  512TIP3    H123095   1.459   1.069   2.395 -0.5830  0.4081 -0.6911
  512TIP3    H223096   1.600   1.122   2.406 -0.2904 -0.7471  1.4963
  513TIP3   OH223097   4.408   5.299   8.077 -0.1791 -0.5411 -0.4947
  513TIP3    H123098   4.485   5.305   8.020  0.2850  0.4959  0.2068
  513TIP3    H223099   4.392   5.389   8.106 -2.0608 -0.6371 -1.1241
  514TIP3   OH223100   2.397   2.416   0.146 -0.4256 -0.8710  0.1248
  514TIP3    H123101   2.354   2.372   0.219  0.7755 -0.7890  0.9248
  514TIP3    H223102   2.481   2.445   0.183 -0.1880 -0.0250 -1.0465
  515TIP3   OH223103   0.849   4.060   2.949  0.1484  0.0443  0.1931
  515TIP3    H123104   0.759   4.047   2.978  0.5455 -1.6767  0.7574
  515TIP3    H223105   0.840   4.099   2.862 -1.1195  0.4052  0.4543
  516TIP3   OH223106   3.463   1.378   0.351  0.3419 -0.3947  0.0733
  516TIP3    H123107   3.469   1.473   0.360  0.9163 -0.4552  0.3672
  516TIP3    H223108   3.490   1.345   0.437  0.5401 -0.8350 -0.1595
  517TIP3   OH223109   6.380   3.090   1.234 -0.6886  0.2424 -0.0613
  517TIP3    H123110   6.419   3.025   1.176  2.1143  0.8770  0.9676
  517TIP3    H223111   6.334   3.150   1.174  0.5474 -0.1474 -1.4727
  518TIP3   OH223112   1.226   1.594   0.146 -0.3403 -0.1348  0.0067
  518TIP3    H123113   1.153   1.532   0.154 -0.0866 -0.3390  0.8507
  518TIP3    H223114   1.233   1.634   0.233  0.5687 -0.1353 -0.0599
  519TIP3   OH223115   2.758   1.110   1.855  0.8081 -0.2216 -0.3724
  519TIP3    H123116   2.829   1.130   1.794 -0.0795  2.8665 -0.5562
  519TIP3    H223117   2.723   1.196   1.880  0.1422 -1.3895  3.3489
  520TIP3   OH223118   6.314   6.006   7.514 -0.1602 -0.1951  0.1116
  520TIP3    H123119   6.240   6.061   7.539  2.1794  1.9065  3.1969
  520TIP3    H223120   6.388   6.066   7.508  1.5476 -2.3334 -1.8405
  521TIP3   OH223121   6.837   3.278   2.919  0.3680  0.0657 -0.7064
  521TIP3    H123122   6.878   3.206   2.871 -1.0148 -1.8087  0.7979
  521TIP3    H223123   6.901   3.349   2.914  4.0678 -2.7212  1.7029
  522TIP3   OH223124   2.549   4.350   0.364  0.0916 -0.0161 -0.0456
  522TIP3    H123125   2.598   4.320   0.287 -0.3164  1.5122 -0.9544
  522TIP3    H223126   2.597   4.315   0.438  1.9574  0.4971 -0.9333
  523TIP3   OH223127   2.984   0.199   7.927  0.4502  0.3247 -0.3804
  523TIP3    H123128   2.922   0.183   7.998  1.1360  2.0245  0.6672
  523TIP3    H223129   2.929   0.229   7.854 -0.0688  0.7319  0.1683
  524TIP3   OH223130   1.590   0.291   1.898  0.6815 -0.0329  0.6360
  524TIP3    H123131   1.542   0.366   1.932 -0.1362  0.1825 -0.8791
  524TIP3    H223132   1.570   0.291   1.804  0.7974 -2.0340  0.5688
  525TIP3   OH223133   2.313   4.687   1.119 -0.1684 -0.2710  0.5025
  525TIP3    H123134   2.326   4.781   1.134 -1.9532  0.5848 -2.4539
  525TIP3    H223135   2.387   4.661   1.064 -0.9557  0.0947 -0.7886
  526TIP3   OH223136   3.996   3.828   0.780 -0.2494  0.3412 -0.2409
  526TIP3    H123137   4.050   3.796   0.707 -0.8716  0.6185 -0.8367
  526TIP3    H223138   3.954   3.750   0.816  1.5154 -0.0632  1.0630
  527TIP3   OH223139   3.840   2.136   1.816 -0.2717 -1.2135 -0.2531
  527TIP3    H123140   3.810   2.070   1.754 -0.4709 -2.9984  1.6138
  527TIP3    H223141   3.771   2.140   1.882 -0.1945  0.8111 -0.2292
  528TIP3   OH223142   6.530   4.602   8.348  0.4891  0.4976 -0.2689
  528TIP3    H123143   6.465   4.635   8.409  0.0480  0.2897 -0.6187
  528TIP3    H223144   6.572   4.529   8.394  1.7686  1.7662  0.6765
  529TIP3   OH223145   5.253   4.212   1.327 -0.3561 -0.1536  0.5917
  529TIP3    H123146   5.234   4.213   1.233  2.0889  0.7330  0.0120
  529TIP3    H223147   5.169   4.192   1.369 -1.4715 -0.8279 -1.7711
  530TIP3   OH223148   4.396   5.138   0.734  0.0549  0.9850 -0.4857
  530TIP3    H123149   4.362   5.100   0.815  1.0482  1.9082  0.3933
  530TIP3    H223150   4.324   5.128   0.672  0.0229 -1.6680 -0.1476
  531TIP3   OH223151   2.840   3.593   7.845 -0.1109  0.2056  0.0187
  531TIP3    H123152   2.897   3.517   7.857 -0.3157  0.0648  0.1056
  531TIP3    H223153   2.784   3.593   7.923 -0.4431  0.1601 -0.2214
  532TIP3   OH223154   0.809   1.404   8.563 -0.0074  0.2774  0.5685
  532TIP3    H123155   0.807   1.444   8.650  0.4448  2.0325 -0.1821
  532TIP3    H223156   0.878   1.452   8.517  0.9329 -1.7598 -0.2524
  533TIP3   OH223157   3.938   6.688   8.557  0.0917 -0.3116  0.2861
  533TIP3    H123158   3.977   6.606   8.528  1.6687  0.4634  0.0648
  533TIP3    H223159   3.918   6.674   8.650  1.5171 -0.5520  0.5765
  534TIP3   OH223160   4.860   1.262   1.560 -0.1489  0.3654 -0.4133
  534TIP3    H123161   4.802   1.271   1.636  1.8512  0.8624  1.1393
  534TIP3    H223162   4.823   1.190   1.510 -1.4945 -0.0217  1.0638
  535TIP3   OH223163   4.488   2.317   8.334  0.2556 -0.2678 -0.0309
  535TIP3    H123164   4.569   2.360   8.364 -0.6151  0.6118  1.1788
  535TIP3    H223165   4.458   2.267   8.410  0.0841 -1.2659 -0.7329
  536TIP3   OH223166   4.342   5.484   0.316  0.0068  0.5000  0.7436
  536TIP3    H123167   4.426   5.459   0.277 -0.4686 -1.3509  0.7795
  536TIP3    H223168   4.296   5.529   0.245  1.0566  1.6865  0.7723
  537TIP3   OH223169   1.356   3.504   7.856  0.2805 -0.3381 -0.4660
  537TIP3    H123170   1.341   3.431   7.916  2.1470  0.2217  0.7334
  537TIP3    H223171   1.322   3.581   7.902 -0.9602 -0.2896 -1.3983
  538TIP3   OH223172   4.534   5.825   1.237 -0.0779 -0.4346  0.1681
  538TIP3    H123173   4.609   5.818   1.179  0.4073 -1.1984  0.8698
  538TIP3    H223174   4.509   5.735   1.255  0.0377 -0.2318  1.4567
  539TIP3   OH223175   0.520   3.184   0.492  0.0131 -0.4745 -0.3238
  539TIP3    H123176   0.476   3.126   0.430  1.7178 -1.4351 -0.7126
  539TIP3    H223177   0.518   3.270   0.451 -0.7229 -0.6682 -0.7179
  540TIP3   OH223178   5.808   4.002   8.301  0.1468 -0.1587  0.3015
  540TIP3    H123179   5.786   4.085   8.342 -1.4664 -0.9176  1.0724
  540TIP3    H223180   5.901   4.010   8.279  0.5419  1.0927  2.1735
  541TIP3   OH223181   6.292   2.089   7.903 -0.3116  0.2898 -0.0065
  541TIP3    H123182   6.218   2.136   7.864  1.2009  1.0159 -2.1772
  541TIP3    H223183   6.348   2.159   7.937  0.5641 -0.1061 -0.6315
  542TIP3   OH223184   2.858   6.274   0.068 -0.1226 -0.0869 -0.0853
  542TIP3    H123185   2.951   6.256   0.053  0.2903  2.6583 -1.3128
  542TIP3    H223186   2.815   6.247  -0.013 -0.3265 -0.7205  0.2263
  543TIP3   OH223187   1.221   6.465   8.123  0.4472  0.0278 -0.2186
  543TIP3    H123188   1.158   6.476   8.052 -1.5540 -1.3183  1.2268
  543TIP3    H223189   1.292   6.526   8.102 -1.6082  2.1341 -1.6434
  544TIP3   OH223190   3.302   2.742   1.338  0.2614 -0.2469  0.2421
  544TIP3    H123191   3.394   2.766   1.347  0.3402 -0.3309 -0.3034
  544TIP3    H223192   3.282   2.693   1.417  1.1397 -1.6533 -0.3659
  545TIP3   OH223193   2.577   1.060   0.635  0.3269 -0.3145 -0.5043
  545TIP3    H123194   2.509   1.124   0.615 -0.8627 -1.7070 -1.1363
  545TIP3    H223195   2.612   1.087   0.719  0.6758  1.8006 -1.2747
  546TIP3   OH223196   4.030   6.560   1.839  0.2599 -0.1686 -0.2584
  546TIP3    H123197   4.024   6.599   1.751 -0.0631 -0.0161 -0.1710
  546TIP3    H223198   4.014   6.633   1.898 -1.2601 -0.5742 -0.1078
  547TIP3   OH223199   4.597   4.592   1.421  0.2836 -0.5105  0.1774
  547TIP3    H123200   4.565   4.639   1.498 -0.8274  0.3999 -0.8081
  547TIP3    H223201   4.614   4.503   1.452 -2.2620 -0.7890  1.0134
  548TIP3   OH223202   5.643   4.318   7.418 -0.2220 -0.1180 -0.3232
  548TIP3    H123203   5.728   4.285   7.389 -1.3368 -2.0317 -1.6273
  548TIP3    H223204   5.638   4.293   7.510  0.5670 -0.0623 -0.2535
  549TIP3   OH223205   1.632   3.233   7.790 -0.0461 -0.0062  0.0727
  549TIP3    H123206   1.584   3.277   7.860 -0.8227 -1.1522  0.2931
  549TIP3    H223207   1.681   3.164   7.834  2.2137  1.3911 -0.0880
  550TIP3   OH223208   5.593   3.534   2.144  0.7766  0.3863 -0.1067
  550TIP3    H123209   5.643   3.502   2.219 -0.8207  0.4384  1.0276
  550TIP3    H223210   5.625   3.624   2.131  1.9924 -0.0639 -0.3540
  551TIP3   OH223211   5.607   2.515   7.077  0.0739  0.1669  0.3063
  551TIP3    H123212   5.665   2.440   7.068  1.2780  0.6931  2.6468
  551TIP3    H223213   5.654   2.587   7.035  0.5945  0.3283  1.1360
  552TIP3   OH223214   5.509   2.056   8.693 -0.1793  0.6221  0.2013
  552TIP3    H123215   5.449   2.117   8.736 -0.4220  0.9595 -0.6068
  552TIP3    H223216   5.538   1.998   8.763 -2.4656 -0.4011  0.3987
  553TIP3   OH223217   2.479   5.398   1.769  0.1761  0.6346  0.3457
  553TIP3    H123218   2.524   5.330   1.820 -0.8864 -0.9996 -0.8193
  553TIP3    H223219   2.429   5.447   1.835  2.2799  1.4479  1.4345
  554TIP3   OH223220   5.101   5.144   0.193  0.8715 -1.0145  0.2237
  554TIP3    H123221   5.186   5.162   0.152  0.9354 -0.9015  0.4061
  554TIP3    H223222   5.056   5.087   0.130  0.7177 -0.3295 -0.3056
  555TIP3   OH223223   5.356   3.116   6.631 -0.0907 -0.1469  0.1523
  555TIP3    H123224   5.318   3.054   6.693 -0.8639 -1.3367 -1.4333
  555TIP3    H223225   5.286   3.133   6.568  1.0377  0.0024 -1.1094
  556TIP3   OH223226   3.439   4.670   0.630  0.1897 -0.4590 -0.3027
  556TIP3    H123227   3.422   4.748   0.578 -0.6675  0.5396  1.3920
  556TIP3    H223228   3.514   4.693   0.684 -1.4671  0.1103  1.8713
  557TIP3   OH223229   1.570   3.554   1.184  0.2871  0.5637  0.2791
  557TIP3    H123230   1.498   3.613   1.163  0.4564 -0.0523 -2.4897
  557TIP3    H223231   1.582   3.502   1.104  1.5870 -1.6966  1.8142
  558TIP3   OH223232   4.871   5.169   1.356  0.5533 -0.0529 -0.3042
  558TIP3    H123233   4.924   5.152   1.278  0.4408 -0.6906 -0.2519
  558TIP3    H223234   4.827   5.085   1.373 -3.3549  1.2649 -2.4970
  559TIP3   OH223235   6.122   4.230   7.335 -0.1677 -0.1686  0.6104
  559TIP3    H123236   6.150   4.319   7.355  1.7352 -0.5374 -0.2169
  559TIP3    H223237   6.197   4.175   7.359 -0.6700 -1.3627 -0.4548
  560TIP3   OH223238   0.461   3.883   2.891 -0.0201 -0.0826  0.0372
  560TIP3    H123239   0.506   3.958   2.930 -1.3124  1.3328 -1.0847
  560TIP3    H223240   0.380   3.875   2.941  0.5991 -1.4719  0.8691
  561TIP3   OH223241   0.926   1.227   7.105 -0.0193  0.2754  0.9876
  561TIP3    H123242   0.933   1.313   7.064 -0.8705  0.3594  1.0077
  561TIP3    H223243   0.960   1.166   7.039  0.4873  0.6127  0.9340
  562TIP3   OH223244   0.488   2.107   8.211 -0.0707  0.0515  0.0039
  562TIP3    H123245   0.513   2.182   8.155  0.2239 -0.7387 -0.9496
  562TIP3    H223246   0.393   2.105   8.207 -0.0549  0.0402 -0.4194
  563TIP3   OH223247   2.313   1.148   7.041 -0.6800  0.0814  0.0544
  563TIP3    H123248   2.238   1.167   6.984 -0.1167  0.4812 -0.5750
  563TIP3    H223249   2.279   1.087   7.106 -1.7270  0.7964  0.2009
  564TIP3   OH223250   5.921   3.996   0.488 -0.5149  0.2437 -0.3934
  564TIP3    H123251   5.980   3.971   0.559  0.3634 -0.3599 -1.3099
  564TIP3    H223252   5.847   3.935   0.495 -1.5408  1.5523  1.3006
  565TIP3   OH223253   4.262   3.348   7.008 -0.4634 -0.2954  0.3094
  565TIP3    H123254   4.249   3.391   6.923  0.0742 -1.0516 -0.1657
  565TIP3    H223255   4.181   3.364   7.055 -0.7585  0.1657 -0.3353
  566TIP3   OH223256   6.295   0.629   0.044  0.4128 -0.9620  0.0068
  566TIP3    H123257   6.358   0.563   0.072  0.3431 -1.5284 -1.1070
  566TIP3    H223258   6.210   0.593   0.069  0.5070  0.2378  2.3981
  567TIP3   OH223259   4.332   3.257   0.928  0.1260 -0.1533  0.0198
  567TIP3    H123260   4.351   3.242   1.020  0.3004  0.2860  0.0612
  567TIP3    H223261   4.413   3.294   0.892 -0.4785  1.3480  0.1032
  568TIP3   OH223262   0.654   3.684   2.909 -0.2740 -0.0856 -0.3034
  568TIP3    H123263   0.601   3.763   2.898 -1.1818 -0.5313  0.7310
  568TIP3    H223264   0.615   3.639   2.984  1.8120 -0.2195  0.7821
  569TIP3   OH223265   3.903   6.598   0.128  0.2763 -0.2554  0.4342
  569TIP3    H123266   3.984   6.548   0.125 -0.0845 -0.9945  1.9698
  569TIP3    H223267   3.908   6.648   0.209  0.0559  1.2512 -0.4396
  570TIP3   OH223268   0.189   0.114   2.070 -0.2039  1.0045 -0.3188
  570TIP3    H123269   0.244   0.083   2.142 -0.4117 -1.7308 -1.2356
  570TIP3    H223270   0.168   0.035   2.020 -3.4603  2.1939 -1.0644
  571TIP3   OH223271   1.053   1.367   0.235 -0.8099 -0.3802 -0.2244
  571TIP3    H123272   1.045   1.370   0.330 -1.0685 -0.0484 -0.2538
  571TIP3    H223273   1.087   1.279   0.216 -2.1518 -0.9977  0.0845
  572TIP3   OH223274   2.320   3.473   7.226 -0.0841 -0.3911 -0.3332
  572TIP3    H123275   2.415   3.470   7.213 -0.3002  0.2326 -2.5650
  572TIP3    H223276   2.285   3.500   7.140 -2.2255  0.0902  0.6148
  573TIP3   OH223277   0.309   4.237   7.396 -0.1348  0.0513  0.0685
  573TIP3    H123278   0.247   4.176   7.435 -0.5810  0.1157 -0.5213
  573TIP3    H223279   0.343   4.191   7.318  2.6259 -1.1105  1.7941
  574TIP3   OH223280   0.161   2.653   1.471 -0.0316  0.0173 -0.0376
  574TIP3    H123281   0.121   2.642   1.557  0.0646 -2.1579 -0.2155
  574TIP3    H223282   0.157   2.747   1.455 -1.9555  0.2538  1.4286
  575TIP3   OH223283   6.603   0.245   0.690  0.1362  0.0454  0.4357
  575TIP3    H123284   6.511   0.223   0.703 -0.1652  0.6920 -0.4851
  575TIP3    H223285   6.627   0.297   0.767 -0.6982  1.1287 -0.0030
  576TIP3   OH223286   4.748   6.866   1.157 -0.0911  0.1603  0.5125
  576TIP3    H123287   4.748   6.954   1.193 -2.8835  0.7095 -0.6187
  576TIP3    H223288   4.723   6.877   1.065  0.1127 -1.7744  0.1743
  577TIP3   OH223289   6.382   4.230   1.772 -0.2407 -0.6639 -0.7530
  577TIP3    H123290   6.477   4.232   1.785 -0.0240 -1.5276 -2.0347
  577TIP3    H223291   6.371   4.198   1.682 -1.7730 -1.9352 -0.1471
  578TIP3   OH223292   0.086   3.836   2.670 -0.0616  0.3879 -0.1936
  578TIP3    H123293   0.042   3.799   2.747  0.4239  1.7929  0.8009
  578TIP3    H223294   0.148   3.768   2.643  0.7490  0.3794  1.5296
  579TIP3   OH223295   6.225   4.628   1.844  0.0524 -0.1153  0.9305
  579TIP3    H123296   6.239   4.629   1.939 -1.9226 -0.4014  1.2700
  579TIP3    H223297   6.214   4.535   1.823 -0.3290  0.0027  0.5789
  580TIP3   OH223298   5.422   3.951   1.162 -0.1507 -0.1196  0.2492
  580TIP3    H123299   5.479   3.889   1.208 -0.0488 -0.2934 -0.1009
  580TIP3    H223300   5.474   3.979   1.086 -1.4053 -2.2152 -1.5275
  581TIP3   OH223301   4.285   0.565   0.607  0.5296 -0.6264 -0.3638
  581TIP3    H123302   4.378   0.557   0.586  0.4213 -1.4475 -0.5557
  581TIP3    H223303   4.280   0.642   0.663  1.3928 -0.8612  0.0492
  582TIP3   OH223304   3.257   6.306   6.491 -0.2112 -0.9498  0.2231
  582TIP3    H123305   3.326   6.355   6.536 -1.8838  0.8009  1.0245
  582TIP3    H223306   3.227   6.242   6.556 -1.3406  0.3155  0.9991
  583TIP3   OH223307   5.339   4.380   8.509  0.3801  0.1114  0.6114
  583TIP3    H123308   5.278   4.331   8.454  0.6188  0.2874  0.1866
  583TIP3    H223309   5.283   4.425   8.573  0.1101 -0.1800  0.5818
  584TIP3   OH223310   2.259   1.352   7.523 -0.0723 -1.1557  0.1120
  584TIP3    H123311   2.342   1.306   7.531 -0.1605 -1.2695  0.4280
  584TIP3    H223312   2.265   1.401   7.442  0.2297 -1.3134  0.0401
  585TIP3   OH223313   6.624   6.585   2.514 -0.2275 -0.2089 -0.4818
  585TIP3    H123314   6.675   6.513   2.478 -1.1194 -0.9077 -0.3993
  585TIP3    H223315   6.533   6.553   2.512 -0.5921  0.7646 -0.0922
  586TIP3   OH223316   2.330   6.372   0.126  0.6014  0.0848 -0.0653
  586TIP3    H123317   2.422   6.389   0.149  0.2520  1.3866  0.4467
  586TIP3    H223318   2.334   6.296   0.068  1.9862 -0.0007  0.0988
  587TIP3   OH223319   1.587   1.910   1.625 -0.1512  0.2854 -0.2458
  587TIP3    H123320   1.578   1.815   1.615  0.6010 -0.0140  1.5975
  587TIP3    H223321   1.681   1.925   1.627 -0.2600  1.1710 -1.1795
  588TIP3   OH223322   5.839   0.077   6.748  0.2525  0.0501  0.5419
  588TIP3    H123323   5.905   0.145   6.737 -1.0406  1.3077  0.2786
  588TIP3    H223324   5.760   0.124   6.774 -0.4907 -1.4362  1.0699
  589TIP3   OH223325   6.160   1.077   1.754  0.5011 -0.2946 -0.1229
  589TIP3    H123326   6.108   1.081   1.674 -1.9235 -2.1593  1.2568
  589TIP3    H223327   6.124   1.146   1.810  1.5148  0.3264 -0.2010
  590TIP3   OH223328   3.255   3.096   0.713 -0.2559  0.0380 -0.8952
  590TIP3    H123329   3.166   3.079   0.742 -0.5603  1.9336 -0.5609
  590TIP3    H223330   3.304   3.017   0.737 -1.4257 -0.2416  0.7588
  591TIP3   OH223331   2.413   6.822   8.576  0.0380  0.3953 -0.1903
  591TIP3    H123332   2.487   6.851   8.523  0.0236 -1.7982 -1.5284
  591TIP3    H223333   2.336   6.844   8.523  0.0558 -2.7699 -1.8239
  592TIP3   OH223334   6.183   4.586   1.548 -0.2846 -0.2852 -0.1514
  592TIP3    H123335   6.132   4.649   1.497 -1.0761 -0.7605  0.0280
  592TIP3    H223336   6.212   4.635   1.625  0.6315  0.3425 -0.8724
  593TIP3   OH223337   1.722   4.112   0.899  0.7724 -0.0607  0.3535
  593TIP3    H123338   1.756   4.147   0.816 -0.9384 -0.4264 -0.5481
  593TIP3    H223339   1.703   4.020   0.880  1.5545 -0.4920  1.5527
  594TIP3   OH223340   4.719   2.567   1.283 -0.3105 -0.8718  0.2275
  594TIP3    H123341   4.659   2.642   1.280 -0.5774 -1.0738  0.4809
  594TIP3    H223342   4.727   2.547   1.376  0.0601 -0.9219  0.1862
  595TIP3   OH223343   1.820   4.247   7.159 -0.0607 -0.0423  0.1055
  595TIP3    H123344   1.889   4.243   7.093  0.4130 -1.3141  0.6541
  595TIP3    H223345   1.762   4.317   7.128  0.2110 -0.5115 -1.5866
  596TIP3   OH223346   2.844   1.578   8.538  0.5122  0.2901 -0.4355
  596TIP3    H123347   2.828   1.506   8.478  0.0454 -1.3613  1.5916
  596TIP3    H223348   2.934   1.564   8.569  0.0764 -0.0454  0.7308
  597TIP3   OH223349   0.236   2.193   8.670 -0.4414  0.2453 -0.2881
  597TIP3    H123350   0.274   2.107   8.688  0.7169  0.6326 -0.7556
  597TIP3    H223351   0.158   2.175   8.617  0.4969 -0.4622 -1.4811
  598TIP3   OH223352   6.365   4.283   8.018  0.3413 -0.1549 -0.7453
  598TIP3    H123353   6.380   4.196   7.980 -1.5181 -0.4704 -0.8712
  598TIP3    H223354   6.280   4.276   8.061  1.4706  0.7684  1.8421
  599TIP3   OH223355   4.041   6.073   8.545  0.3212 -0.2258  0.1383
  599TIP3    H123356   3.959   6.025   8.554 -0.7735  1.0011 -2.3905
  599TIP3    H223357   4.090   6.025   8.478 -0.5568  1.7071 -2.0269
  600TIP3   OH223358   4.601   4.825   7.295  0.2406 -0.2552  0.0141
  600TIP3    H123359   4.686   4.824   7.251  0.1141  1.9768 -0.4337
  600TIP3    H223360   4.622   4.820   7.388  0.9617  1.0291 -0.0545
  601TIP3   OH223361   6.387   0.272   1.052  0.3702  0.5515  0.2133
  601TIP3    H123362   6.450   0.201   1.049  0.4151  0.6164 -0.6903
  601TIP3    H223363   6.302   0.229   1.043  0.4356  0.6513 -1.0341
  602TIP3   OH223364   2.807   6.248   0.590 -0.1065  0.4314  0.4419
  602TIP3    H123365   2.831   6.313   0.656 -1.7235 -0.2546  1.8031
  602TIP3    H223366   2.743   6.293   0.535  0.0547  0.5116  0.3188
  603TIP3   OH223367   4.180   5.448   7.853  0.2758 -0.0924  0.0877
  603TIP3    H123368   4.229   5.499   7.918 -0.8511  0.1081  0.8142
  603TIP3    H223369   4.231   5.457   7.772  1.1861  0.4724  0.6971
  604TIP3   OH223370   2.729   5.714   0.382 -0.6274  0.4012 -0.4827
  604TIP3    H123371   2.654   5.707   0.441 -1.9096 -1.2595 -2.1555
  604TIP3    H223372   2.758   5.623   0.370 -0.6418  0.6286 -2.6235
  605TIP3   OH223373   5.999   0.654   2.203 -0.0101 -0.0884  0.3338
  605TIP3    H123374   6.041   0.621   2.124 -1.6878 -0.3632 -0.4710
  605TIP3    H223375   6.072   0.670   2.264  1.2697 -0.2414 -1.1096
  606TIP3   OH223376   0.154   6.740   0.727 -0.4914 -0.8183  0.4284
  606TIP3    H123377   0.216   6.795   0.775 -1.5494  0.9794 -0.1421
  606TIP3    H223378   0.203   6.661   0.707  1.2886  0.1065  0.8838
  607TIP3   OH223379   2.146   2.571   0.009  0.0364  0.3099  0.0406
  607TIP3    H123380   2.167   2.490   0.056 -1.6044  0.6068  1.4160
  607TIP3    H223381   2.169   2.553  -0.082  0.8472 -1.2663  0.5148
  608TIP3   OH223382   6.839   0.108   0.023  0.4751  0.1472 -0.3675
  608TIP3    H123383   6.861   0.182   0.080 -0.4070  1.7697 -2.0076
  608TIP3    H223384   6.778   0.055   0.075 -0.9391  2.0009 -0.0296
  609TIP3   OH223385   3.909   2.145   8.197  0.4642 -0.0955  0.0752
  609TIP3    H123386   3.994   2.145   8.241  2.0132 -2.2202 -2.5661
  609TIP3    H223387   3.859   2.077   8.241 -0.0505  1.3382  1.8135
  610TIP3   OH223388   0.032   6.488   2.553  0.1691  0.0549 -0.3926
  610TIP3    H123389   0.053   6.408   2.602  0.3340 -0.2082 -0.8899
  610TIP3    H223390   0.004   6.457   2.467  0.9789  0.5572 -0.8520
  611TIP3   OH223391   6.631   2.179   7.718  0.0954  0.5366  0.9183
  611TIP3    H123392   6.644   2.115   7.647  1.9588  0.3143  1.4052
  611TIP3    H223393   6.549   2.222   7.696 -0.0096 -0.3882 -0.7175
  612TIP3   OH223394   2.152   2.991   2.146 -0.1180 -0.0281 -0.1634
  612TIP3    H123395   2.124   2.947   2.066  0.2097 -0.5957  0.0265
  612TIP3    H223396   2.248   2.985   2.144 -0.0894  0.3133  0.0680
  613TIP3   OH223397   2.617   6.371   0.152  0.1926 -0.0057 -0.0119
  613TIP3    H123398   2.588   6.422   0.076  0.4924  0.3016  0.0741
  613TIP3    H223399   2.699   6.330   0.124 -1.1038 -2.1627 -0.7956
  614TIP3   OH223400   6.691   0.123   2.341  0.3335  0.2691 -0.2375
  614TIP3    H123401   6.624   0.191   2.332  2.2232  2.0720 -1.8014
  614TIP3    H223402   6.703   0.113   2.435 -1.1267  0.9225  0.0439
  615TIP3   OH223403   3.533   1.985   0.238  0.3830 -0.1783 -0.6538
  615TIP3    H123404   3.623   1.952   0.240  1.3356  2.2251 -0.3122
  615TIP3    H223405   3.510   1.997   0.330 -0.8709 -2.0588 -0.6594
  616TIP3   OH223406   4.336   6.757   2.102  0.0248 -0.5193 -0.2752
  616TIP3    H123407   4.400   6.702   2.148  0.7704 -0.1600 -0.8558
  616TIP3    H223408   4.275   6.785   2.171  0.3378 -1.0828  0.2429
  617TIP3   OH223409   4.316   0.994   1.430 -0.2310  0.6309 -0.1591
  617TIP3    H123410   4.263   0.990   1.350  1.1101  1.3709 -1.1346
  617TIP3    H223411   4.255   0.974   1.501 -2.1610  2.8127 -1.0591
  618TIP3   OH223412   3.362   0.939   8.184  0.1848 -0.1025  0.3330
  618TIP3    H123413   3.290   0.970   8.239 -0.9351 -2.9478  0.6394
  618TIP3    H223414   3.330   0.947   8.094  0.4355  0.7760  0.3100
  619TIP3   OH223415   1.141   1.367   8.093 -0.1616  0.3370 -0.3065
  619TIP3    H123416   1.065   1.369   8.151 -0.3744 -0.9138 -0.5157
  619TIP3    H223417   1.114   1.313   8.019  0.7243  0.3910 -0.6843
  620TIP3   OH223418   5.983   5.709   8.356  0.4074  0.1134 -0.5205
  620TIP3    H123419   6.033   5.656   8.295  1.1397 -0.0573  0.2067
  620TIP3    H223420   5.898   5.665   8.362  0.8993 -0.8246 -0.1598
  621TIP3   OH223421   5.628   5.846   7.208 -0.0525 -0.3648  0.0544
  621TIP3    H123422   5.618   5.794   7.287  0.3092  0.3858  0.6025
  621TIP3    H223423   5.631   5.937   7.238  0.3112 -0.0785 -0.7925
  622TIP3   OH223424   1.945   6.682   0.871 -0.4947  0.5035 -0.1230
  622TIP3    H123425   2.002   6.740   0.920 -0.8496  0.7531 -0.0007
  622TIP3    H223426   2.004   6.619   0.829 -0.1916  0.2717  0.6347
  623TIP3   OH223427   4.095   5.288   6.995 -0.6819 -0.5888  0.1327
  623TIP3    H123428   4.098   5.235   6.915  1.1838  0.2657 -0.4409
  623TIP3    H223429   4.068   5.375   6.965 -2.0277 -0.7581  0.7920
  624TIP3   OH223430   6.290   4.884   6.887  0.1277 -0.1961 -0.6542
  624TIP3    H123431   6.228   4.887   6.814 -0.4569 -0.1658 -0.1669
  624TIP3    H223432   6.365   4.836   6.853 -0.0795 -0.0593 -1.3195
  625TIP3   OH223433   2.508   5.266   8.438  0.6717  0.6877 -0.4288
  625TIP3    H123434   2.518   5.192   8.378  0.1583  0.8255 -0.6887
  625TIP3    H223435   2.573   5.330   8.409 -1.1294  1.7805 -2.4104
  626TIP3   OH223436   4.210   2.639   7.715 -0.7144  0.2829 -0.5368
  626TIP3    H123437   4.287   2.681   7.753  0.2815 -2.4184  0.6830
  626TIP3    H223438   4.139   2.659   7.777 -0.3517  0.4225 -0.1616
  627TIP3   OH223439   5.552   3.507   0.849  0.3800  0.4733  0.1306
  627TIP3    H123440   5.632   3.559   0.841  0.1084  1.0175  0.8695
  627TIP3    H223441   5.501   3.551   0.916  0.2160 -0.8559  0.9253
  628TIP3   OH223442   5.326   4.936   0.156  0.2002  0.4956  0.6211
  628TIP3    H123443   5.408   4.941   0.205  1.5644  0.0051 -1.4988
  628TIP3    H223444   5.313   5.024   0.120  0.7434  0.1629 -0.4391
  629TIP3   OH223445   6.130   5.978   0.599 -0.5047 -0.4231  0.0874
  629TIP3    H123446   6.201   5.963   0.662  1.3573  0.0316 -1.8066
  629TIP3    H223447   6.069   6.036   0.646  1.6411  1.2728  0.9341
  630TIP3   OH223448   1.036   5.352   2.180  0.5526  0.6880 -0.4245
  630TIP3    H123449   1.008   5.422   2.121  0.1443  1.3539  0.5354
  630TIP3    H223450   1.039   5.393   2.266 -0.1247 -0.5872  0.2367
  631TIP3   OH223451   2.890   4.523   0.385  0.5643 -0.1831  0.0920
  631TIP3    H123452   2.905   4.435   0.349 -0.2639 -0.1237 -0.4295
  631TIP3    H223453   2.828   4.509   0.457  1.0395 -0.1125  0.5230
  632TIP3   OH223454   6.536   4.761   6.859  0.0690  0.2949  0.5079
  632TIP3    H123455   6.601   4.828   6.876  0.2270  0.1564  0.4484
  632TIP3    H223456   6.537   4.704   6.936 -0.1404  0.4212  0.6055
  633TIP3   OH223457   4.309   4.198   6.984  0.0495 -0.1302 -0.1440
  633TIP3    H123458   4.386   4.163   6.938  0.6045  0.8266  0.0208
  633TIP3    H223459   4.263   4.249   6.917 -1.5142 -2.2187 -0.7608
  634TIP3   OH223460   5.388   1.607   8.695 -0.4017  0.0444  0.3140
  634TIP3    H123461   5.423   1.535   8.644 -0.0616 -0.1743  0.8494
  634TIP3    H223462   5.293   1.592   8.695 -0.3176 -0.5192  0.5957
  635TIP3   OH223463   3.742   1.047   6.937 -0.5823 -0.5036 -1.0045
  635TIP3    H123464   3.746   0.952   6.924  0.8020 -1.2741  3.4049
  635TIP3    H223465   3.651   1.065   6.958 -0.6038 -1.0980 -0.5772
  636TIP3   OH223466   4.337   0.724   1.188 -0.2263 -0.5150 -0.2860
  636TIP3    H123467   4.250   0.748   1.220 -0.1382  0.9690 -1.0573
  636TIP3    H223468   4.366   0.801   1.139  1.5122 -0.9860 -0.0594
  637TIP3   OH223469   1.249   4.452   1.452 -0.7529  0.7198 -0.2110
  637TIP3    H123470   1.301   4.480   1.377 -1.6020  1.2351 -0.6311
  637TIP3    H223471   1.313   4.431   1.520 -0.0158  1.5825 -0.6219
  638TIP3   OH223472   2.803   2.124   0.081 -0.0627 -0.1591  0.3216
  638TIP3    H123473   2.808   2.029   0.073  0.1030 -0.1358  0.1462
  638TIP3    H223474   2.893   2.152   0.097 -0.0703 -0.0067  0.1026
  639TIP3   OH223475   5.355   6.698   0.804  0.1528  0.4998 -0.0727
  639TIP3    H123476   5.392   6.734   0.723  1.9021  0.8122  0.8053
  639TIP3    H223477   5.431   6.683   0.860 -0.9899  0.0357  1.4257
  640TIP3   OH223478   1.333   0.747   0.623  0.1713 -0.0162 -0.1588
  640TIP3    H123479   1.322   0.671   0.681 -1.4965 -0.5623 -1.1077
  640TIP3    H223480   1.415   0.731   0.577  0.2329 -0.8581  0.2163
  641TIP3   OH223481   1.564   4.885   1.653 -0.3126  0.0284  0.6750
  641TIP3    H123482   1.535   4.825   1.585 -0.0651 -1.0525  1.4919
  641TIP3    H223483   1.647   4.849   1.683  1.4797  2.5429 -0.9525
  642TIP3   OH223484   4.840   0.514   1.197  0.0419  0.0547 -0.3074
  642TIP3    H123485   4.779   0.574   1.239 -1.3198 -2.0079  0.7986
  642TIP3    H223486   4.925   0.558   1.204 -0.9847  2.1889 -0.3156
  643TIP3   OH223487   6.859   2.108   7.038  0.2611 -0.1105  0.4632
  643TIP3    H123488   6.858   2.203   7.028  2.3426 -0.1710 -0.8440
  643TIP3    H223489   6.942   2.080   6.999 -0.7038 -2.5606 -0.0474
  644TIP3   OH223490   1.593   2.234   6.724 -0.3990 -0.5963 -0.1080
  644TIP3    H123491   1.501   2.209   6.714 -0.6792  0.4036 -0.1276
  644TIP3    H223492   1.590   2.325   6.754  0.5847 -0.4833 -0.3226
  645TIP3   OH223493   4.171   0.799   8.555 -0.4963  0.4741  0.4294
  645TIP3    H123494   4.139   0.714   8.586 -0.9714  0.9411  1.2582
  645TIP3    H223495   4.152   0.859   8.627  1.5420  0.9278  0.6347
  646TIP3   OH223496   0.444   1.561   8.295  0.2807 -0.0552 -0.4549
  646TIP3    H123497   0.483   1.611   8.222  0.7951 -1.0199 -0.8658
  646TIP3    H223498   0.411   1.481   8.253 -1.7037  0.4966 -0.0209
  647TIP3   OH223499   3.535   3.861   1.699 -0.3847 -0.0001  0.5096
  647TIP3    H123500   3.590   3.933   1.666  1.6005 -0.8625  1.7264
  647TIP3    H223501   3.531   3.799   1.627  0.8104 -0.1969  0.5837
  648TIP3   OH223502   3.102   3.174   7.941 -0.1035  0.8272 -0.0661
  648TIP3    H123503   3.175   3.119   7.914  1.6647  3.0877 -0.1305
  648TIP3    H223504   3.098   3.165   8.036  0.0087  0.4300 -0.0979
  649TIP3   OH223505   2.119   5.778   0.301 -0.2349  0.4381  0.3024
  649TIP3    H123506   2.122   5.686   0.272  0.5485  0.5464  0.0301
  649TIP3    H223507   2.028   5.791   0.326 -0.7999  0.1189 -1.4033
  650TIP3   OH223508   0.972   1.200   1.858 -0.0647 -0.3964 -0.2258
  650TIP3    H123509   0.960   1.112   1.822 -3.6284  0.2536 -0.9660
  650TIP3    H223510   0.972   1.187   1.953 -0.6633 -1.2089 -0.3201
  651TIP3   OH223511   4.493   2.656   1.683  0.3327  0.0603  0.1686
  651TIP3    H123512   4.537   2.733   1.719 -2.8121  1.6224  0.9634
  651TIP3    H223513   4.468   2.605   1.759  0.8310 -0.8994 -0.2859
  652TIP3   OH223514   4.826   3.611   1.450 -0.1623 -0.1862 -0.3213
  652TIP3    H123515   4.909   3.655   1.467 -0.0907 -0.1063 -0.8505
  652TIP3    H223516   4.760   3.680   1.456 -0.0707 -0.0368 -0.9603
  653TIP3   OH223517   6.721   4.434   7.615  0.4836  0.5676 -0.0589
  653TIP3    H123518   6.683   4.357   7.573  1.3986  0.0714  0.0078
  653TIP3    H223519   6.667   4.507   7.584  0.5413  0.0948 -1.3073
  654TIP3   OH223520   0.042   3.151   8.471 -0.5668 -0.1876 -0.2712
  654TIP3    H123521   0.025   3.208   8.396 -2.8099 -1.5256 -0.8643
  654TIP3    H223522   0.129   3.115   8.454 -1.3292 -1.0992 -2.7245
  655TIP3   OH223523   5.615   5.304   7.743  0.2814  0.3412  0.0418
  655TIP3    H123524   5.657   5.219   7.759  0.5250  0.1884 -1.2768
  655TIP3    H223525   5.634   5.355   7.822  0.9289 -0.5198  0.4675
  656TIP3   OH223526   1.686   4.892   7.702 -0.2815 -0.2084 -0.0583
  656TIP3    H123527   1.612   4.842   7.668  0.5514 -0.9646 -0.7934
  656TIP3    H223528   1.714   4.845   7.780  0.0624 -0.5069 -0.3577
  657TIP3   OH223529   6.768   5.050   8.490 -0.0124 -0.5331 -0.6292
  657TIP3    H123530   6.681   5.068   8.456  0.7065  1.1874 -1.7206
  657TIP3    H223531   6.827   5.086   8.424  1.4884  3.2971  2.4090
  658TIP3   OH223532   0.545   2.138   2.011  0.4114  0.6673 -0.5638
  658TIP3    H123533   0.555   2.233   2.021  1.1351  0.5551 -0.0836
  658TIP3    H223534   0.486   2.112   2.081 -0.1755  0.8202 -0.9933
  659TIP3   OH223535   2.648   4.198   2.254  0.1426  0.6905 -0.2891
  659TIP3    H123536   2.605   4.281   2.234 -0.0608  0.7426  0.3491
  659TIP3    H223537   2.607   4.135   2.194 -0.7539  0.7575  0.2393
  660TIP3   OH223538   2.902   1.408   8.073 -0.0253 -0.0920  0.0659
  660TIP3    H123539   2.990   1.385   8.044 -0.3134 -0.8618 -0.2081
  660TIP3    H223540   2.845   1.344   8.031 -0.6873  0.1944  0.5102
  661TIP3   OH223541   5.204   6.249   8.454  0.1155 -0.2856 -0.7504
  661TIP3    H123542   5.109   6.241   8.465  0.2492 -1.2010 -0.1546
  661TIP3    H223543   5.231   6.163   8.422  0.7399 -0.0153 -0.9522
  662TIP3   OH223544   5.740   2.233   2.429  0.1721  0.1543 -0.1566
  662TIP3    H123545   5.646   2.248   2.440 -1.1652 -2.4111 -5.1290
  662TIP3    H223546   5.762   2.277   2.347  1.9536 -3.2676 -1.7183
  663TIP3   OH223547   3.722   1.176   0.524  0.3246  0.3090  0.2351
  663TIP3    H123548   3.685   1.111   0.584 -0.8450  0.3942 -0.3659
  663TIP3    H223549   3.667   1.172   0.446  1.7899  0.2287 -0.8465
  664TIP3   OH223550   2.449   0.609   7.127 -1.2241  0.7182 -0.3034
  664TIP3    H123551   2.426   0.633   7.038  0.2644 -2.3733 -1.6864
  664TIP3    H223552   2.427   0.516   7.133  1.5254  0.0529  1.4946
  665TIP3   OH223553   1.031   0.124   7.901  0.0063  0.1456 -0.1395
  665TIP3    H123554   1.117   0.166   7.893 -1.4499  3.0978 -1.8632
  665TIP3    H223555   0.992   0.165   7.978 -0.0916 -0.7636  0.3012
  666TIP3   OH223556   2.683   5.029   7.234  0.0366  0.1019  0.1341
  666TIP3    H123557   2.643   5.088   7.169  0.3114  1.2676  0.9816
  666TIP3    H223558   2.689   4.945   7.189 -0.5200  0.6727 -1.0745
  667TIP3   OH223559   5.967   4.814   2.176  0.5195 -0.2281 -0.1723
  667TIP3    H123560   5.964   4.882   2.244 -0.3711  0.0340 -0.4564
  667TIP3    H223561   5.982   4.861   2.095  0.4130 -0.4262 -0.3072
  668TIP3   OH223562   1.883   3.139   1.120  0.1110 -0.0988  0.4051
  668TIP3    H123563   1.922   3.075   1.179 -0.5046 -1.9760 -1.1486
  668TIP3    H223564   1.957   3.177   1.074  0.3918 -0.5450  0.4882
  669TIP3   OH223565   6.242   3.854   0.556  0.1996  0.3455  0.3459
  669TIP3    H123566   6.323   3.808   0.580  0.5034  1.4910  1.6391
  669TIP3    H223567   6.243   3.856   0.461  1.8723  0.6244  0.3380
  670TIP3   OH223568   6.608   5.309   7.264  0.2213  0.4347 -0.2576
  670TIP3    H123569   6.593   5.389   7.214  1.6705 -0.3917 -2.1160
  670TIP3    H223570   6.556   5.242   7.220  1.1822 -0.2222 -0.4240
  671TIP3   OH223571   4.139   1.279   2.203  0.2604 -0.1762  0.0003
  671TIP3    H123572   4.113   1.229   2.281  2.1049 -0.4599  0.4739
  671TIP3    H223573   4.125   1.370   2.228 -1.4601 -0.3453 -0.2388
  672TIP3   OH223574   4.344   0.648   1.949 -0.1534 -0.4490  0.0935
  672TIP3    H123575   4.251   0.629   1.934 -0.2813 -0.2851  0.6338
  672TIP3    H223576   4.365   0.716   1.886 -0.1915 -1.0438 -0.5699
  673TIP3   OH223577   5.102   1.592   8.643  0.4054 -1.0914  0.0621
  673TIP3    H123578   5.006   1.600   8.647  0.4273 -0.3253 -0.6952
  673TIP3    H223579   5.118   1.549   8.559  0.7203 -1.3302  0.2457
  674TIP3   OH223580   3.611   4.183   8.352  0.3052  0.0533  0.3275
  674TIP3    H123581   3.652   4.208   8.434 -2.8284  2.5850  1.3355
  674TIP3    H223582   3.611   4.263   8.300  1.2275 -1.2152 -1.7544
  675TIP3   OH223583   5.780   4.004   1.731  0.9464  0.5144 -0.0722
  675TIP3    H123584   5.853   3.975   1.676  0.7770 -0.0608 -0.0016
  675TIP3    H223585   5.814   4.000   1.820  0.2843 -1.5694  0.1449
  676TIP3   OH223586   2.461   6.804   7.538 -0.3526 -0.0561 -0.0499
  676TIP3    H123587   2.490   6.714   7.548  0.8574  0.2561 -0.4924
  676TIP3    H223588   2.365   6.799   7.535 -0.3388 -1.1942  0.9629
  677TIP3   OH223589   3.058   2.536   1.299 -0.5203  0.2965 -0.0280
  677TIP3    H123590   2.987   2.474   1.308  1.8878 -2.4648  1.5027
  677TIP3    H223591   3.107   2.530   1.381  2.4153  0.7443 -1.6012
  678TIP3   OH223592   6.476   1.706   2.135  0.6380  0.2599  0.1820
  678TIP3    H123593   6.545   1.772   2.127  1.5698 -0.4514  1.7913
  678TIP3    H223594   6.505   1.650   2.207  0.1878 -2.3179 -1.5140
  679TIP3   OH223595   5.924   2.517   1.252  0.0842 -0.0196 -0.3782
  679TIP3    H123596   5.908   2.608   1.224  1.0703  0.1247 -0.5147
  679TIP3    H223597   5.849   2.468   1.220 -1.5629  1.1021  1.5477
  680TIP3   OH223598   5.250   5.793   1.019 -0.3319  0.2234  0.0537
  680TIP3    H123599   5.184   5.787   0.951  1.2697  0.6480 -1.6202
  680TIP3    H223600   5.269   5.887   1.026 -1.0260  0.2820  1.6929
  681TIP3   OH223601   5.150   6.730   7.364  0.2423  0.7892  0.2631
  681TIP3    H123602   5.102   6.737   7.446 -1.1703  0.3843 -0.5024
  681TIP3    H223603   5.125   6.807   7.313 -2.0921 -0.8847 -1.3604
  682TIP3   OH223604   6.154   5.599   7.331 -0.7109  0.6498 -0.1272
  682TIP3    H123605   6.181   5.511   7.304 -0.7628  0.5691  0.0783
  682TIP3    H223606   6.234   5.650   7.329 -0.6500  0.5572 -0.0901
  683TIP3   OH223607   2.397   3.323   6.872 -0.7607 -0.0348 -0.5141
  683TIP3    H123608   2.481   3.286   6.900 -1.0188  0.4135  0.9511
  683TIP3    H223609   2.420   3.404   6.827 -0.4313  1.5336  2.2134
  684TIP3   OH223610   5.850   5.507   1.632 -0.4260 -0.7231 -0.3600
  684TIP3    H123611   5.792   5.450   1.682 -0.4657  0.6295  1.2450
  684TIP3    H223612   5.807   5.593   1.636  0.9822 -0.0045 -0.3597
  685TIP3   OH223613   4.011   4.716   7.519 -0.3895 -0.3076  0.1339
  685TIP3    H123614   3.941   4.715   7.455 -0.3458  0.7941  0.0509
  685TIP3    H223615   3.977   4.767   7.592  0.0599 -0.3691  0.3942
  686TIP3   OH223616   0.653   3.488   2.168  0.4338 -0.2950  0.1836
  686TIP3    H123617   0.730   3.503   2.113  0.2021 -1.5777 -0.5527
  686TIP3    H223618   0.634   3.394   2.157 -1.5746  0.0992 -0.1109
  687TIP3   OH223619   5.175   2.895   1.464 -0.3175 -0.2337  0.8118
  687TIP3    H123620   5.206   2.983   1.484  0.9024 -0.8682  1.9306
  687TIP3    H223621   5.179   2.849   1.548  0.7643 -1.8253 -0.0572
  688TIP3   OH223622   2.820   2.780   1.033 -0.6496  0.6949  0.3762
  688TIP3    H123623   2.767   2.851   1.068  0.3732  1.0012  1.3543
  688TIP3    H223624   2.898   2.778   1.088 -0.4016 -0.8406  0.0330
  689TIP3   OH223625   3.069   0.213   1.764  0.1027 -0.1222 -0.3811
  689TIP3    H123626   3.034   0.277   1.702 -0.0580 -0.4571 -0.6372
  689TIP3    H223627   3.059   0.254   1.849 -0.9618 -0.2410 -0.4440
  690TIP3   OH223628   3.414   5.471   7.684  0.1276 -0.2604 -0.1640
  690TIP3    H123629   3.373   5.422   7.755  0.3762  0.7009  0.6715
  690TIP3    H223630   3.488   5.515   7.726  0.0721  0.5924 -0.9453
  691TIP3   OH223631   0.502   2.535   1.704 -0.2590 -0.0520 -0.5027
  691TIP3    H123632   0.428   2.571   1.655  0.2663 -0.2029 -1.4458
  691TIP3    H223633   0.561   2.609   1.716 -0.5055  0.0439  0.1526
  692TIP3   OH223634   1.845   6.362   7.701  0.1247 -0.1390  0.2246
  692TIP3    H123635   1.797   6.288   7.663 -0.8747  1.1935 -1.2595
  692TIP3    H223636   1.922   6.372   7.646 -0.5199  0.8215 -0.5434
  693TIP3   OH223637   1.459   0.229   1.233  0.2074  0.5006 -0.4235
  693TIP3    H123638   1.396   0.201   1.300  1.8069  0.8095  1.2909
  693TIP3    H223639   1.424   0.312   1.200 -1.8552 -0.8275 -1.7822
  694TIP3   OH223640   5.619   4.223   2.806  0.3178 -0.2342 -0.5433
  694TIP3    H123641   5.557   4.284   2.845  2.0841  2.4016 -1.6169
  694TIP3    H223642   5.569   4.180   2.736 -1.0942 -0.4024  0.5351
  695TIP3   OH223643   5.344   2.628   7.069  0.0939  0.1262  0.7833
  695TIP3    H123644   5.411   2.562   7.081  0.4615  0.5872  1.3055
  695TIP3    H223645   5.391   2.704   7.034 -0.1493  0.4395  1.1228
  696TIP3   OH223646   2.068   5.490   0.127 -0.6942  0.1344 -0.1483
  696TIP3    H123647   1.993   5.436   0.100 -0.7750  0.4743 -0.6105
  696TIP3    H223648   2.079   5.553   0.056  0.9407 -0.8137 -0.8109
  697TIP3   OH223649   3.854   4.888   8.071 -0.0325 -0.2731 -0.1543
  697TIP3    H123650   3.824   4.957   8.129  1.5033  0.0153  0.3619
  697TIP3    H223651   3.775   4.855   8.028 -0.7398  2.2063 -0.8856
  698TIP3   OH223652   2.652   2.352   1.082 -0.3204  0.2643  0.3370
  698TIP3    H123653   2.556   2.352   1.092 -0.3967  1.9433 -0.1180
  698TIP3    H223654   2.671   2.434   1.038  1.5231  0.8696  2.1375
  699TIP3   OH223655   0.813   6.367   7.465  0.4527  0.3584 -0.0325
  699TIP3    H123656   0.831   6.278   7.435 -0.4277  0.1432  0.0300
  699TIP3    H223657   0.752   6.356   7.538  1.1148  0.9700  0.6271
  700TIP3   OH223658   1.946   1.208   7.062  0.2636  0.2257 -0.4628
  700TIP3    H123659   1.886   1.274   7.099  0.2313 -0.7374  1.2977
  700TIP3    H223660   1.915   1.196   6.972 -2.3947 -0.4277  0.4470
  701TIP3   OH223661   4.833   2.255   8.278 -0.0267 -0.6812  0.3777
  701TIP3    H123662   4.765   2.216   8.222 -1.1238  1.8826 -0.2132
  701TIP3    H223663   4.785   2.290   8.353  0.4156  1.8788 -0.4253
  702TIP3   OH223664   1.769   2.782   7.325  0.1936  0.5290  0.0205
  702TIP3    H123665   1.718   2.859   7.301 -1.2030  0.0678  1.3618
  702TIP3    H223666   1.721   2.708   7.288 -0.2453  0.0765  1.4286
  703TIP3   OH223667   5.434   3.248   7.432 -0.2246  0.0845  0.2207
  703TIP3    H123668   5.398   3.335   7.451 -0.8459 -0.2757  0.7520
  703TIP3    H223669   5.460   3.252   7.340 -0.3642  0.7889  0.2048
  704TIP3   OH223670   1.345   5.608   7.471 -0.3495 -0.3500 -0.0528
  704TIP3    H123671   1.314   5.585   7.383 -0.1464 -0.3810 -0.1152
  704TIP3    H223672   1.440   5.613   7.463 -0.2581 -1.2108  0.3603
  705TIP3   OH223673   5.813   2.130   1.361 -0.1267  0.6001  0.4902
  705TIP3    H123674   5.903   2.146   1.389 -0.3764  1.2402  0.9614
  705TIP3    H223675   5.781   2.216   1.334  0.0193  0.0580 -1.6064
  706TIP3   OH223676   6.791   6.179   7.252  0.2907  0.4450  0.2211
  706TIP3    H123677   6.843   6.099   7.241  1.4837  1.3135 -0.7255
  706TIP3    H223678   6.800   6.224   7.168 -0.8661  1.2886  0.5398
  707TIP3   OH223679   0.708   2.738   1.710 -0.2891 -1.0061  0.1415
  707TIP3    H123680   0.736   2.796   1.640  0.1485 -1.9360 -0.4710
  707TIP3    H223681   0.789   2.711   1.753 -0.4760 -1.2673  0.3358
  708TIP3   OH223682   1.830   3.176   0.587  0.2300  0.4474 -0.2582
  708TIP3    H123683   1.835   3.125   0.668 -0.2226  1.1717  0.2409
  708TIP3    H223684   1.913   3.223   0.584  0.4421  0.0662 -0.4634
  709TIP3   OH223685   4.890   6.670   1.297  0.0095  0.2636  0.0752
  709TIP3    H123686   4.844   6.743   1.256  0.7634  0.9061  0.3450
  709TIP3    H223687   4.854   6.667   1.386 -1.2172 -0.7702 -0.4300
  710TIP3   OH223688   2.156   4.732   7.869 -0.3559  0.1729  0.1528
  710TIP3    H123689   2.165   4.668   7.798  0.4199 -1.1972  1.4424
  710TIP3    H223690   2.172   4.816   7.826  0.0306 -0.6017 -1.3108
  711TIP3   OH223691   0.272   1.842   1.251  0.5844  0.1657 -0.0750
  711TIP3    H123692   0.288   1.937   1.244  2.6285 -0.1543 -0.2742
  711TIP3    H223693   0.354   1.807   1.285 -0.5281 -1.4305  1.0943
  712TIP3   OH223694   6.165   6.423   0.750  0.0299  0.1348 -0.0675
  712TIP3    H123695   6.119   6.407   0.668  0.1616 -1.4063  0.1377
  712TIP3    H223696   6.145   6.515   0.771 -0.3065  0.4348 -1.6129
  713TIP3   OH223697   0.694   0.625   0.125  0.1159 -0.4142 -0.6764
  713TIP3    H123698   0.752   0.678   0.180 -0.6686 -0.2677  0.0284
  713TIP3    H223699   0.710   0.535   0.152  0.4174 -0.4251 -0.8814
  714TIP3   OH223700   1.203   0.726   7.184  0.3113 -0.0582  0.2688
  714TIP3    H123701   1.201   0.640   7.225  0.9066  1.0162  2.7169
  714TIP3    H223702   1.236   0.710   7.095 -1.1639 -2.5008  0.0972
  715TIP3   OH223703   4.862   3.711   1.753 -0.6868 -0.8961  0.3445
  715TIP3    H123704   4.890   3.758   1.674  0.3471  0.2023  1.3135
  715TIP3    H223705   4.788   3.657   1.724  0.1733 -1.1448 -1.5317
  716TIP3   OH223706   6.249   0.473   8.167 -0.1926 -0.0093 -0.4658
  716TIP3    H123707   6.195   0.397   8.188  0.6656 -0.3386  0.6838
  716TIP3    H223708   6.336   0.436   8.149  0.0273  0.6319 -0.7434
  717TIP3   OH223709   2.295   1.407   8.021  0.1322 -0.3333 -0.6583
  717TIP3    H123710   2.273   1.331   7.967 -0.5887 -1.0047  0.5569
  717TIP3    H223711   2.250   1.392   8.104  1.5447  0.4872  0.2961
  718TIP3   OH223712   3.348   5.794   8.021  0.5336 -0.0788 -0.3185
  718TIP3    H123713   3.258   5.821   8.038  1.5648  2.3008  1.9479
  718TIP3    H223714   3.351   5.702   8.047 -1.3453 -0.3849 -1.0328
  719TIP3   OH223715   1.605   0.142   6.576 -0.5825  0.7354  0.2361
  719TIP3    H123716   1.540   0.177   6.515 -2.3641 -0.2314  1.4887
  719TIP3    H223717   1.664   0.090   6.521 -0.9194  1.5421 -0.9236
  720TIP3   OH223718   5.277   1.881   1.132 -0.1280 -0.3297  0.1441
  720TIP3    H123719   5.348   1.911   1.190 -0.5737  0.1499  0.4541
  720TIP3    H223720   5.320   1.866   1.048  0.5380 -1.0645  0.6027
  721TIP3   OH223721   1.943   6.337   2.555  0.6544 -0.5651 -0.1780
  721TIP3    H123722   2.033   6.360   2.534  0.7226 -0.8247 -0.1715
  721TIP3    H223723   1.943   6.322   2.649  0.4486  0.1392 -0.0578
  722TIP3   OH223724   2.968   4.741   1.650 -0.5659 -0.1738  0.5227
  722TIP3    H123725   2.924   4.685   1.715 -1.0687 -1.5669 -0.9577
  722TIP3    H223726   3.024   4.681   1.602 -0.5355  0.7493 -0.6250
  723TIP3   OH223727   1.972   1.891   0.436 -0.5848 -0.1231 -0.6272
  723TIP3    H123728   1.936   1.873   0.523 -1.3221 -0.3590 -0.9778
  723TIP3    H223729   2.064   1.911   0.452 -0.7881  0.1542  0.2439
  724TIP3   OH223730   3.858   1.865   6.564  0.3028  0.2328  0.3927
  724TIP3    H123731   3.799   1.852   6.638  0.6588  0.7399  0.7763
  724TIP3    H223732   3.842   1.955   6.536 -0.0839 -0.0718 -0.3841
  725TIP3   OH223733   0.922   1.739   0.826 -0.1462 -1.2180  0.1528
  725TIP3    H123734   0.952   1.656   0.864  1.4440 -0.0034  1.7730
  725TIP3    H223735   0.882   1.786   0.899 -2.3462 -1.0736 -1.0632
  726TIP3   OH223736   3.524   1.290   7.919 -0.5226  0.3512  0.1077
  726TIP3    H123737   3.481   1.233   7.855  1.8804 -0.5099 -0.8690
  726TIP3    H223738   3.493   1.258   8.004 -2.2882  0.2556 -0.5231
  727TIP3   OH223739   2.741   3.357   1.547 -0.2983  0.2674 -0.4601
  727TIP3    H123740   2.736   3.438   1.598 -2.8540  0.2802 -0.5772
  727TIP3    H223741   2.659   3.356   1.497 -0.2148 -2.2546 -0.6576
  728TIP3   OH223742   4.616   5.927   8.678  0.1275 -0.2012 -0.0991
  728TIP3    H123743   4.662   5.845   8.658 -0.7618 -0.3712 -1.5798
  728TIP3    H223744   4.686   5.989   8.700  1.0914 -0.4784 -2.1595
  729TIP3   OH223745   5.729   2.358   1.155 -0.5420 -0.3668 -0.2314
  729TIP3    H123746   5.702   2.441   1.116 -0.5045  0.5887  1.6589
  729TIP3    H223747   5.698   2.291   1.094 -1.1125  1.0029 -1.4936
  730TIP3   OH223748   4.297   4.093   1.488  0.0171 -0.5400 -0.0553
  730TIP3    H123749   4.328   4.014   1.443 -1.2113 -0.7523 -0.5696
  730TIP3    H223750   4.245   4.139   1.422  1.4817  1.1953 -0.0599
  731TIP3   OH223751   4.749   4.115   6.618 -0.1851 -0.5158 -0.4882
  731TIP3    H123752   4.762   4.154   6.531  0.7926 -0.7416 -0.4587
  731TIP3    H223753   4.752   4.021   6.602 -0.2501 -0.5577 -0.2481
  732TIP3   OH223754   6.621   6.061   7.830  0.0973  0.2918  0.1378
  732TIP3    H123755   6.617   6.120   7.755 -0.9532  0.5134  0.3418
  732TIP3    H223756   6.705   6.016   7.821  0.6907  1.4322 -0.3085
  733TIP3   OH223757   3.977   4.170   1.496 -0.4014 -0.2934 -0.4874
  733TIP3    H123758   3.968   4.078   1.469  0.7300 -0.7588  0.6144
  733TIP3    H223759   4.023   4.212   1.423  2.0056 -1.3733  0.3090
  734TIP3   OH223760   0.549   1.833   8.228 -0.3424  0.5120  0.0249
  734TIP3    H123761   0.525   1.925   8.237 -0.9064  0.3066  0.7816
  734TIP3    H223762   0.571   1.805   8.317 -3.2308 -0.8577  0.4204
  735TIP3   OH223763   4.452   2.270   0.999  0.2184  0.0443  0.5096
  735TIP3    H123764   4.505   2.308   1.069  0.6494  0.5255 -0.0639
  735TIP3    H223765   4.505   2.283   0.920 -1.1225  1.3185 -0.2100
  736TIP3   OH223766   5.941   4.197   0.805 -0.3575 -0.1249  0.2209
  736TIP3    H123767   5.934   4.208   0.900  0.2138 -0.6724  0.3369
  736TIP3    H223768   6.018   4.248   0.781  0.4551 -1.2871  0.3026
  737TIP3   OH223769   4.802   1.955   1.460  0.6378 -0.3794 -0.1779
  737TIP3    H123770   4.709   1.976   1.453  0.2612 -1.9707 -0.5094
  737TIP3    H223771   4.829   1.934   1.370  1.5402  0.8723 -0.2192
  738TIP3   OH223772   6.215   6.149   3.129  0.2395  0.5711  0.2801
  738TIP3    H123773   6.284   6.087   3.105 -0.8946 -0.3681 -0.6819
  738TIP3    H223774   6.255   6.235   3.115  1.8752  0.1072  1.7221
  739TIP3   OH223775   3.996   0.193   1.155 -0.2148 -1.2149  0.1916
  739TIP3    H123776   3.955   0.185   1.069  1.7340 -2.0011 -0.7165
  739TIP3    H223777   3.943   0.258   1.201 -1.3248 -0.8109 -1.5681
  740TIP3   OH223778   3.705   6.512   1.191 -0.4664 -0.7344 -0.2675
  740TIP3    H123779   3.726   6.558   1.110 -0.5628  1.4075  0.8399
  740TIP3    H223780   3.783   6.460   1.210  1.2175  1.7713  0.2117
  741TIP3   OH223781   4.048   3.825   0.200  0.0641  0.0288 -0.1807
  741TIP3    H123782   4.123   3.856   0.251  0.7160  0.3322 -1.2867
  741TIP3    H223783   3.995   3.903   0.183 -0.3096 -0.1216  0.2818
  742TIP3   OH223784   5.681   1.922   0.608  0.2945 -0.3393  0.4187
  742TIP3    H123785   5.689   2.009   0.646 -4.0578 -0.3403  1.9997
  742TIP3    H223786   5.683   1.863   0.684 -0.2268 -1.2167 -0.2297
  743TIP3   OH223787   3.103   1.029   0.474  0.5819  0.1063 -0.1565
  743TIP3    H123788   3.093   0.940   0.441 -1.2108  0.7065 -1.3729
  743TIP3    H223789   3.024   1.046   0.525  0.8375  1.0337 -0.0437
  744TIP3   OH223790   3.559   4.292   8.037 -0.5290 -0.0910 -0.9248
  744TIP3    H123791   3.569   4.361   7.972 -0.6318 -0.5226 -1.4050
  744TIP3    H223792   3.611   4.219   8.002 -0.3780 -0.2377 -0.3992
  745TIP3   OH223793   3.191   5.833   8.324 -0.2037  0.3277 -0.3032
  745TIP3    H123794   3.243   5.753   8.322  0.3679  0.6429  1.1572
  745TIP3    H223795   3.102   5.805   8.301 -0.1026 -0.8208  0.6398
  746TIP3   OH223796   3.339   0.120   2.017  0.6538 -0.3084 -0.3806
  746TIP3    H123797   3.367   0.053   1.955  0.3162 -0.6204 -0.2010
  746TIP3    H223798   3.245   0.106   2.027 -0.0844  2.1727 -2.7423
  747TIP3   OH223799   6.022   2.982   1.046 -0.1426 -0.1446  0.1180
  747TIP3    H123800   6.037   2.909   1.107 -0.6149 -3.0942 -2.9407
  747TIP3    H223801   6.109   2.998   1.007  0.2574  2.0402  1.7565
  748TIP3   OH223802   6.210   2.967   0.391 -0.3843 -0.2301  0.3573
  748TIP3    H123803   6.217   2.871   0.393 -2.2324 -0.4120  0.2553
  748TIP3    H223804   6.116   2.983   0.383 -0.0515  1.5941 -0.2785
  749TIP3   OH223805   4.720   1.131   7.100  0.0792  0.2939 -0.1162
  749TIP3    H123806   4.766   1.208   7.132  3.3030 -0.4917 -2.4048
  749TIP3    H223807   4.679   1.159   7.018 -0.9670  0.1784  0.3471
  750TIP3   OH223808   0.755   2.686   0.632 -0.1267 -0.1191 -0.4435
  750TIP3    H123809   0.731   2.779   0.627 -0.9098 -0.2375  0.6130
  750TIP3    H223810   0.847   2.687   0.660  0.0568  0.3306 -1.0400
  751TIP3   OH223811   6.136   5.124   6.711 -0.6503 -0.3422  0.3102
  751TIP3    H123812   6.193   5.067   6.660 -0.7126 -0.8620  0.8177
  751TIP3    H223813   6.065   5.067   6.740 -1.2355  0.2146 -0.0041
  752TIP3   OH223814   6.257   5.523   7.935 -0.4853 -0.1143  0.1161
  752TIP3    H123815   6.308   5.462   7.990 -1.6743 -1.7467 -0.5158
  752TIP3    H223816   6.310   5.602   7.933  1.0928 -1.0761  1.0700
  753TIP3   OH223817   5.743   0.849   6.991  0.8091 -0.3725 -0.1348
  753TIP3    H123818   5.681   0.907   7.036  2.1907  0.8049  0.3166
  753TIP3    H223819   5.687   0.794   6.936 -0.7629 -0.3884  1.3737
  754TIP3   OH223820   4.485   5.844   0.472  0.8623  0.2670 -0.0776
  754TIP3    H123821   4.400   5.804   0.453 -0.1896  1.8578  0.9825
  754TIP3    H223822   4.513   5.804   0.554  1.3025 -0.4801 -0.5841
  755TIP3   OH223823   5.217   6.235   0.472  0.3973  0.0924  0.1725
  755TIP3    H123824   5.291   6.226   0.412 -0.4382 -1.9941 -0.6467
  755TIP3    H223825   5.165   6.155   0.458  0.2800 -0.6444  3.8570
  756TIP3   OH223826   5.862   0.547   0.806  0.1633  0.3430  0.6534
  756TIP3    H123827   5.889   0.616   0.866  0.0062 -0.0371  1.1723
  756TIP3    H223828   5.867   0.467   0.858  0.0423  0.0030  0.1518
  757TIP3   OH223829   0.729   2.865   1.081 -0.3611  0.8169 -0.7432
  757TIP3    H123830   0.685   2.946   1.108 -1.4983  0.3733 -1.2276
  757TIP3    H223831   0.778   2.837   1.158  1.3196  2.7647 -0.9980
  758TIP3   OH223832   4.744   1.033   1.934  0.3063 -0.1587 -0.0086
  758TIP3    H123833   4.836   1.042   1.959  0.6168  2.0087 -1.7036
  758TIP3    H223834   4.733   1.090   1.858 -2.1342 -1.4050 -0.7158
  759TIP3   OH223835   2.039   4.932   3.037 -0.4085  0.0269 -0.2404
  759TIP3    H123836   2.054   4.850   2.990  3.2583  0.6279 -0.3750
  759TIP3    H223837   2.009   4.904   3.124 -0.2628 -1.4036 -0.6182
  760TIP3   OH223838   3.887   0.529   6.992  0.6009 -0.2690 -0.3133
  760TIP3    H123839   3.973   0.569   6.987  0.3710  0.2935  0.0533
  760TIP3    H223840   3.826   0.603   6.984  0.0630 -0.9478 -3.7944
  761TIP3   OH223841   1.329   6.237   2.126 -0.1578 -0.3164 -0.4656
  761TIP3    H123842   1.272   6.201   2.194 -0.4816 -0.2757 -0.7108
  761TIP3    H223843   1.411   6.188   2.134 -0.1475 -0.2131  0.0423
  762TIP3   OH223844   3.334   3.286   0.896 -0.2874 -0.1961 -0.5525
  762TIP3    H123845   3.283   3.211   0.866 -0.6546 -0.1163 -0.1407
  762TIP3    H223846   3.310   3.356   0.835  0.9316 -0.7007 -1.6477
  763TIP3   OH223847   3.250   2.266   1.062  0.5663  0.2669  0.1400
  763TIP3    H123848   3.301   2.263   1.143  1.5940 -0.9243 -0.5078
  763TIP3    H223849   3.181   2.330   1.079  1.2313  0.6229  1.6700
  764TIP3   OH223850   3.374   5.283   0.714 -0.1827 -0.3762 -0.1806
  764TIP3    H123851   3.328   5.200   0.721 -2.7350  0.9872  0.3152
  764TIP3    H223852   3.350   5.317   0.629 -0.3881  0.5373  0.2318
  765TIP3   OH223853   6.843   5.668   6.883 -0.3937 -0.3589  0.2640
  765TIP3    H123854   6.861   5.574   6.873 -2.0764 -0.6408 -0.5083
  765TIP3    H223855   6.789   5.673   6.962 -2.0147 -0.3528 -0.7777
  766TIP3   OH223856   2.736   4.120   1.614 -0.1723  0.3001 -0.2127
  766TIP3    H123857   2.667   4.160   1.561 -0.4245  0.3361  0.1366
  766TIP3    H223858   2.695   4.106   1.699 -0.1256 -0.7911 -0.3540
  767TIP3   OH223859   1.446   1.704   1.038 -0.4002 -0.3028  0.3266
  767TIP3    H123860   1.360   1.664   1.027 -0.5683 -0.2609  1.4207
  767TIP3    H223861   1.436   1.792   1.001 -0.5497 -0.6215 -0.4114
  768TIP3   OH223862   1.747   4.752   7.914  0.0808  0.3182  0.8603
  768TIP3    H123863   1.835   4.732   7.944 -0.0637  0.2134  1.2251
  768TIP3    H223864   1.708   4.667   7.893 -0.1869  0.2932  1.4288
  769TIP3   OH223865   1.521   2.593   1.514  0.0158  0.5616 -0.1576
  769TIP3    H123866   1.600   2.584   1.568  0.2708 -0.7649 -0.6944
  769TIP3    H223867   1.470   2.514   1.533 -1.8085  1.9450  1.0814
  770TIP3   OH223868   0.679   1.485   2.623 -0.1249 -0.0353 -0.3835
  770TIP3    H123869   0.638   1.562   2.662  0.8138  0.8186 -1.0079
  770TIP3    H223870   0.749   1.462   2.684  0.1763  0.1763 -0.6448
  771TIP3   OH223871   2.532   2.519   7.208 -0.2034 -0.0616 -0.5091
  771TIP3    H123872   2.456   2.530   7.265 -1.8368  0.5154 -2.6601
  771TIP3    H223873   2.500   2.542   7.120  2.9853  2.2195 -1.2443
  772TIP3   OH223874   6.839   0.277   7.167 -0.4025 -0.0551  0.5516
  772TIP3    H123875   6.834   0.262   7.072  1.7227  4.0127 -0.4100
  772TIP3    H223876   6.752   0.311   7.190  0.0479  2.2013 -0.7666
  773TIP3   OH223877   3.723   1.686   1.339 -0.4634  0.0960 -0.3649
  773TIP3    H123878   3.687   1.763   1.384 -2.5976 -0.9650 -0.1492
  773TIP3    H223879   3.722   1.709   1.246  0.9345  1.0831 -0.1733
  774TIP3   OH223880   6.281   4.664   0.656 -0.5887 -0.4877 -0.0690
  774TIP3    H123881   6.254   4.659   0.565  0.3595  1.5610 -0.5132
  774TIP3    H223882   6.199   4.652   0.705 -1.4861  0.4679 -1.2529
  775TIP3   OH223883   2.452   3.301   7.521 -0.3340  0.3932  0.1886
  775TIP3    H123884   2.433   3.207   7.520 -0.6934  0.4662 -1.0187
  775TIP3    H223885   2.489   3.317   7.608  3.3067 -1.5733 -0.8087
  776TIP3   OH223886   2.397   1.021   7.536 -0.2197  0.2566 -0.0070
  776TIP3    H123887   2.373   1.019   7.443 -3.1469  1.3727  0.5994
  776TIP3    H223888   2.469   1.083   7.541  0.9082 -0.8399 -1.6633
  777TIP3   OH223889   6.447   0.089   1.568  0.4468  0.3763  0.1122
  777TIP3    H123890   6.407   0.123   1.648 -0.1295 -0.0349  0.0047
  777TIP3    H223891   6.388   0.116   1.498  2.0473  2.6187 -0.4687
  778TIP3   OH223892   5.192   3.887   7.124  0.0618  0.1020  0.3483
  778TIP3    H123893   5.179   3.819   7.058  0.3677  0.1111  0.2768
  778TIP3    H223894   5.213   3.966   7.074  0.7927 -0.0099  0.4750
  779TIP3   OH223895   6.261   6.366   7.304  0.1281 -0.8016 -0.3435
  779TIP3    H123896   6.218   6.334   7.384 -1.8361 -0.9146 -1.3758
  779TIP3    H223897   6.352   6.337   7.312 -0.0074 -0.7929  1.8401
  780TIP3   OH223898   5.090   3.350   8.371  0.1817 -0.6944 -0.0283
  780TIP3    H123899   5.023   3.365   8.438  0.2240  1.7922 -0.4255
  780TIP3    H223900   5.173   3.349   8.419  0.1725  0.6253  0.0600
  781TIP3   OH223901   2.814   6.735   1.480  0.4316  0.4331 -0.2100
  781TIP3    H123902   2.837   6.750   1.388 -0.1883  0.1535 -0.4112
  781TIP3    H223903   2.835   6.818   1.523  1.3040  0.3669 -0.4848
  782TIP3   OH223904   6.448   1.352   0.431  0.2240  0.0459 -0.2250
  782TIP3    H123905   6.421   1.419   0.494 -0.4146 -0.2412 -0.1810
  782TIP3    H223906   6.367   1.330   0.384  0.6389  0.0621 -0.9628
  783TIP3   OH223907   6.361   4.656   6.678  0.0663  0.5941  0.1891
  783TIP3    H123908   6.433   4.665   6.742  0.6063  2.1040 -0.5826
  783TIP3    H223909   6.350   4.744   6.642 -2.7816  0.6042  0.8868
  784TIP3   OH223910   5.216   2.642   7.976  0.0190  0.3346 -0.5088
  784TIP3    H123911   5.172   2.723   8.001 -0.1311  0.5053 -1.3122
  784TIP3    H223912   5.298   2.643   8.025 -0.1255  0.8167 -0.2736
  785TIP3   OH223913   3.207   5.784   1.879  0.0148 -0.4366 -0.0100
  785TIP3    H123914   3.141   5.835   1.926  2.2379  0.6773  2.0395
  785TIP3    H223915   3.231   5.839   1.804  0.8944  0.6243  1.0253
  786TIP3   OH223916   2.820   1.470   1.281  0.2806  0.2300 -0.3094
  786TIP3    H123917   2.866   1.489   1.199 -0.8781 -0.2878 -1.1173
  786TIP3    H223918   2.772   1.389   1.263 -1.7604  1.2699  0.0842
  787TIP3   OH223919   4.992   3.200   1.153  0.1838  0.7259  0.8268
  787TIP3    H123920   4.927   3.157   1.208 -0.3791  0.4317 -0.0569
  787TIP3    H223921   5.076   3.165   1.183 -0.2544 -0.9494  0.1735
  788TIP3   OH223922   3.253   3.701   0.578  0.0521 -0.5564  0.1124
  788TIP3    H123923   3.247   3.737   0.490 -1.0306 -0.0922  0.3621
  788TIP3    H223924   3.339   3.659   0.581 -0.4465 -1.8506 -1.6445
  789TIP3   OH223925   0.052   0.196   1.772  0.3597 -0.0976 -0.2388
  789TIP3    H123926   0.008   0.111   1.773  1.2940 -0.6418 -1.9328
  789TIP3    H223927   0.145   0.175   1.778  0.5678  0.8571  0.0879
  790TIP3   OH223928   0.772   3.065   7.949  0.1291  0.7789  0.0901
  790TIP3    H123929   0.694   3.017   7.921  0.0826  0.5146  0.6581
  790TIP3    H223930   0.831   3.059   7.874 -0.1253  0.3803 -0.0870
  791TIP3   OH223931   4.220   6.189   1.699 -0.0245 -0.0920  0.2585
  791TIP3    H123932   4.192   6.183   1.790 -1.0892 -1.2237 -0.1168
  791TIP3    H223933   4.160   6.132   1.651 -0.9033  2.1393 -1.4910
  792TIP3   OH223934   0.852   4.410   0.035  0.0919 -0.1875  0.3940
  792TIP3    H123935   0.789   4.340   0.051  1.3929 -1.5701 -0.3131
  792TIP3    H223936   0.838   4.434  -0.057  0.3439 -0.2257  0.3473
  793TIP3   OH223937   4.625   4.730   1.190 -0.3135 -0.1911 -0.2437
  793TIP3    H123938   4.629   4.823   1.213  0.5615 -0.4986  0.9598
  793TIP3    H223939   4.631   4.684   1.274  1.4058 -1.3611 -0.9556
  794TIP3   OH223940   2.182   0.849   6.769 -0.1821  0.5624 -0.1376
  794TIP3    H123941   2.171   0.929   6.717  0.9776  1.5426  1.0601
  794TIP3    H223942   2.094   0.812   6.774 -0.6889  1.5939 -0.9792
  795TIP3   OH223943   1.973   1.580   8.594 -0.1428 -0.5538 -0.1863
  795TIP3    H123944   2.006   1.650   8.649 -0.5933 -0.4904  0.0088
  795TIP3    H223945   1.920   1.624   8.527  0.5570 -0.6120 -0.7985
  796TIP3   OH223946   1.680   1.549   1.019 -0.8558 -0.0110  0.0698
  796TIP3    H123947   1.695   1.532   0.926 -0.5652 -2.0366  0.4409
  796TIP3    H223948   1.605   1.608   1.021 -0.1045  1.0754 -1.4638
  797TIP3   OH223949   5.246   2.252   0.753  0.1833 -1.0660  0.3365
  797TIP3    H123950   5.161   2.253   0.796  0.1312  0.6246  0.2633
  797TIP3    H223951   5.302   2.305   0.811  1.1409 -2.0156  0.3029
  798TIP3   OH223952   3.695   3.311   0.423 -0.3885 -0.1458  0.1245
  798TIP3    H123953   3.767   3.289   0.364  0.3730  0.1554  0.9172
  798TIP3    H223954   3.697   3.243   0.490  0.9624  1.3388  1.6985
  799TIP3   OH223955   1.801   2.939   8.433 -0.0745  0.4068 -0.1646
  799TIP3    H123956   1.890   2.931   8.469 -0.8406  0.0770  1.8053
  799TIP3    H223957   1.786   3.033   8.430 -0.1481  0.4351  0.8339
  800TIP3   OH223958   6.173   2.283   0.147 -0.1967 -0.5559  0.0979
  800TIP3    H123959   6.112   2.280   0.221 -0.2708  0.9363  0.1361
  800TIP3    H223960   6.117   2.272   0.069 -0.2873 -0.8738  0.2077
  801TIP3   OH223961   0.987   0.429   0.056 -0.4605  0.2587 -0.1444
  801TIP3    H123962   1.078   0.403   0.073 -0.9463 -0.0197  2.5078
  801TIP3    H223963   0.992   0.521   0.033  0.5149  0.1392 -0.4786
  802TIP3   OH223964   4.187   0.236   6.947 -0.0313 -0.1175  0.5562
  802TIP3    H123965   4.274   0.198   6.937  1.8415  3.8880 -0.3748
  802TIP3    H223966   4.157   0.251   6.858 -1.7049 -1.3334  0.8735
  803TIP3   OH223967   5.487   1.458   7.984  0.5391  0.3704 -0.2509
  803TIP3    H123968   5.570   1.507   7.982  1.2041 -0.7043  0.0969
  803TIP3    H223969   5.445   1.487   8.065  1.1104  0.0997  0.1559
  804TIP3   OH223970   6.397   5.350   8.438 -0.2178 -0.5291 -0.1577
  804TIP3    H123971   6.331   5.292   8.399  0.7560 -0.6867 -1.6805
  804TIP3    H223972   6.472   5.293   8.456  0.6166  0.1323 -1.3333
  805TIP3   OH223973   4.446   5.133   6.660  0.0351 -0.1816  0.3450
  805TIP3    H123974   4.474   5.055   6.612  0.4584  0.4410 -0.4429
  805TIP3    H223975   4.525   5.166   6.703 -0.2354 -0.4366  1.0474
  806TIP3   OH223976   2.993   4.643   1.365  0.0105  0.4804  0.2015
  806TIP3    H123977   3.023   4.734   1.359  1.3586 -0.0435 -2.3221
  806TIP3    H223978   2.900   4.647   1.341  0.4734  1.0262 -1.5990
  807TIP3   OH223979   0.740   0.486   6.551  0.1224  0.6158 -0.0412
  807TIP3    H123980   0.761   0.394   6.534 -3.0757  0.1658 -2.5029
  807TIP3    H223981   0.805   0.535   6.501  1.5866 -0.2381  0.9392
  808TIP3   OH223982   4.996   5.802   2.648 -0.5972 -0.3113 -0.4578
  808TIP3    H123983   5.047   5.764   2.719  0.3845  0.2960 -0.8136
  808TIP3    H223984   4.933   5.859   2.691  0.6716  0.8648 -0.0885
  809TIP3   OH223985   4.942   2.608   1.934 -0.3474  0.4862 -0.4403
  809TIP3    H123986   4.861   2.605   1.883  0.1532 -0.8401 -1.1968
  809TIP3    H223987   4.921   2.560   2.014 -0.2755  0.0475 -0.6845
  810TIP3   OH223988   0.026   4.475   0.076 -0.7323 -0.4205 -0.5577
  810TIP3    H123989   0.102   4.529   0.052 -1.0065 -0.1231 -0.7586
  810TIP3    H223990   0.029   4.400   0.016  0.2470 -1.1816  0.3970
  811TIP3   OH223991   1.829   2.106   1.842  0.1377 -0.1173 -0.4606
  811TIP3    H123992   1.767   2.033   1.846  1.4277 -1.3205 -1.4385
  811TIP3    H223993   1.893   2.087   1.911 -0.2331  0.8143  0.1612
  812TIP3   OH223994   2.449   3.026   8.170  0.5794 -0.5777  0.0840
  812TIP3    H123995   2.530   3.056   8.129  0.6048  0.4280  0.8352
  812TIP3    H223996   2.385   3.094   8.149  0.8837  0.6063  2.6454
  813TIP3   OH223997   6.708   3.986   1.639  0.7412  0.7622  0.0883
  813TIP3    H123998   6.669   3.960   1.556 -1.3831 -0.9120  1.4882
  813TIP3    H223999   6.784   4.038   1.615 -0.7066  1.7090 -2.8578
  814TIP3   OH224000   6.359   2.011   0.065  0.9171 -0.0405 -0.5315
  814TIP3    H124001   6.383   2.080   0.127 -2.7306  1.9456 -1.0562
  814TIP3    H224002   6.321   1.942   0.119  0.2854  0.4531 -0.3400
  815TIP3   OH224003   5.835   1.375   0.697  0.1063 -0.3164 -0.5927
  815TIP3    H124004   5.809   1.411   0.782 -2.8748 -1.8104 -0.7333
  815TIP3    H224005   5.911   1.320   0.716  1.6263  1.9796  0.4312
  816TIP3   OH224006   6.131   4.529   6.758  0.1937 -0.2184  0.4837
  816TIP3    H124007   6.212   4.554   6.715 -0.7437  0.2669 -1.0976
  816TIP3    H224008   6.081   4.610   6.764 -1.1560 -0.9091 -0.8074
  817TIP3   OH224009   3.318   6.336   7.575  0.1383 -0.0727  0.2815
  817TIP3    H124010   3.365   6.252   7.577 -1.9594 -1.3455 -0.3687
  817TIP3    H224011   3.324   6.364   7.483 -2.6349 -1.7203 -0.5266
  818TIP3   OH224012   5.883   1.971   2.264  0.1426 -0.0803  0.3696
  818TIP3    H124013   5.796   2.007   2.249 -0.3579 -0.9172  1.1733
  818TIP3    H224014   5.906   2.000   2.352  0.0263 -1.0972  0.7508
  819TIP3   OH224015   2.949   0.269   0.048  0.0935 -0.2173 -0.0273
  819TIP3    H124016   2.908   0.184   0.063  0.7631 -0.5036  0.2206
  819TIP3    H224017   2.910   0.301  -0.034 -0.8809 -0.3136  0.3868
  820TIP3   OH224018   6.213   3.500   2.086  0.0011  0.3072  0.2377
  820TIP3    H124019   6.122   3.478   2.108 -0.0598 -1.0272 -1.2296
  820TIP3    H224020   6.206   3.578   2.031 -0.2936 -0.0046 -0.1732
  821TIP3   OH224021   3.338   1.725   0.802 -0.0713 -0.0835 -0.3415
  821TIP3    H124022   3.312   1.815   0.784 -0.5840 -0.3101 -0.7798
  821TIP3    H224023   3.383   1.729   0.886 -1.5474  0.3330  0.4643
  822TIP3   OH224024   5.104   5.847   8.694 -0.1208  0.1468 -0.0051
  822TIP3    H124025   5.085   5.756   8.670 -1.9128  0.0164  1.6683
  822TIP3    H224026   5.104   5.894   8.610 -1.7123 -0.9944 -0.6914
  823TIP3   OH224027   0.577   5.280   7.742 -0.3466  0.2647  0.8198
  823TIP3    H124028   0.567   5.211   7.807  0.5353 -1.0097 -0.3495
  823TIP3    H224029   0.625   5.349   7.789 -1.3814  0.1988  2.0454
  824TIP3   OH224030   1.317   1.830   0.029  0.0076 -0.5126 -0.3648
  824TIP3    H124031   1.305   1.761   0.094 -0.7939  0.4913  0.6061
  824TIP3    H224032   1.334   1.784  -0.053  1.7923 -1.8197  0.6674
  825TIP3   OH224033   2.693   3.051   1.849  0.1246  0.1024 -0.2830
  825TIP3    H124034   2.613   2.998   1.844  0.3626 -0.1643 -1.2744
  825TIP3    H224035   2.714   3.051   1.943 -0.5040 -0.6165 -0.1232
  826TIP3   OH224036   5.351   6.787   7.548 -0.5800  0.5460  0.1861
  826TIP3    H124037   5.264   6.798   7.510 -0.7443  0.1848  0.4587
  826TIP3    H224038   5.411   6.791   7.473 -1.0115 -1.7997 -0.3343
  827TIP3   OH224039   3.526   2.986   8.292 -0.0501 -0.0304 -0.2610
  827TIP3    H124040   3.455   3.029   8.340  1.1403 -0.1304  1.6979
  827TIP3    H224041   3.587   3.058   8.271  0.0189 -0.1695 -0.5343
  828TIP3   OH224042   5.826   1.260   8.144 -0.2179  0.0980 -0.4201
  828TIP3    H124043   5.893   1.204   8.104  1.5077  1.7760 -0.0008
  828TIP3    H224044   5.841   1.252   8.238 -2.0457 -1.1489 -0.1762
  829TIP3   OH224045   4.591   1.914   2.446 -0.7323 -0.3931 -0.2137
  829TIP3    H124046   4.641   1.851   2.396 -0.4731 -0.6215  0.3252
  829TIP3    H224047   4.566   1.868   2.526 -0.2740  0.2710  0.3294
  830TIP3   OH224048   1.115   4.860   8.151 -0.7003 -0.1186 -0.2375
  830TIP3    H124049   1.184   4.905   8.103 -0.2937  1.0131  1.3279
  830TIP3    H224050   1.034   4.894   8.113 -0.3938  1.3200  0.2944
  831TIP3   OH224051   3.031   3.051   0.384  0.4004 -0.3849  0.1522
  831TIP3    H124052   3.064   3.048   0.294  0.0967 -0.1687  0.0307
  831TIP3    H224053   2.936   3.056   0.375  0.2738 -1.7383  0.5055
  832TIP3   OH224054   4.628   1.938   7.090 -0.0170  0.3857 -0.0345
  832TIP3    H124055   4.649   1.847   7.113 -1.7244 -0.1146 -0.2633
  832TIP3    H224056   4.708   1.972   7.052  0.8645 -0.8241  0.6559
  833TIP3   OH224057   4.441   1.513   7.281  0.1725 -0.3132 -0.1091
  833TIP3    H124058   4.461   1.488   7.372  0.8325  0.8232  0.0640
  833TIP3    H224059   4.524   1.540   7.244  0.2182 -2.2398 -1.5783
  834TIP3   OH224060   0.095   6.713   2.710 -0.2462 -0.4292  0.8548
  834TIP3    H124061   0.075   6.637   2.654 -3.3638 -1.0151  2.5428
  834TIP3    H224062   0.111   6.675   2.796  0.9415  0.6947  1.1488
  835TIP3   OH224063   2.571   4.784   1.637 -0.0537 -0.6034 -0.5729
  835TIP3    H124064   2.617   4.853   1.685  1.3450 -1.6713 -0.3283
  835TIP3    H224065   2.484   4.821   1.620  0.1167  0.6056  0.9491
  836TIP3   OH224066   4.027   1.546   8.215 -0.1054  0.0299  0.0170
  836TIP3    H124067   3.982   1.516   8.135  0.9485  1.4855 -1.1766
  836TIP3    H224068   3.956   1.567   8.275 -0.9530 -0.5035 -0.7647
  837TIP3   OH224069   2.704   4.257   0.754  0.1801 -0.9367  0.0346
  837TIP3    H124070   2.677   4.166   0.760 -0.1477 -0.9848 -1.6721
  837TIP3    H224071   2.776   4.265   0.816  1.1815 -2.7380 -0.8280
  838TIP3   OH224072   1.171   0.901   1.899  0.0279  0.0121 -0.7174
  838TIP3    H124073   1.155   0.927   1.990 -0.9626  0.0831 -0.9087
  838TIP3    H224074   1.249   0.951   1.874 -0.8532  1.5371 -0.5410
  839TIP3   OH224075   3.045   5.508   8.256 -0.8338 -0.0799 -0.0102
  839TIP3    H124076   3.095   5.476   8.330  0.1113  1.9291  0.2976
  839TIP3    H224077   2.956   5.521   8.290 -0.8286 -0.7807  0.2818
  840TIP3   OH224078   1.767   4.451   0.319  0.1034  0.7207  0.2899
  840TIP3    H124079   1.797   4.466   0.230  1.0668 -1.3007  0.2005
  840TIP3    H224080   1.832   4.390   0.355 -2.3133 -1.5413  1.0901
  841TIP3   OH224081   1.996   3.053   1.877  0.4687 -0.3747 -0.2938
  841TIP3    H124082   1.958   3.113   1.941 -0.2906  3.2131 -3.7301
  841TIP3    H224083   2.088   3.080   1.870  0.5545 -0.7484 -0.6867
  842TIP3   OH224084   3.338   1.441   8.434 -0.1338 -0.5144  0.1669
  842TIP3    H124085   3.301   1.411   8.517 -2.1729 -1.7665 -1.0769
  842TIP3    H224086   3.348   1.536   8.445  0.4898 -0.7651  2.1076
  843TIP3   OH224087   1.943   5.868   7.338 -0.3046  0.1167  0.0272
  843TIP3    H124088   2.012   5.900   7.280 -0.3158  1.5730  0.7833
  843TIP3    H224089   1.971   5.779   7.361  1.0531  0.4872 -0.0975
  844TIP3   OH224090   0.176   2.991   0.599 -0.0611  0.5906 -0.7514
  844TIP3    H124091   0.106   3.053   0.621 -0.5978  0.0829 -1.0141
  844TIP3    H224092   0.225   3.035   0.529  0.9818  1.7225  0.6282
  845TIP3   OH224093   3.511   5.208   8.240 -0.7154  0.3044 -0.1178
  845TIP3    H124094   3.552   5.122   8.249  1.7202  1.4785  0.9921
  845TIP3    H224095   3.428   5.200   8.287  0.7453 -0.6921  2.4752
  846TIP3   OH224096   1.698   6.809   7.199  0.0503  0.3466 -0.0983
  846TIP3    H124097   1.745   6.810   7.116 -0.1514 -0.6789 -0.2387
  846TIP3    H224098   1.767   6.799   7.265  0.1753  0.7240 -0.1704
  847TIP3   OH224099   2.161   1.826   1.562 -0.3090 -0.6772  0.1970
  847TIP3    H124100   2.143   1.908   1.515 -0.1490 -0.1069  1.0944
  847TIP3    H224101   2.230   1.784   1.511  1.7100  1.1619  1.2268
  848TIP3   OH224102   6.136   4.395   0.693 -0.0791  0.0264  0.3232
  848TIP3    H124103   6.100   4.454   0.759  1.5555  0.3842  0.9338
  848TIP3    H224104   6.230   4.397   0.708  0.2158 -0.8589 -1.2316
  849TIP3   OH224105   6.091   3.724   0.109 -0.3167  0.1231 -0.7441
  849TIP3    H124106   6.033   3.683   0.044 -0.0981 -0.1956 -0.7394
  849TIP3    H224107   6.066   3.816   0.108 -1.1609 -0.0852 -0.3955
  850TIP3   OH224108   2.970   2.226   8.110  0.5180  0.1010 -0.5337
  850TIP3    H124109   2.960   2.155   8.173  1.2818  0.7282  0.3245
  850TIP3    H224110   2.923   2.197   8.033  0.8414 -1.3577 -0.2052
  851TIP3   OH224111   5.500   6.334   0.904 -0.2429  0.4959  0.7631
  851TIP3    H124112   5.530   6.292   0.823  0.9290  3.4143 -0.4641
  851TIP3    H224113   5.493   6.262   0.967 -1.1122 -1.8967 -1.8464
  852TIP3   OH224114   5.273   0.524   8.119  0.3940 -0.1018  0.3423
  852TIP3    H124115   5.268   0.436   8.082  0.8569 -0.0558  0.1615
  852TIP3    H224116   5.282   0.582   8.043  3.9839 -0.1944  0.5154
  853TIP3   OH224117   4.051   0.145   0.753  0.2172  0.1166  0.2115
  853TIP3    H124118   4.119   0.208   0.774  0.0698  0.2753  0.2132
  853TIP3    H224119   4.091   0.060   0.773  0.5704  0.1797 -0.2151
  854TIP3   OH224120   1.569   6.655   8.231  0.1168 -0.4093  0.5624
  854TIP3    H124121   1.489   6.623   8.274  0.6207  0.5145  2.3001
  854TIP3    H224122   1.613   6.576   8.199 -1.6568 -0.9076 -0.7943
  855TIP3   OH224123   4.816   5.668   0.492  0.4244 -0.2303 -0.0255
  855TIP3    H124124   4.902   5.661   0.535  0.7805  2.5015 -0.1400
  855TIP3    H224125   4.813   5.592   0.434  1.8648 -1.5157  1.4796
  856TIP3   OH224126   5.440   1.389   8.496  0.3657  0.6142 -0.1774
  856TIP3    H124127   5.446   1.441   8.415  1.1897 -0.5674 -0.8947
  856TIP3    H224128   5.527   1.351   8.507 -0.1142 -0.3035  0.5460
  857TIP3   OH224129   2.081   4.623   0.459  0.2055  0.0580  0.2164
  857TIP3    H124130   2.173   4.603   0.473 -0.1016 -1.8735 -0.1667
  857TIP3    H224131   2.080   4.690   0.391  1.3059 -1.5518 -1.4771
  858TIP3   OH224132   0.300   1.029   8.190 -0.0793  0.7827  0.0428
  858TIP3    H124133   0.204   1.035   8.198 -0.3455 -1.6267 -0.4568
  858TIP3    H224134   0.327   0.985   8.270  0.2243 -1.0503 -1.0083
  859TIP3   OH224135   3.043   5.209   0.979 -0.2368  0.0929  0.0554
  859TIP3    H124136   3.065   5.293   1.020 -1.1790 -0.5656  2.0655
  859TIP3    H224137   2.995   5.233   0.900  2.3875  1.4373 -1.2410
  860TIP3   OH224138   3.588   4.815   1.213  0.6887 -0.7516 -0.0881
  860TIP3    H124139   3.528   4.749   1.182 -0.2423 -1.3390  2.6684
  860TIP3    H224140   3.614   4.785   1.301  4.0957  0.0787 -0.6531
  861TIP3   OH224141   0.044   6.339   0.053 -0.1209  0.2125  0.3435
  861TIP3    H124142   0.107   6.340  -0.019 -0.2031  1.0763  0.2754
  861TIP3    H224143  -0.000   6.255   0.045  2.9632 -1.7599  2.1011
  862TIP3   OH224144   1.407   0.919   7.525  0.3496 -0.5944  0.2346
  862TIP3    H124145   1.360   0.949   7.603 -2.0563 -0.9115 -0.9863
  862TIP3    H224146   1.391   0.987   7.460  0.8886 -1.1231 -0.4568
  863TIP3   OH224147   1.263   6.867   8.287  0.0486 -0.2564 -0.0283
  863TIP3    H124148   1.353   6.839   8.307  0.4815  0.5227 -0.8277
  863TIP3    H224149   1.214   6.847   8.366  0.7437 -1.4919  0.1201
  864TIP3   OH224150   4.354   5.655   1.381 -0.0958 -0.1460 -0.1068
  864TIP3    H124151   4.266   5.653   1.343 -0.2675 -2.3446  0.2752
  864TIP3    H224152   4.371   5.564   1.407  2.5382  0.0851 -0.7369
  865TIP3   OH224153   1.748   5.711   2.322 -0.1074  0.3609  0.3556
  865TIP3    H124154   1.720   5.660   2.246  1.1171  1.0738 -0.6158
  865TIP3    H224155   1.683   5.691   2.390 -1.4363 -0.0047 -0.9739
  866TIP3   OH224156   2.078   1.666   2.041  0.1719  0.1675 -0.2666
  866TIP3    H124157   2.101   1.669   1.948  1.1800 -1.6198 -0.1165
  866TIP3    H224158   2.154   1.626   2.084 -0.2355  1.0514  1.3557
  867TIP3   OH224159   4.726   4.920   1.406  0.9797  0.3302  0.5529
  867TIP3    H124160   4.652   4.969   1.441  0.2629 -0.9109  0.8502
  867TIP3    H224161   4.751   4.860   1.477  0.8573 -0.7671 -0.3141
  868TIP3   OH224162   0.130   2.623   0.482  0.4729  0.0280 -0.1645
  868TIP3    H124163   0.035   2.622   0.483  0.4078  1.5153  2.1234
  868TIP3    H224164   0.153   2.600   0.392 -2.0686  0.9035 -1.1328
  869TIP3   OH224165   2.766   0.279   2.064  0.1534  0.7674  0.2459
  869TIP3    H124166   2.795   0.293   2.154 -0.2236 -0.5975  0.6086
  869TIP3    H224167   2.846   0.260   2.016  0.2092 -0.0041  0.6222
  870TIP3   OH224168   6.200   2.547   8.012  0.3379  0.2250  0.3705
  870TIP3    H124169   6.243   2.559   7.927  0.4918 -1.0367  0.2412
  870TIP3    H224170   6.266   2.575   8.076 -0.0634  1.9225  0.0690
  871TIP3   OH224171   1.648   1.848   0.550  0.4514 -0.2628  0.2696
  871TIP3    H124172   1.680   1.837   0.460 -1.5660  1.8684 -0.8361
  871TIP3    H224173   1.711   1.908   0.590  0.6562 -0.1675 -0.1880
  872TIP3   OH224174   0.262   0.180   7.771  0.1483 -0.2139 -0.7398
  872TIP3    H124175   0.307   0.147   7.694 -0.0553 -0.9195 -0.5639
  872TIP3    H224176   0.198   0.112   7.793  1.0109 -0.6062  0.7614
  873TIP3   OH224177   5.126   0.341   7.632 -0.2606  0.0816 -0.0817
  873TIP3    H124178   5.202   0.342   7.574 -0.8975  0.3039 -0.9462
  873TIP3    H224179   5.100   0.248   7.636 -0.0993  0.0404 -0.0004
  874TIP3   OH224180   4.480   3.914   0.139  0.1460 -0.6135  0.2908
  874TIP3    H124181   4.533   3.973   0.086 -0.6519 -1.2288 -1.2556
  874TIP3    H224182   4.531   3.901   0.219  0.2291  2.3188  0.8055
  875TIP3   OH224183   6.537   0.752   8.523 -0.3072  0.5038  0.1993
  875TIP3    H124184   6.551   0.723   8.614  0.4493  2.1532  0.6315
  875TIP3    H224185   6.513   0.671   8.477  0.2225 -0.5448  1.6557
  876TIP3   OH224186   6.227   5.632   1.488  0.3558 -0.0057  0.3498
  876TIP3    H124187   6.161   5.599   1.427  0.8505 -1.8260  0.7341
  876TIP3    H224188   6.181   5.698   1.539 -0.7976 -0.3138 -0.2488
  877TIP3   OH224189   3.894   3.582   0.570  0.3656 -0.0703 -0.1528
  877TIP3    H124190   3.901   3.499   0.524  2.4608 -0.1149  0.1438
  877TIP3    H224191   3.967   3.634   0.537 -0.4126  1.3654  0.2687
  878TIP3   OH224192   2.440   5.360   0.708 -0.2762  0.1157 -0.2128
  878TIP3    H124193   2.354   5.382   0.674 -1.1758 -0.6393  1.4324
  878TIP3    H224194   2.431   5.270   0.739  0.4904  0.6724  1.7982
  879TIP3   OH224195   1.791   3.117   1.435 -0.8700  0.4080  0.2247
  879TIP3    H124196   1.842   3.063   1.374 -0.6645  1.7766 -0.8610
  879TIP3    H224197   1.757   3.055   1.498 -0.7604 -1.0246 -1.0586
  880TIP3   OH224198   6.103   6.479   2.200  0.0176 -0.0978  0.6697
  880TIP3    H124199   6.136   6.392   2.221 -0.0444 -0.8524 -2.0514
  880TIP3    H224200   6.008   6.473   2.214  0.2628  0.3477  2.8878
  881TIP3   OH224201   2.809   3.867   1.074  0.1677 -0.0188 -0.4431
  881TIP3    H124202   2.863   3.869   1.153 -0.7283 -1.6362  0.2651
  881TIP3    H224203   2.871   3.848   1.004  0.7646 -0.1891  0.1140
  882TIP3   OH224204   2.866   4.169   2.053 -0.0476 -0.2330  0.4142
  882TIP3    H124205   2.812   4.105   2.099  1.0505 -2.9555 -1.8145
  882TIP3    H224206   2.916   4.212   2.122 -0.5868 -2.0473  2.0193
  883TIP3   OH224207   6.659   5.374   8.231 -0.2599  0.0440 -0.5779
  883TIP3    H124208   6.664   5.392   8.325 -1.1646 -0.0066 -0.5144
  883TIP3    H224209   6.715   5.297   8.219 -0.4179 -0.1674 -0.0187
  884TIP3   OH224210   6.221   5.711   8.559 -0.0203 -0.0154 -0.2403
  884TIP3    H124211   6.233   5.789   8.614 -0.7430 -1.1038  1.5384
  884TIP3    H224212   6.136   5.725   8.518  0.6514  0.9389 -1.3649
  885TIP3   OH224213   3.288   4.038   1.451 -0.3213 -0.1340 -0.2929
  885TIP3    H124214   3.275   3.944   1.464  0.1214 -0.4990 -2.2016
  885TIP3    H224215   3.381   4.048   1.435 -0.4618  0.5562 -0.7278
  886TIP3   OH224216   6.585   4.624   1.078  0.6995 -0.0939  0.2380
  886TIP3    H124217   6.671   4.618   1.037 -0.1449 -0.1171 -1.6399
  886TIP3    H224218   6.523   4.608   1.006 -0.8586 -2.1955  1.8908
  887TIP3   OH224219   1.656   4.221   7.811 -0.2794  0.8412  0.2074
  887TIP3    H124220   1.708   4.239   7.889  0.3775  1.3687 -0.3352
  887TIP3    H224221   1.645   4.307   7.769 -0.4183  0.5349 -0.4019
  888TIP3   OH224222   0.227   5.289   1.935 -0.5092 -0.3985 -0.2252
  888TIP3    H124223   0.314   5.325   1.954 -0.4578 -0.9608  0.6354
  888TIP3    H224224   0.199   5.249   2.017 -0.2388 -2.9798 -1.2770
  889TIP3   OH224225   5.415   1.185   7.658 -0.2880  0.7053  0.2155
  889TIP3    H124226   5.502   1.181   7.699 -0.4056  0.3899  0.4332
  889TIP3    H224227   5.364   1.241   7.715  0.0363  1.6697 -0.4093
  890TIP3   OH224228   6.025   4.685   8.063  0.2665  0.1550 -0.2676
  890TIP3    H124229   5.986   4.618   8.007  0.5406  0.9064 -1.3934
  890TIP3    H224230   6.119   4.675   8.051  0.3790 -0.3239  0.8614
  891TIP3   OH224231   2.255   1.120   1.428 -0.0754 -0.2622  0.1838
  891TIP3    H124232   2.292   1.171   1.500  1.9928  0.0383 -1.0122
  891TIP3    H224233   2.263   1.029   1.455 -0.9426 -0.1042  1.0323
  892TIP3   OH224234   6.034   0.032   2.457 -0.4348 -0.3666  0.0012
  892TIP3    H124235   6.103   0.057   2.395 -0.6780 -0.6479 -0.3877
  892TIP3    H224236   5.982   0.112   2.468 -1.4912 -0.7889 -1.6042
  893TIP3   OH224237   2.329   4.321   8.383  0.1034  0.2578  0.4507
  893TIP3    H124238   2.294   4.346   8.468 -0.6555 -0.3530  0.3285
  893TIP3    H224239   2.258   4.272   8.341  1.2687 -1.5563  0.4549
  894TIP3   OH224240   5.660   4.064   0.986  0.8886  0.0346  0.4523
  894TIP3    H124241   5.685   4.156   0.995 -0.7999  0.4406  1.6852
  894TIP3    H224242   5.742   4.016   0.987  2.0170  1.6232 -2.6864
  895TIP3   OH224243   3.236   0.127   7.893  0.1446 -0.0663 -0.0058
  895TIP3    H124244   3.151   0.116   7.936  0.4707 -1.0333  0.4171
  895TIP3    H224245   3.227   0.086   7.808 -0.1142  0.7362 -0.3757
  896TIP3   OH224246   4.919   3.224   7.584  0.3571  0.3022 -0.0293
  896TIP3    H124247   5.000   3.189   7.547  0.6725  1.0372 -0.0507
  896TIP3    H224248   4.933   3.221   7.679  0.0420 -0.4219 -0.0017
  897TIP3   OH224249   6.527   4.500   8.642 -0.2434 -0.7931 -0.1406
  897TIP3    H124250   6.466   4.429   8.620 -2.3048 -0.2965  3.2835
  897TIP3    H224251   6.483   4.580   8.614 -0.4090 -0.5386  0.8193
  898TIP3   OH224252   5.655   5.246   1.182  0.0420 -0.0690 -0.0290
  898TIP3    H124253   5.606   5.169   1.155 -0.0643 -0.6577  1.6871
  898TIP3    H224254   5.592   5.318   1.178  0.3136  0.1077 -2.2716
  899TIP3   OH224255   1.144   4.096   2.401 -0.2174 -0.3189 -0.4381
  899TIP3    H124256   1.099   4.042   2.337  0.5140  2.7350 -3.8880
  899TIP3    H224257   1.075   4.147   2.444 -0.5144  0.1201 -1.4208
  900TIP3   OH224258   2.326   6.221   8.568  0.5043  0.5805 -0.2714
  900TIP3    H124259   2.251   6.254   8.518 -0.3553 -0.9121 -0.0325
  900TIP3    H224260   2.401   6.236   8.510 -0.0772  1.3620 -0.8560
  901TIP3   OH224261   2.152   4.342   7.490  0.9294  0.4428  0.2240
  901TIP3    H124262   2.116   4.291   7.418  0.6394  1.7841 -0.6180
  901TIP3    H224263   2.169   4.278   7.559 -2.6788 -0.3738  0.5568
  902TIP3   OH224264   0.913   0.537   1.791 -0.1432 -0.1085  0.1119
  902TIP3    H124265   0.864   0.599   1.738  0.0929  0.7360  0.8705
  902TIP3    H224266   0.850   0.502   1.853 -0.0261  0.2207  0.4211
  903TIP3   OH224267   3.217   6.828   1.699 -0.0078  0.0097  0.6070
  903TIP3    H124268   3.206   6.780   1.617 -2.1167  0.5099  0.5444
  903TIP3    H224269   3.153   6.898   1.695  0.5158  0.6435  2.2750
  904TIP3   OH224270   1.080   4.287   2.140  0.1742  0.1317 -0.3292
  904TIP3    H124271   1.043   4.234   2.069 -1.0558 -2.4041  1.9807
  904TIP3    H224272   1.020   4.361   2.148 -0.4966 -0.3137 -1.0361
  905TIP3   OH224273   5.575   4.644   8.205  0.1913  0.1437 -0.2102
  905TIP3    H124274   5.663   4.625   8.172  0.2825  1.0708 -0.5162
  905TIP3    H224275   5.532   4.690   8.133 -0.0078  1.1310  0.5294
  906TIP3   OH224276   3.394   1.257   8.140  0.1509 -0.0475 -0.4049
  906TIP3    H124277   3.362   1.211   8.218  1.5625  1.8334  1.3871
  906TIP3    H224278   3.413   1.346   8.170  2.0544  0.3814 -2.5647
  907TIP3   OH224279   5.917   3.002   8.485 -0.1886  0.4310  0.1020
  907TIP3    H124280   5.824   2.983   8.498 -1.1242  3.0100 -1.8926
  907TIP3    H224281   5.963   2.931   8.530 -3.1210 -2.1553 -0.6408
  908TIP3   OH224282   3.790   0.108   8.139  0.3925 -0.2773 -0.1880
  908TIP3    H124283   3.816   0.200   8.144 -1.0601  0.1103  3.4920
  908TIP3    H224284   3.873   0.060   8.144  1.0601  0.8771  0.3097
  909TIP3   OH224285   0.476   5.384   1.996  0.2864 -0.1187 -0.0902
  909TIP3    H124286   0.522   5.467   1.982  0.8245 -0.3385  0.3464
  909TIP3    H224287   0.543   5.317   1.986  0.0462 -0.4475  0.4639
  910TIP3   OH224288   2.484   0.984   7.275  0.3336 -0.3673 -0.8533
  910TIP3    H124289   2.578   1.001   7.282  0.5557 -0.9357 -2.1677
  910TIP3    H224290   2.451   1.055   7.220 -0.3951  0.9552  1.1613
  911TIP3   OH224291   1.246   6.295   8.347 -0.2207 -0.1645  0.6273
  911TIP3    H124292   1.204   6.369   8.303  0.1254 -1.8516 -2.8388
  911TIP3    H224293   1.173   6.249   8.389 -0.3710  2.3151  3.4055
  912TIP3   OH224294   5.228   0.488   1.274 -0.0832  0.0753  0.7564
  912TIP3    H124295   5.184   0.448   1.349  0.2142 -1.7177  0.0271
  912TIP3    H224296   5.194   0.577   1.270 -0.4710  0.0469  2.7114
  913TIP3   OH224297   0.053   0.272   1.003 -0.0023 -0.4947  0.2892
  913TIP3    H124298   0.144   0.268   1.032 -0.2388 -2.7435  0.8430
  913TIP3    H224299   0.058   0.284   0.908  0.8600 -0.9312  0.2794
  914TIP3   OH224300   4.796   2.522   0.975 -0.2882  0.4518 -0.4073
  914TIP3    H124301   4.745   2.452   1.017  0.3627  1.0026  1.4347
  914TIP3    H224302   4.742   2.600   0.983  1.1979  1.3346  2.7598
  915TIP3   OH224303   4.086   5.281   1.499 -0.4432 -0.0476 -0.4753
  915TIP3    H124304   4.078   5.285   1.404 -0.2402 -0.4221 -0.5142
  915TIP3    H224305   4.170   5.323   1.518 -1.2886  1.6211 -0.2947
  916TIP3   OH224306   2.246   4.916   7.479  0.3486  0.2467 -0.6027
  916TIP3    H124307   2.224   4.932   7.571 -0.2668  0.1921 -0.7351
  916TIP3    H224308   2.253   4.821   7.472 -0.4322  0.1934 -0.7852
  917TIP3   OH224309   4.027   1.860   1.482 -0.2236  0.0982  0.0558
  917TIP3    H124310   3.973   1.810   1.422  0.4420 -1.4423  0.6814
  917TIP3    H224311   3.983   1.852   1.567 -0.2431  0.7915  0.1170
  918TIP3   OH224312   1.025   6.789   7.541 -0.0204  0.0750  0.1734
  918TIP3    H124313   1.072   6.775   7.459 -0.6868  2.9127 -0.7844
  918TIP3    H224314   1.094   6.790   7.608  0.8375  0.2209 -0.6824
  919TIP3   OH224315   6.740   3.746   7.065 -0.0277  0.0318  0.7476
  919TIP3    H124316   6.729   3.651   7.055 -0.4451  0.0185  1.2425
  919TIP3    H224317   6.685   3.783   6.997  1.0853 -0.0800 -0.2475
  920TIP3   OH224318   4.867   2.603   7.691 -0.1276 -0.4461 -0.2001
  920TIP3    H124319   4.840   2.576   7.603 -1.5897  0.4571 -0.0567
  920TIP3    H224320   4.952   2.561   7.704 -1.3734 -3.3951 -0.7321
  921TIP3   OH224321   2.173   4.934   8.516  0.2018 -0.6840  0.2879
  921TIP3    H124322   2.261   4.896   8.517  0.1965 -0.7049  0.0247
  921TIP3    H224323   2.181   5.010   8.459  0.5176  0.4555  1.7701
  922TIP3   OH224324   6.383   4.039   7.904  0.1857  0.9949 -0.1351
  922TIP3    H124325   6.454   3.974   7.904  1.1454  1.9961 -0.5604
  922TIP3    H224326   6.307   3.993   7.869 -0.5020 -1.2146  3.7269
  923TIP3   OH224327   6.832   4.211   1.220  0.3850 -0.0295 -0.6107
  923TIP3    H124328   6.810   4.118   1.216  1.4087 -0.3182  0.1029
  923TIP3    H224329   6.922   4.216   1.188 -0.2841  0.9822 -2.4827
  924TIP3   OH224330   0.355   6.824   0.913  0.0813  0.2415 -0.4457
  924TIP3    H124331   0.420   6.892   0.901  0.9291 -0.6884 -1.3203
  924TIP3    H224332   0.404   6.749   0.946 -0.6899 -0.2146 -0.2918
  925TIP3   OH224333   2.229   2.256   7.549 -0.3875  0.1773  0.4865
  925TIP3    H124334   2.166   2.315   7.590  0.0023  2.2670 -1.6871
  925TIP3    H224335   2.314   2.296   7.565  0.0107 -0.4650  0.0270
  926TIP3   OH224336   3.718   3.954   0.793 -0.4959  0.5457 -0.5378
  926TIP3    H124337   3.776   3.878   0.783  0.2237  0.7514  1.6088
  926TIP3    H224338   3.764   4.025   0.749  1.4222  0.9156  1.8459
  927TIP3   OH224339   4.350   6.489   8.559 -0.5500  0.4296  0.0000
  927TIP3    H124340   4.369   6.580   8.584  0.7134  0.2481 -0.2369
  927TIP3    H224341   4.406   6.436   8.616  0.0788 -0.1088 -1.0706
  928TIP3   OH224342   5.993   3.806   7.307 -0.5135 -0.2924  0.1009
  928TIP3    H124343   5.955   3.719   7.294 -1.4482 -0.0775  1.1888
  928TIP3    H224344   6.023   3.806   7.398  1.3172 -0.1272 -0.4626
  929TIP3   OH224345   2.149   2.588   7.338 -0.2972  0.1400  0.2992
  929TIP3    H124346   2.166   2.578   7.244 -0.2143 -0.6487  0.3923
  929TIP3    H224347   2.140   2.498   7.371  1.1338  0.3249  1.3141
  930TIP3   OH224348   4.238   3.771   1.556  0.5618  0.2103  0.2340
  930TIP3    H124349   4.327   3.806   1.561  0.5625  0.4369 -1.0689
  930TIP3    H224350   4.249   3.683   1.522  0.4368 -0.5928  2.1432
  931TIP3   OH224351   0.675   4.589   6.992 -1.0840  0.3476 -0.2059
  931TIP3    H124352   0.618   4.533   7.045 -0.6836  1.0049  0.9440
  931TIP3    H224353   0.616   4.649   6.947 -1.3931  0.1022 -0.1286
  932TIP3   OH224354   5.698   5.230   1.491  0.8416 -0.1037 -0.0833
  932TIP3    H124355   5.752   5.180   1.430  0.2853 -0.9695  0.1106
  932TIP3    H224356   5.689   5.173   1.568  1.9183  1.1502  1.0342
  933TIP3   OH224357   2.116   2.141   6.359 -0.2614 -0.6234 -0.2122
  933TIP3    H124358   2.094   2.170   6.447  0.9670 -0.5082  0.0718
  933TIP3    H224359   2.196   2.188   6.337  0.2096 -1.6696 -0.8494
  934TIP3   OH224360   3.438   6.327   0.038  0.2334 -0.1764 -0.3520
  934TIP3    H124361   3.512   6.326  -0.023  1.5557  2.4054  1.0507
  934TIP3    H224362   3.372   6.383  -0.003  0.6054  0.5248 -0.0157
  935TIP3   OH224363   2.721   4.370   2.878 -0.1108  0.4075  0.0904
  935TIP3    H124364   2.673   4.289   2.895  0.9945 -0.1494  0.7066
  935TIP3    H224365   2.738   4.406   2.965  0.4557  0.6672 -0.1234
  936TIP3   OH224366   0.232   0.483   2.005  0.4731  0.1047  0.5159
  936TIP3    H124367   0.140   0.461   2.018  0.7966 -1.3369  0.4886
  936TIP3    H224368   0.265   0.500   2.094 -0.0695  1.8266  0.4324
  937TIP3   OH224369   1.086   3.738   0.078 -0.1582  0.0282 -0.3774
  937TIP3    H124370   1.131   3.800   0.020 -0.0481 -0.9205 -1.3340
  937TIP3    H224371   1.114   3.652   0.047 -1.4643 -0.5414 -0.0276
  938TIP3   OH224372   5.582   0.973   2.118 -0.1348 -0.1195 -0.2416
  938TIP3    H124373   5.549   0.887   2.141 -0.2606 -0.4759 -1.6435
  938TIP3    H224374   5.675   0.959   2.098 -0.5501 -0.3443 -2.2845
  939TIP3   OH224375   0.462   1.391   7.639  0.2781  0.2384  0.0848
  939TIP3    H124376   0.520   1.468   7.642  1.0120 -0.1977 -1.5394
  939TIP3    H224377   0.429   1.390   7.550 -0.1903 -1.0003  0.2545
  940TIP3   OH224378   0.470   1.127   2.647 -0.3814  0.3000  0.0862
  940TIP3    H124379   0.375   1.120   2.646 -0.5241  1.8955 -1.0779
  940TIP3    H224380   0.501   1.037   2.638 -1.7794 -0.1295 -0.7451
  941TIP3   OH224381   0.295   6.272   2.566 -0.5579  0.0409 -0.3503
  941TIP3    H124382   0.290   6.363   2.539 -1.7167 -0.3275 -1.4750
  941TIP3    H224383   0.205   6.246   2.584 -0.1191 -0.5588  1.1537
  942TIP3   OH224384   6.170   0.974   0.794  0.3202 -0.2246  0.2878
  942TIP3    H124385   6.240   0.917   0.827 -0.5790 -0.3065  2.2157
  942TIP3    H224386   6.131   0.925   0.722 -0.7003 -2.3359  2.1367
  943TIP3   OH224387   1.972   6.630   7.715  0.1177  0.1156 -0.0836
  943TIP3    H124388   1.983   6.599   7.625 -1.1829 -1.4857  0.2551
  943TIP3    H224389   2.061   6.649   7.745  0.6413 -0.0620 -1.4564
  944TIP3   OH224390   4.140   0.672   0.263 -0.2274  0.4329 -0.5361
  944TIP3    H124391   4.089   0.698   0.340  0.7617  0.0418  0.2614
  944TIP3    H224392   4.106   0.585   0.240  0.2047  0.0923  0.1045
  945TIP3   OH224393   5.355   4.767   0.862  0.0909 -0.6700  0.0750
  945TIP3    H124394   5.319   4.846   0.821  0.4108 -0.1330  0.8099
  945TIP3    H224395   5.347   4.700   0.795 -2.4542 -0.6404  0.2624
  946TIP3   OH224396   4.088   4.780   8.011  0.2559 -0.0569 -0.3415
  946TIP3    H124397   4.123   4.739   8.090 -2.1403 -2.1134 -0.2228
  946TIP3    H224398   4.012   4.829   8.041 -0.4788 -0.5748 -1.2829
  947TIP3   OH224399   0.884   1.980   0.468 -0.1780  0.7535  0.2913
  947TIP3    H124400   0.881   1.990   0.373 -0.0008  1.5396  0.3652
  947TIP3    H224401   0.799   2.013   0.498  0.0324  1.1595  0.4557
  948TIP3   OH224402   4.881   2.660   0.454  0.4501  0.8010 -0.2787
  948TIP3    H124403   4.903   2.703   0.536  1.3839  0.6529 -0.4488
  948TIP3    H224404   4.805   2.708   0.422  2.0801  3.0370 -0.9987
  949TIP3   OH224405   2.985   5.339   6.787  0.2529  0.5266  0.5212
  949TIP3    H124406   2.915   5.276   6.808  0.4389 -0.5741 -1.7921
  949TIP3    H224407   3.011   5.375   6.872 -1.6140 -0.6477  1.6786
  950TIP3   OH224408   4.531   4.152   0.447 -0.1162  0.9040  0.4290
  950TIP3    H124409   4.527   4.142   0.542  0.0027  0.0386  0.3487
  950TIP3    H224410   4.572   4.238   0.434 -1.2444  1.5678  1.1485
  951TIP3   OH224411   5.692   4.870   8.324 -0.8872 -0.0456 -0.4308
  951TIP3    H124412   5.727   4.859   8.413 -1.3732 -2.6795 -0.4759
  951TIP3    H224413   5.637   4.792   8.310 -0.0983 -0.1994 -3.3666
  952TIP3   OH224414   0.955   5.902   7.455 -0.3959 -0.4157  0.2572
  952TIP3    H124415   1.016   5.957   7.504 -0.4428  0.2496 -0.4131
  952TIP3    H224416   1.012   5.840   7.408 -0.1087  0.9514 -1.2959
  953TIP3   OH224417   1.044   1.307   8.347 -0.1021 -0.2276  0.4003
  953TIP3    H124418   0.988   1.232   8.369 -0.5341 -0.4569 -1.3579
  953TIP3    H224419   1.066   1.345   8.432  0.1313 -2.3236  1.3591
  954TIP3   OH224420   1.245   4.929   0.572 -0.4973  0.1682  0.1436
  954TIP3    H124421   1.257   5.024   0.570  0.1681  0.0736 -1.1184
  954TIP3    H224422   1.304   4.899   0.642  0.0853  0.5904 -0.1550
  955TIP3   OH224423   0.837   3.546   0.813  0.5874 -0.1538  0.2464
  955TIP3    H124424   0.875   3.627   0.779 -0.1999  0.0717 -0.1206
  955TIP3    H224425   0.766   3.526   0.752 -0.1261 -0.3635  1.1290
  956TIP3   OH224426   2.315   0.105   0.351 -0.1651  0.6931 -0.0319
  956TIP3    H124427   2.377   0.095   0.278  0.4570 -1.1253  0.6829
  956TIP3    H224428   2.365   0.079   0.429 -1.9468 -1.4751  0.5008
  957TIP3   OH224429   1.586   4.040   2.977 -0.6695  0.4711  0.2735
  957TIP3    H124430   1.499   4.073   2.958 -0.2543  1.0140 -0.7337
  957TIP3    H224431   1.638   4.118   2.996 -0.5618  0.1030  1.6270
  958TIP3   OH224432   3.252   1.979   0.990 -0.7656 -0.3476 -0.3468
  958TIP3    H124433   3.340   2.006   0.966 -1.1363  0.2465 -1.0951
  958TIP3    H224434   3.209   2.059   1.019 -1.0928 -0.6066 -0.1132
  959TIP3   OH224435   6.781   2.617   8.236  0.1058  0.1461  0.7236
  959TIP3    H124436   6.809   2.555   8.303  1.4185 -1.0580 -0.8411
  959TIP3    H224437   6.788   2.568   8.154 -2.2969  1.2595 -0.2523
  960TIP3   OH224438   2.457   0.705   0.248  0.3320 -0.1205 -0.5654
  960TIP3    H124439   2.500   0.735   0.329 -0.9403  1.0993 -0.2931
  960TIP3    H224440   2.376   0.756   0.244 -0.0865 -0.8471 -2.1357
  961TIP3   OH224441   1.520   2.785   1.804 -0.0688  0.2656  0.3764
  961TIP3    H124442   1.601   2.809   1.760  0.3640  1.3012  1.6768
  961TIP3    H224443   1.516   2.689   1.796  1.0914  0.2338 -0.0137
  962TIP3   OH224444   3.660   1.505   7.614  0.7386  0.2566 -0.4123
  962TIP3    H124445   3.640   1.412   7.630 -0.7584  0.2514 -2.0628
  962TIP3    H224446   3.755   1.511   7.629  1.1561 -1.8763 -1.6454
  963TIP3   OH224447   4.304   5.674   8.614  0.4235 -0.6145  0.0067
  963TIP3    H124448   4.392   5.636   8.617  0.2209 -1.0990  3.2261
  963TIP3    H224449   4.319   5.768   8.602  1.3981 -0.6625  0.7347
  964TIP3   OH224450   3.132   2.844   0.536  0.3597 -0.4514  0.5962
  964TIP3    H124451   3.093   2.901   0.471 -0.6220 -0.7300  0.9198
  964TIP3    H224452   3.065   2.834   0.603  0.7381 -1.4727  0.8554
  965TIP3   OH224453   5.377   4.093   0.311  0.6218  0.0661  0.1830
  965TIP3    H124454   5.336   4.179   0.318  0.6883  0.0721  0.4784
  965TIP3    H224455   5.387   4.080   0.216  1.7957  0.9430  0.1625
  966TIP3   OH224456   6.743   1.382   8.649  0.5978 -0.2855 -0.9115
  966TIP3    H124457   6.787   1.322   8.708  2.4036 -0.1264 -2.0307
  966TIP3    H224458   6.808   1.404   8.583 -0.8669  0.7504 -2.1001
  967TIP3   OH224459   1.820   1.557   1.956  0.4058  0.3298 -0.1916
  967TIP3    H124460   1.761   1.611   2.009 -0.9878  0.1693 -1.5370
  967TIP3    H224461   1.908   1.581   1.987 -0.2887  1.4711  1.0057
  968TIP3   OH224462   2.451   4.152   0.052 -0.3738 -0.1014 -0.1248
  968TIP3    H124463   2.535   4.197   0.058 -0.0461 -0.5068 -1.4473
  968TIP3    H224464   2.464   4.084  -0.013 -1.9698  0.3993 -1.0336
  969TIP3   OH224465   0.319   6.837   0.479 -0.5577 -0.0970  0.7407
  969TIP3    H124466   0.369   6.917   0.495  0.1022 -0.4376  0.4010
  969TIP3    H224467   0.380   6.766   0.499 -0.3723 -0.5358 -1.1442
  970TIP3   OH224468   3.354   0.642   0.775 -0.4063 -0.1278  0.2171
  970TIP3    H124469   3.435   0.611   0.734 -1.2971 -2.3923 -0.0229
  970TIP3    H224470   3.352   0.599   0.860 -1.7048 -0.7708 -0.1045
  971TIP3   OH224471   3.633   2.701   7.991  0.3250 -0.3961 -0.0424
  971TIP3    H124472   3.613   2.687   8.083 -0.3731 -0.8928 -0.2613
  971TIP3    H224473   3.620   2.615   7.950  0.2877 -0.1060 -0.6556
  972TIP3   OH224474   1.445   2.218   7.524  0.7372 -0.0578  0.0281
  972TIP3    H124475   1.436   2.279   7.596  0.3199 -0.6289  0.4635
  972TIP3    H224476   1.413   2.134   7.558  3.3651 -1.1065  0.1915
  973TIP3   OH224477   4.317   5.657   2.033 -0.3246 -0.3134  0.3880
  973TIP3    H124478   4.327   5.594   1.962 -2.1268 -0.2241  0.0203
  973TIP3    H224479   4.391   5.716   2.023  0.9134 -1.8240  0.2065
  974TIP3   OH224480   3.552   5.253   7.545  0.4867  0.0691  0.3359
  974TIP3    H124481   3.495   5.313   7.594 -0.1671 -1.4325  1.5197
  974TIP3    H224482   3.640   5.270   7.579  0.3606  0.5386  0.4425
  975TIP3   OH224483   5.232   6.044   0.888  0.0835 -0.0987  0.2728
  975TIP3    H124484   5.150   6.002   0.865 -0.0112 -0.0880  0.6007
  975TIP3    H224485   5.207   6.133   0.914 -0.0973 -0.8186  2.8020
  976TIP3   OH224486   0.701   0.256   1.684 -0.0154 -0.1150 -0.1337
  976TIP3    H124487   0.712   0.166   1.654  2.7063 -0.2687  1.0425
  976TIP3    H224488   0.694   0.249   1.779 -1.4063  0.8265 -0.1491
  977TIP3   OH224489   5.746   1.369   0.379  0.7259 -0.0510  0.2049
  977TIP3    H124490   5.832   1.394   0.344  1.0635 -0.8183  0.4619
  977TIP3    H224491   5.684   1.424   0.331  1.3421  0.3833 -0.1157
  978TIP3   OH224492   6.222   3.215   0.817  0.2317  0.3614 -0.2400
  978TIP3    H124493   6.317   3.224   0.818  0.3709 -0.4484 -1.8792
  978TIP3    H224494   6.198   3.227   0.725 -1.4537  2.1594  0.3393
  979TIP3   OH224495   6.599   2.630   7.762 -0.4253 -0.1053  0.4197
  979TIP3    H124496   6.641   2.711   7.793 -0.1475  0.2189 -0.7825
  979TIP3    H224497   6.507   2.654   7.751 -0.8668 -0.6419  2.4194
  980TIP3   OH224498   3.404   1.400   2.783  0.3718 -0.0183  0.0055
  980TIP3    H124499   3.451   1.358   2.711 -1.8896 -0.3320 -1.3596
  980TIP3    H224500   3.415   1.494   2.766 -1.5556 -0.0621 -1.8028
  981TIP3   OH224501   5.134   3.221   6.990  0.0849 -0.1971  0.1785
  981TIP3    H124502   5.074   3.217   6.915 -0.8460  2.1412  0.7189
  981TIP3    H224503   5.221   3.210   6.950 -0.0519  4.1373 -1.9091
  982TIP3   OH224504   4.676   2.163   6.712  0.4866 -0.2058 -0.2466
  982TIP3    H124505   4.647   2.094   6.652 -2.6376  2.2917 -1.9477
  982TIP3    H224506   4.703   2.235   6.654 -1.1340  1.7322  1.2513
  983TIP3   OH224507   3.074   4.360   8.354  0.5408  0.5010 -0.9732
  983TIP3    H124508   3.003   4.304   8.323 -0.0056  1.1523 -0.9420
  983TIP3    H224509   3.133   4.302   8.402 -0.5407  0.1317 -0.0549
  984TIP3   OH224510   1.674   3.275   8.635  0.0197 -0.1669 -0.6227
  984TIP3    H124511   1.658   3.234   8.720 -1.7891  1.8082  0.0642
  984TIP3    H224512   1.742   3.339   8.651  0.6853 -0.7598 -1.0130
  985TIP3   OH224513   4.263   0.774   7.757  0.5924 -0.0480 -0.3717
  985TIP3    H124514   4.339   0.724   7.789 -0.1146 -1.5581 -0.9697
  985TIP3    H224515   4.301   0.841   7.700  1.5221 -0.3402 -0.1217
  986TIP3   OH224516   0.444   5.321   7.059 -0.0469  0.0376 -0.0661
  986TIP3    H124517   0.468   5.269   7.136 -0.9769  1.6081  1.3541
  986TIP3    H224518   0.404   5.257   6.999 -1.6525 -0.8809  1.8264
  987TIP3   OH224519   0.443   3.305   0.770  0.1784 -0.1855  0.3071
  987TIP3    H124520   0.526   3.284   0.813  0.0784 -0.9008  0.1563
  987TIP3    H224521   0.439   3.245   0.695  0.2924  0.9433 -0.6446
  988TIP3   OH224522   5.954   1.558   0.553 -0.3508  0.1598  0.3605
  988TIP3    H124523   5.876   1.603   0.521 -1.3859 -2.1033 -0.5346
  988TIP3    H224524   5.920   1.487   0.608  1.1000 -0.4685  0.5099
  989TIP3   OH224525   5.703   4.830   0.749 -0.4008 -0.2049  0.0236
  989TIP3    H124526   5.757   4.908   0.746 -0.6272 -0.0712 -0.8902
  989TIP3    H224527   5.670   4.827   0.839  2.1738 -1.0318  1.0348
  990TIP3   OH224528   2.852   3.207   8.625 -0.0549 -0.5115 -0.3587
  990TIP3    H124529   2.877   3.290   8.666 -0.5393 -0.8671  0.6902
  990TIP3    H224530   2.764   3.222   8.592 -0.8175 -1.0701  1.2911
  991TIP3   OH224531   0.800   2.996   8.685 -0.4147 -0.4219  0.2052
  991TIP3    H124532   0.845   2.919   8.721  0.8206  1.2426  2.4771
  991TIP3    H224533   0.785   3.053   8.760 -0.6379  1.8845 -1.4722
  992TIP3   OH224534   3.439   6.793   8.140 -0.3465  0.0556  0.5803
  992TIP3    H124535   3.350   6.800   8.107 -1.2864 -1.8125  2.4846
  992TIP3    H224536   3.457   6.879   8.179 -1.6489  0.1991  0.9100
  993TIP3   OH224537   1.476   0.982   1.373 -0.3046  0.2162  0.2747
  993TIP3    H124538   1.447   0.931   1.297 -0.1535 -0.2994  0.5604
  993TIP3    H224539   1.444   0.933   1.449  1.4133 -0.4677  0.6174
  994TIP3   OH224540   3.681   6.384   8.616 -0.4012  0.1634 -0.5774
  994TIP3    H124541   3.750   6.341   8.666 -1.6989 -1.1087  0.1624
  994TIP3    H224542   3.708   6.374   8.524  2.2034  2.8665 -0.2856
  995TIP3   OH224543   3.582   1.599   2.560  0.1785 -0.3667  0.2931
  995TIP3    H124544   3.507   1.623   2.615  0.7459  0.1944  0.8436
  995TIP3    H224545   3.590   1.504   2.570 -0.3511 -0.4071  0.3645
  996TIP3   OH224546   2.058   2.474   7.604  0.2125  0.0284  0.0805
  996TIP3    H124547   2.109   2.534   7.549  0.5040 -0.1570  0.1479
  996TIP3    H224548   2.071   2.507   7.693 -0.0353  0.1629  0.0684
  997TIP3   OH224549   5.945   6.683   0.017  0.2478  0.2473  0.0893
  997TIP3    H124550   5.959   6.767  -0.026  1.6104  0.7789  1.4813
  997TIP3    H224551   6.031   6.642   0.019 -0.0160 -0.2989  1.1791
  998TIP3   OH224552   1.602   5.964   8.061 -0.3551  0.1662 -0.0936
  998TIP3    H124553   1.508   5.951   8.056 -0.2814 -0.2048 -0.5507
  998TIP3    H224554   1.639   5.904   7.996  0.1410  0.9644 -0.5727
  999TIP3   OH224555   2.589   3.818   1.627  0.8425 -0.6448  0.1347
  999TIP3    H124556   2.548   3.735   1.605 -1.4582  0.7612 -1.2135
  999TIP3    H224557   2.600   3.863   1.543 -0.0487  1.2984  0.9980
 1000TIP3   OH224558   5.627   3.614   1.713  0.0297 -0.1904 -0.6677
 1000TIP3    H124559   5.600   3.531   1.752  0.0093  0.1935  0.1641
 1000TIP3    H224560   5.711   3.635   1.756  0.2048  0.0532 -1.1160
 1001TIP3   OH224561   0.293   0.579   0.862 -0.3041  0.0265  0.8179
 1001TIP3    H124562   0.370   0.537   0.824 -0.3986  0.4370  0.1491
 1001TIP3    H224563   0.280   0.534   0.946  1.5270  0.9430  1.6489
 1002TIP3   OH224564   0.428   4.219   2.526  0.5208  0.2102 -0.5456
 1002TIP3    H124565   0.431   4.197   2.433  2.7616  0.1590 -0.5006
 1002TIP3    H224566   0.365   4.157   2.563 -0.2682  0.1040 -1.9609
 1003TIP3   OH224567   6.154   4.734   2.758 -0.6272  0.0481 -0.1271
 1003TIP3    H124568   6.119   4.791   2.826 -2.0313 -1.9872  0.9613
 1003TIP3    H224569   6.084   4.671   2.740  1.0920 -1.8347 -0.6553
 1004TIP3   OH224570   5.243   2.307   7.578 -0.7051 -0.5407 -0.2510
 1004TIP3    H124571   5.219   2.384   7.629 -0.1269  0.2650 -1.1651
 1004TIP3    H224572   5.205   2.323   7.491  0.4806 -0.6888 -0.8106
 1005TIP3   OH224573   6.435   2.924   1.816  0.1105 -0.2218  0.0066
 1005TIP3    H124574   6.502   2.867   1.777  0.9023  0.9113 -0.3630
 1005TIP3    H224575   6.449   3.009   1.773  0.2797  0.7936  1.9579
 1006TIP3   OH224576   4.183   4.876   1.630  0.3286  0.1514  0.1950
 1006TIP3    H124577   4.122   4.932   1.678 -0.6053 -0.2468 -0.4746
 1006TIP3    H224578   4.149   4.788   1.642  0.7609 -0.0773 -0.2161
 1007TIP3   OH224579   5.659   1.575   1.150  0.1337 -0.2063 -0.1504
 1007TIP3    H124580   5.632   1.506   1.210 -0.6412 -0.5411 -0.8750
 1007TIP3    H224581   5.656   1.655   1.203  0.8572 -0.6771  0.6380
 1008TIP3   OH224582   5.413   5.559   1.915  0.0246 -0.6551 -0.3970
 1008TIP3    H124583   5.454   5.563   2.001 -1.3353  0.8127  0.2415
 1008TIP3    H224584   5.319   5.563   1.933 -0.3642 -1.8559 -1.8975
 1009TIP3   OH224585   0.925   1.543   2.402 -0.2893 -0.3709  0.3727
 1009TIP3    H124586   0.989   1.545   2.473 -0.7450  1.6090  0.7808
 1009TIP3    H224587   0.978   1.546   2.322  0.1909 -1.4982  0.6332
 1010TIP3   OH224588   4.910   4.157   2.666  0.0517 -0.3678  0.2040
 1010TIP3    H124589   4.817   4.139   2.681 -0.0119 -0.3059 -0.1217
 1010TIP3    H224590   4.941   4.083   2.614  0.0921 -0.1890 -0.0254
 1011TIP3   OH224591   6.104   2.325   1.726 -0.2063  0.5444 -0.2020
 1011TIP3    H124592   6.152   2.249   1.693 -1.2431  0.1016 -0.7415
 1011TIP3    H224593   6.127   2.396   1.667 -1.2116  0.0148 -1.2629
 1012TIP3   OH224594   5.736   5.303   7.158 -0.6996 -0.0784  0.5402
 1012TIP3    H124595   5.796   5.336   7.226 -0.6906  1.2586 -0.0738
 1012TIP3    H224596   5.785   5.233   7.115 -0.0347  0.1868  0.8384
 1013TIP3   OH224597   6.336   0.200   7.552 -0.0891  0.0260  0.1770
 1013TIP3    H124598   6.283   0.121   7.546  0.3920 -0.2812 -0.0948
 1013TIP3    H224599   6.417   0.177   7.508 -0.1423  0.8331 -0.3585
 1014TIP3   OH224600   4.389   3.974   2.252  0.4248 -0.1692  0.5325
 1014TIP3    H124601   4.417   3.945   2.166  2.7517  1.0666  0.7868
 1014TIP3    H224602   4.319   4.037   2.235  2.1944  1.5794 -0.6525
 1015TIP3   OH224603   3.723   3.861   6.777 -0.0333 -0.1129 -0.2248
 1015TIP3    H124604   3.674   3.933   6.817  2.5677  1.8580 -0.3080
 1015TIP3    H224605   3.739   3.800   6.848 -0.4588  0.4437  0.3576
 1016TIP3   OH224606   1.562   3.928   1.721 -0.4048  0.1523 -0.1367
 1016TIP3    H124607   1.473   3.914   1.751  0.1690 -2.4889  0.5374
 1016TIP3    H224608   1.571   3.873   1.643  0.5330  0.6498 -0.3996
 1017TIP3   OH224609   3.042   6.823   6.049 -0.7940 -0.3292  0.4563
 1017TIP3    H124610   3.080   6.885   6.111  1.4021  0.6431 -1.6947
 1017TIP3    H224611   3.078   6.738   6.074 -1.6220 -0.3246  1.7378
 1018TIP3   OH224612   3.034   6.677   0.061  0.9363  0.6140 -0.4319
 1018TIP3    H124613   3.021   6.651  -0.031  1.5572 -1.4119 -0.0111
 1018TIP3    H224614   3.129   6.676   0.072  0.8496  0.4391  0.3278
 1019TIP3   OH224615   4.715   6.442   6.720  0.2200  0.4101  0.5297
 1019TIP3    H124616   4.705   6.498   6.643  0.2102 -0.1576  0.1143
 1019TIP3    H224617   4.652   6.477   6.783 -0.6622  0.1184 -0.1697
 1020TIP3   OH224618   3.825   3.074   8.433 -0.3642 -0.4641  0.7589
 1020TIP3    H124619   3.763   3.101   8.501 -0.1111  2.7167 -0.0947
 1020TIP3    H224620   3.911   3.090   8.471 -0.2165  1.8173 -0.3146
 1021TIP3   OH224621   1.154   5.301   7.952  0.2968  0.7089  0.1499
 1021TIP3    H124622   1.193   5.240   8.015 -0.5757 -0.9516 -0.8265
 1021TIP3    H224623   1.141   5.248   7.873 -3.5060  1.1444  0.2596
 1022TIP3   OH224624   4.404   2.522   1.903  0.1772  0.2757 -0.4761
 1022TIP3    H124625   4.373   2.464   1.972  3.1150  1.4091  2.0304
 1022TIP3    H224626   4.349   2.600   1.910  0.0966  0.1616  0.2082
 1023TIP3   OH224627   2.879   0.300   8.477 -0.1286  0.6798  0.3890
 1023TIP3    H124628   2.807   0.239   8.493  0.5361 -0.2163  0.0545
 1023TIP3    H224629   2.855   0.345   8.396 -0.2151  0.2400  0.1680
 1024TIP3   OH224630   3.573   5.014   2.092 -0.0024 -0.1914 -0.2269
 1024TIP3    H124631   3.505   5.077   2.114 -0.1021 -0.4016  0.0699
 1024TIP3    H224632   3.541   4.930   2.126 -0.0105 -0.4643 -0.8866
 1025TIP3   OH224633   3.136   2.165   8.666 -0.0979  0.4014  0.0975
 1025TIP3    H124634   3.055   2.185   8.619 -0.3108 -1.1964 -0.2784
 1025TIP3    H224635   3.119   2.081   8.708  1.0681  0.4728  0.7494
 1026TIP3   OH224636   6.458   5.389   0.937  0.0898 -0.3404  0.7297
 1026TIP3    H124637   6.508   5.335   0.875 -0.7771  0.5704 -0.8344
 1026TIP3    H224638   6.404   5.327   0.986  0.2712 -1.0274  0.0719
 1027TIP3   OH224639   6.725   3.610   8.441 -0.1427 -0.6058 -0.0892
 1027TIP3    H124640   6.809   3.581   8.477  0.4518 -0.3703 -1.2588
 1027TIP3    H224641   6.701   3.686   8.495  2.1383  1.5522 -1.8832
 1028TIP3   OH224642   2.465   2.356   7.637  0.5245 -0.4682  0.4004
 1028TIP3    H124643   2.456   2.307   7.719 -0.0464  1.9067  1.8362
 1028TIP3    H224644   2.556   2.387   7.639  0.0774  0.8410  0.8976
 1029TIP3   OH224645   1.118   6.038   2.665  0.0217 -0.2399 -0.1722
 1029TIP3    H124646   1.115   5.949   2.630  0.0250 -0.5259  0.5187
 1029TIP3    H224647   1.211   6.056   2.677  0.0239 -0.1193 -0.3705
 1030TIP3   OH224648   2.136   3.378   0.100 -0.5324  0.0590  0.2990
 1030TIP3    H124649   2.213   3.418   0.058  0.7329 -1.1685  1.3639
 1030TIP3    H224650   2.142   3.286   0.076 -2.5953  0.1778 -0.8976
 1031TIP3   OH224651   4.797   1.677   6.893 -0.1511  0.3418 -0.2577
 1031TIP3    H124652   4.710   1.638   6.903  0.1211 -0.0952  0.5319
 1031TIP3    H224653   4.858   1.604   6.910  0.3821  1.2848  2.3936
 1032TIP3   OH224654   3.337   5.240   2.624  0.3529 -0.1989 -0.0928
 1032TIP3    H124655   3.381   5.239   2.539  1.7730 -3.0732  0.5577
 1032TIP3    H224656   3.286   5.159   2.626  0.8550 -0.5233  2.0245
 1033TIP3   OH224657   1.400   6.303   1.511  0.2761 -0.3373  0.0071
 1033TIP3    H124658   1.475   6.359   1.529  0.1603 -0.2399  0.1918
 1033TIP3    H224659   1.358   6.290   1.596 -0.9057  1.0358 -0.3128
 1034TIP3   OH224660   1.017   4.387   1.290  0.0123 -0.0274  0.6695
 1034TIP3    H124661   1.020   4.400   1.196 -0.4962 -0.2001  0.6234
 1034TIP3    H224662   1.108   4.396   1.319  0.1200  0.3712  0.2147
 1035TIP3   OH224663   3.247   2.548   1.536 -0.1699  0.5650 -0.4071
 1035TIP3    H124664   3.173   2.576   1.590 -2.1159 -0.6276 -2.3162
 1035TIP3    H224665   3.250   2.453   1.548  0.9938  0.5844 -0.4661
 1036TIP3   OH224666   2.139   6.429   1.610  0.1411 -0.3859  0.0383
 1036TIP3    H124667   2.081   6.430   1.535  0.4496 -0.0327 -0.2000
 1036TIP3    H224668   2.170   6.338   1.616 -0.4572 -0.5815  0.1914
 1037TIP3   OH224669   0.900   3.315   1.944  0.0456 -0.6787 -0.1732
 1037TIP3    H124670   0.900   3.311   1.848  0.7983  1.7718 -0.3281
 1037TIP3    H224671   0.868   3.229   1.971  1.5952 -2.1475 -2.5898
 1038TIP3   OH224672   5.445   6.100   1.077  0.2788  0.2898 -0.1577
 1038TIP3    H124673   5.420   6.037   1.145  0.0207 -0.9993 -1.3965
 1038TIP3    H224674   5.362   6.124   1.035  0.5078  0.4772 -0.5100
 1039TIP3   OH224675   1.008   1.067   6.837 -0.3451  0.1041  0.2745
 1039TIP3    H124676   1.094   1.066   6.880 -0.1127 -0.7830 -0.1780
 1039TIP3    H224677   1.026   1.041   6.747 -1.1253 -0.3434  0.2380
 1040TIP3   OH224678   2.919   6.277   6.620  0.6137 -0.2845 -0.2308
 1040TIP3    H124679   2.947   6.284   6.529  1.6616 -1.6880 -0.0495
 1040TIP3    H224680   2.969   6.346   6.665 -0.1821  0.6545 -0.7530
 1041TIP3   OH224681   4.245   4.880   7.817  0.1220  0.0052 -0.1299
 1041TIP3    H124682   4.203   4.823   7.882 -0.1043  1.0105  0.6501
 1041TIP3    H224683   4.307   4.932   7.868 -1.6403  2.4058 -0.2460
 1042TIP3   OH224684   3.126   2.030   1.849 -0.2963  0.2269  0.2247
 1042TIP3    H124685   3.057   2.014   1.913 -0.8163 -0.1697 -0.4125
 1042TIP3    H224686   3.080   2.069   1.774  0.5902  2.6555  0.8624
 1043TIP3   OH224687   4.047   5.037   1.227 -0.2679  0.0429 -0.4909
 1043TIP3    H124688   4.016   4.963   1.279  0.3171  0.0263 -0.1598
 1043TIP3    H224689   3.970   5.093   1.216 -0.2419  0.4157  1.0039
 1044TIP3   OH224690   6.741   5.289   1.130  0.3593 -0.0131 -0.7575
 1044TIP3    H124691   6.824   5.316   1.170 -0.0993  0.1709  0.0911
 1044TIP3    H224692   6.764   5.214   1.075  0.9452 -0.5695  0.2081
 1045TIP3   OH224693   2.285   1.157   1.146  0.6674  0.2483  0.7688
 1045TIP3    H124694   2.261   1.068   1.120 -0.4307  0.9309 -0.7281
 1045TIP3    H224695   2.298   1.152   1.241  1.3997 -1.6538  0.6156
 1046TIP3   OH224696   6.536   0.049   7.362  0.6113  0.0591 -0.2419
 1046TIP3    H124697   6.492   0.014   7.285  2.9525  1.2885 -2.2891
 1046TIP3    H224698   6.561  -0.027   7.413 -0.8325 -0.7979 -0.7725
 1047TIP3   OH224699   3.086   2.337   7.646 -0.3756 -0.1079 -0.2521
 1047TIP3    H124700   3.069   2.413   7.703 -0.2771  0.2794 -0.7368
 1047TIP3    H224701   3.011   2.334   7.587 -0.1550 -0.1199 -0.5298
 1048TIP3   OH224702   2.102   4.055   1.345 -0.0673 -0.2874  0.5137
 1048TIP3    H124703   2.165   4.124   1.361  0.4245 -0.4194 -0.8015
 1048TIP3    H224704   2.034   4.069   1.412 -0.1145  1.6109  0.1219
 1049TIP3   OH224705   6.802   4.288   7.907  0.3928 -0.0128 -0.8474
 1049TIP3    H124706   6.714   4.315   7.883 -0.3351 -0.5393  1.0315
 1049TIP3    H224707   6.853   4.369   7.908 -0.3380  0.4539 -0.9276
 1050TIP3   OH224708   3.157   4.137   0.778 -0.4068 -0.8846  0.0415
 1050TIP3    H124709   3.098   4.209   0.757 -0.3651 -1.1106 -0.8754
 1050TIP3    H224710   3.143   4.121   0.872 -1.8867 -1.0193 -0.1841
 1051TIP3   OH224711   4.810   5.329   1.040  0.1264 -0.3914  0.7013
 1051TIP3    H124712   4.795   5.368   1.127  0.0246  0.8205  0.1532
 1051TIP3    H224713   4.731   5.279   1.023 -0.0733 -0.2186  1.0909
 1052TIP3   OH224714   3.249   3.895   7.124 -0.0971  0.7983 -0.2399
 1052TIP3    H124715   3.222   3.974   7.077  0.9191  1.3594  0.0819
 1052TIP3    H224716   3.206   3.824   7.077 -1.9625  1.6068  0.1415
 1053TIP3   OH224717   4.506   5.018   2.435  0.1695 -0.1013 -0.0372
 1053TIP3    H124718   4.539   5.089   2.380  2.0628  0.5477  1.8508
 1053TIP3    H224719   4.484   5.059   2.518 -2.3350 -1.1338 -0.0806
 1054TIP3   OH224720   6.625   3.970   0.564  0.4997 -0.6731  0.3208
 1054TIP3    H124721   6.596   3.972   0.473 -0.5585 -1.7576  0.6174
 1054TIP3    H224722   6.561   4.025   0.611  1.6677  0.8016  0.2770
 1055TIP3   OH224723   4.699   1.417   7.915 -0.0651  0.0135 -0.2151
 1055TIP3    H124724   4.786   1.445   7.946 -0.3212 -1.1200  1.6645
 1055TIP3    H224725   4.656   1.499   7.888  1.3470  0.6656 -0.5880
 1056TIP3   OH224726   1.817   3.762   8.108  0.4455  0.2908  0.4679
 1056TIP3    H124727   1.887   3.702   8.132 -0.9967 -0.9996  1.6161
 1056TIP3    H224728   1.855   3.815   8.038  2.1462 -1.2099  0.1641
 1057TIP3   OH224729   3.773   5.768   0.203 -0.0181 -0.0196  0.4311
 1057TIP3    H124730   3.708   5.762   0.133 -0.9867 -1.0943  1.3784
 1057TIP3    H224731   3.752   5.850   0.249  0.5074  0.5957 -0.4091
 1058TIP3   OH224732   1.294   2.139   0.087 -0.1002 -0.4507 -0.4834
 1058TIP3    H124733   1.340   2.207   0.136 -0.8690 -1.0438  1.1207
 1058TIP3    H224734   1.317   2.057   0.132  1.1637 -1.3588 -2.6370
 1059TIP3   OH224735   3.979   3.656   7.231 -0.1017 -0.0421 -0.0510
 1059TIP3    H124736   3.970   3.589   7.164 -0.5399 -1.1012  1.0288
 1059TIP3    H224737   3.943   3.735   7.191  0.2152 -0.4839 -1.2651
 1060TIP3   OH224738   4.857   4.161   7.382  0.6908 -0.4452  0.2134
 1060TIP3    H124739   4.830   4.251   7.397  1.8711  0.1917 -1.1720
 1060TIP3    H224740   4.862   4.121   7.469 -0.2125  0.7046  0.8054
 1061TIP3   OH224741   0.134   3.443   1.578 -0.3073 -0.2797 -0.0349
 1061TIP3    H124742   0.052   3.488   1.596  0.5668  2.4574 -2.0456
 1061TIP3    H224743   0.168   3.417   1.663 -1.6215  1.6954  1.1626
 1062TIP3   OH224744   4.345   5.389   1.506 -0.4038  0.4873  0.1885
 1062TIP3    H124745   4.412   5.443   1.548  0.1249  2.3223 -2.6925
 1062TIP3    H224746   4.391   5.309   1.480  0.3728  1.1619 -0.5831
 1063TIP3   OH224747   6.343   3.471   0.507 -0.0293 -0.0553 -0.1254
 1063TIP3    H124748   6.335   3.559   0.468  2.6437  0.3202 -0.0203
 1063TIP3    H224749   6.354   3.488   0.601 -0.2716 -0.5653 -0.0037
 1064TIP3   OH224750   5.875   5.801   8.585  0.8454  0.1687 -0.3119
 1064TIP3    H124751   5.923   5.764   8.512  0.7669 -0.3500 -0.1023
 1064TIP3    H224752   5.784   5.800   8.558  0.8710  0.4798 -0.4190
 1065TIP3   OH224753   0.597   6.542   6.588  0.0674 -0.8595 -0.1429
 1065TIP3    H124754   0.541   6.502   6.522 -0.0157 -2.8573  1.0684
 1065TIP3    H224755   0.641   6.469   6.631  2.2129  0.5377  0.2152
 1066TIP3   OH224756   4.968   6.084   0.368  0.1079  0.1803  0.2356
 1066TIP3    H124757   4.929   5.997   0.363 -3.2500  1.5311  0.2213
 1066TIP3    H224758   4.957   6.110   0.460  2.1748  0.2099  0.5221
 1067TIP3   OH224759   2.440   2.030   7.048  0.2828 -0.3968  0.0980
 1067TIP3    H124760   2.474   2.103   7.099 -0.9151 -0.5475  1.1824
 1067TIP3    H224761   2.393   2.070   6.975  0.7537 -0.1287 -0.0586
 1068TIP3   OH224762   5.976   2.509   1.934 -0.2404 -0.2745  0.2066
 1068TIP3    H124763   5.968   2.519   2.029 -1.3909  0.4494  0.0431
 1068TIP3    H224764   6.067   2.532   1.916 -0.4276  1.1457  0.9557
 1069TIP3   OH224765   3.677   5.666   8.435 -0.9057 -0.1010  0.1516
 1069TIP3    H124766   3.632   5.588   8.466  1.4793 -1.8079 -0.4206
 1069TIP3    H224767   3.638   5.685   8.350 -0.1621 -1.9557 -0.6536
 1070TIP3   OH224768   1.069   6.816   0.302 -0.2883  0.1328  0.1048
 1070TIP3    H124769   1.133   6.874   0.342  0.5992 -0.3718 -0.5526
 1070TIP3    H224770   1.002   6.804   0.370  1.3708 -1.0267  1.6092
 1071TIP3   OH224771   3.993   4.419   0.363  0.2534  0.4470 -0.6893
 1071TIP3    H124772   3.961   4.509   0.378  1.8479  1.0497 -0.7494
 1071TIP3    H224773   3.913   4.366   0.359 -0.6592  1.5029  1.6448
 1072TIP3   OH224774   1.218   4.271   0.744 -0.1465 -0.1667 -0.6821
 1072TIP3    H124775   1.216   4.201   0.809  1.9834 -0.0298 -0.4027
 1072TIP3    H224776   1.220   4.225   0.659  1.3861 -0.4931 -0.4976
 1073TIP3   OH224777   3.718   6.391   8.073 -0.1367  0.1838  0.3856
 1073TIP3    H124778   3.705   6.483   8.048 -0.2156  0.2164  0.5468
 1073TIP3    H224779   3.811   6.385   8.094 -0.0871  0.1768  0.1688
 1074TIP3   OH224780   1.351   3.208   7.679 -0.1653  0.3949  0.0267
 1074TIP3    H124781   1.395   3.281   7.636  1.0229 -0.6805 -0.6535
 1074TIP3    H224782   1.355   3.137   7.616  2.1353 -1.4305  2.0259
 1075TIP3   OH224783   6.501   6.759   1.216 -0.1979  0.3976  0.3318
 1075TIP3    H124784   6.584   6.802   1.196 -0.6290  0.7491 -0.7712
 1075TIP3    H224785   6.481   6.708   1.138 -1.1361  0.5115  0.4846
 1076TIP3   OH224786   1.485   5.271   1.580 -0.2734  0.2378 -0.0426
 1076TIP3    H124787   1.469   5.186   1.621  2.0113  0.4000  1.3348
 1076TIP3    H224788   1.468   5.256   1.487 -2.0306 -1.1122  0.4333
 1077TIP3   OH224789   5.473   1.251   0.894  0.1430  0.5610 -0.8684
 1077TIP3    H124790   5.504   1.174   0.846 -0.4143  1.0143 -1.9899
 1077TIP3    H224791   5.519   1.247   0.978  0.5783 -0.6593 -1.1472
 1078TIP3   OH224792   1.282   6.507   1.294 -0.0188  0.4829 -0.0316
 1078TIP3    H124793   1.304   6.436   1.354 -0.7573 -0.5356 -0.9280
 1078TIP3    H224794   1.361   6.519   1.241  0.4101  0.9420  0.7012
 1079TIP3   OH224795   1.020   4.832   2.446  0.1875  0.1002  0.3411
 1079TIP3    H124796   1.107   4.871   2.454 -0.4415  1.3392  2.0438
 1079TIP3    H224797   0.972   4.867   2.522 -1.4089 -1.5415  0.1548
 1080TIP3   OH224798   3.560   3.514   0.689 -0.1747 -0.7204  0.1860
 1080TIP3    H124799   3.626   3.526   0.757  0.4941  0.1992 -0.5923
 1080TIP3    H224800   3.565   3.421   0.667 -0.3872 -1.0186  1.3655
 1081TIP3   OH224801   2.605   0.266   0.001  0.1460 -0.2279  0.7221
 1081TIP3    H124802   2.606   0.233  -0.089  1.2713 -1.3460  1.1242
 1081TIP3    H224803   2.534   0.219   0.044  0.1967 -0.3624  0.6577
 1082TIP3   OH224804   4.192   4.142   1.231  0.6126  0.4468 -0.8087
 1082TIP3    H124805   4.199   4.238   1.238  0.3796  0.3808  0.6786
 1082TIP3    H224806   4.156   4.127   1.144  0.2184  1.7332 -0.8904
 1083TIP3   OH224807   0.652   3.626   7.389 -0.2375  0.0999 -0.0436
 1083TIP3    H124808   0.604   3.684   7.330 -0.4431 -0.5898 -0.5661
 1083TIP3    H224809   0.630   3.538   7.359  0.7579 -0.2359  0.1919
 1084TIP3   OH224810   0.599   0.087   2.781  0.1856 -0.3485 -0.0822
 1084TIP3    H124811   0.599  -0.002   2.816  0.4597  0.0163  0.8910
 1084TIP3    H224812   0.559   0.140   2.850  0.1999  0.3146 -0.5698
 1085TIP3   OH224813   0.745   2.422   7.279 -0.3341  0.4236  0.4284
 1085TIP3    H124814   0.710   2.507   7.307 -2.1732  0.3306 -1.3769
 1085TIP3    H224815   0.670   2.378   7.240  1.1468 -1.1029 -0.7842
 1086TIP3   OH224816   1.246   4.273   1.808 -0.4763  0.3112 -0.4793
 1086TIP3    H124817   1.332   4.307   1.783 -1.0995  2.4682  0.0533
 1086TIP3    H224818   1.261   4.181   1.829  1.2550  0.0466 -2.5515
 1087TIP3   OH224819   1.231   2.213   1.458  0.3024 -0.1591 -0.0469
 1087TIP3    H124820   1.284   2.135   1.476  0.3709  0.0731  0.8074
 1087TIP3    H224821   1.191   2.234   1.543 -0.0924  0.4550 -0.3805
 1088TIP3   OH224822   0.729   0.677   7.804 -0.1601  0.6558  0.6582
 1088TIP3    H124823   0.683   0.603   7.763  0.6577  0.7110 -0.3961
 1088TIP3    H224824   0.683   0.754   7.771  0.4551  0.6974 -0.1322
 1089TIP3   OH224825   3.679   4.493   0.974  0.1254 -0.2965  0.1810
 1089TIP3    H124826   3.736   4.538   1.036 -1.8297  0.5367  1.4776
 1089TIP3    H224827   3.709   4.402   0.974  2.4138  0.3934 -0.4152
 1090TIP3   OH224828   1.431   6.508   0.281 -0.2276 -0.0838 -0.1274
 1090TIP3    H124829   1.341   6.536   0.263  0.4845  1.8545 -0.9263
 1090TIP3    H224830   1.481   6.589   0.284  1.6334 -1.1708 -0.4352
 1091TIP3   OH224831   3.413   3.343   1.554 -0.2311  0.2050  0.4034
 1091TIP3    H124832   3.336   3.327   1.609  1.4555 -4.3904  1.9110
 1091TIP3    H224833   3.403   3.282   1.480  0.3853  2.0768 -1.3170
 1092TIP3   OH224834   6.551   1.417   2.539 -0.4953  0.3150  0.0422
 1092TIP3    H124835   6.531   1.326   2.560 -1.0197  0.6340  0.9602
 1092TIP3    H224836   6.592   1.452   2.618  0.0310  0.7883 -0.4249
 1093TIP3   OH224837   1.743   2.774   0.368 -0.4389  0.7830 -0.2463
 1093TIP3    H124838   1.835   2.770   0.395 -1.2332  0.3995  2.7961
 1093TIP3    H224839   1.715   2.863   0.391 -1.5023  0.0204  1.6263
 1094TIP3   OH224840   1.770   0.145   1.577 -0.2917 -0.1394  0.1610
 1094TIP3    H124841   1.781   0.237   1.552 -1.3952 -0.2102 -0.6136
 1094TIP3    H224842   1.726   0.149   1.662 -1.9274  0.0600 -0.6568
 1095TIP3   OH224843   4.250   0.035   2.333 -0.5312 -0.2855 -0.2276
 1095TIP3    H124844   4.328   0.090   2.338  0.4505 -1.4247 -1.7989
 1095TIP3    H224845   4.178   0.094   2.355  0.6187  1.2050 -0.2496
 1096TIP3   OH224846   6.299   6.333   0.448 -0.1317  0.4991 -0.1677
 1096TIP3    H124847   6.217   6.311   0.491 -0.2394  2.9918  1.0840
 1096TIP3    H224848   6.275   6.347   0.357 -1.1864  1.3868  0.2163
 1097TIP3   OH224849   3.150   0.758   6.977 -0.2941 -0.3276 -0.1134
 1097TIP3    H124850   3.135   0.717   6.892 -1.5417 -1.2630  0.5112
 1097TIP3    H224851   3.165   0.850   6.957  0.4111 -0.6958 -1.4025
 1098TIP3   OH224852   6.290   1.306   0.029  0.5184 -0.0909  0.0013
 1098TIP3    H124853   6.329   1.387   0.060  1.1578 -0.0404 -0.9063
 1098TIP3    H224854   6.333   1.237   0.080  0.1581  0.1159  0.5904
 1099TIP3   OH224855   5.661   3.881   8.597  0.4252  0.8058 -0.5507
 1099TIP3    H124856   5.672   3.825   8.674  3.7274  1.6511 -0.2920
 1099TIP3    H224857   5.643   3.820   8.525  2.3038 -0.4841  0.0198
 1100TIP3   OH224858   4.192   0.425   7.138  0.2833  0.8702 -0.0632
 1100TIP3    H124859   4.186   0.355   7.073  0.6015 -0.7857  1.6238
 1100TIP3    H224860   4.151   0.500   7.095 -1.8264 -0.8295 -1.2540
 1101TIP3   OH224861   4.821   4.025   7.618  0.1240 -0.1088  0.3171
 1101TIP3    H124862   4.761   4.033   7.692  1.0234  0.7383  0.9830
 1101TIP3    H224863   4.811   3.934   7.589 -0.5047 -0.3546  1.2530
 1102TIP3   OH224864   5.203   5.761   1.411 -0.1360 -0.0430  0.0169
 1102TIP3    H124865   5.252   5.703   1.470 -2.6050 -1.7332  0.5517
 1102TIP3    H224866   5.164   5.702   1.347 -3.5791  0.7606  1.1549
 1103TIP3   OH224867   5.658   3.647   8.435  0.0857 -0.0703  0.0316
 1103TIP3    H124868   5.644   3.577   8.498 -0.1382 -0.8833 -0.9172
 1103TIP3    H224869   5.738   3.623   8.389 -0.7191 -0.4224 -1.2349
 1104TIP3   OH224870   5.617   5.469   6.520 -0.4526 -0.8170 -0.1547
 1104TIP3    H124871   5.600   5.563   6.531  1.2567 -0.4735 -0.2841
 1104TIP3    H224872   5.535   5.435   6.482 -0.5163  0.9300 -1.7566
 1105TIP3   OH224873   4.960   0.437   1.807 -0.0479  0.6734  0.4307
 1105TIP3    H124874   5.048   0.467   1.828  0.8479 -0.1755 -1.8071
 1105TIP3    H224875   4.950   0.354   1.853  0.2862  0.8167  0.7606
 1106TIP3   OH224876   2.490   6.538   8.334  0.0248 -0.2565  0.2702
 1106TIP3    H124877   2.471   6.535   8.240 -1.3015 -0.6611  0.5218
 1106TIP3    H224878   2.404   6.552   8.374  0.1840 -2.5449  1.5492
 1107TIP3   OH224879   4.662   0.752   0.968 -0.2126  0.0936 -0.3989
 1107TIP3    H124880   4.611   0.814   0.916 -2.7362  0.1421  1.9527
 1107TIP3    H224881   4.644   0.667   0.928  2.0464  0.5679 -2.6853
 1108TIP3   OH224882   2.323   2.360   6.713  0.1203 -0.3706  0.1799
 1108TIP3    H124883   2.295   2.421   6.781  0.5300  0.4825 -0.3887
 1108TIP3    H224884   2.416   2.381   6.699 -0.0253 -0.3288 -0.8276
 1109TIP3   OH224885   0.916   0.479   0.497 -0.2210  0.0056  0.0647
 1109TIP3    H124886   0.992   0.510   0.448 -0.4023 -0.7719 -0.7471
 1109TIP3    H224887   0.908   0.539   0.570  0.1525  1.1159 -0.7808
 1110TIP3   OH224888   2.592   3.017   0.238  0.0008 -0.2852  0.6519
 1110TIP3    H124889   2.610   2.969   0.157 -3.0044 -0.5968  0.0349
 1110TIP3    H224890   2.621   3.107   0.220  0.4387 -0.6092 -0.3209
 1111TIP3   OH224891   3.585   3.314   7.330  0.0701 -0.6083 -0.1400
 1111TIP3    H124892   3.674   3.280   7.329  0.3106  0.0026 -0.0441
 1111TIP3    H224893   3.592   3.399   7.374 -0.3023  0.1543 -1.5088
 1112TIP3   OH224894   3.881   4.678   1.121  0.3031  0.4285 -0.1424
 1112TIP3    H124895   3.826   4.722   1.185 -1.4058 -0.1003 -1.1752
 1112TIP3    H224896   3.968   4.717   1.133 -0.1453  0.9362  1.8800
 1113TIP3   OH224897   2.325   0.351   0.185  0.3123 -0.1126  0.0651
 1113TIP3    H124898   2.267   0.416   0.145  1.5753  0.3302 -1.1377
 1113TIP3    H224899   2.271   0.306   0.249 -0.6361  2.0774  0.8955
 1114TIP3   OH224900   0.759   0.098   7.258 -0.0644 -0.0531  0.2700
 1114TIP3    H124901   0.830   0.056   7.209 -0.1134 -0.9261  0.9209
 1114TIP3    H224902   0.708   0.145   7.191  1.7373  1.5539 -0.0831
 1115TIP3   OH224903   1.209   0.202   2.103 -0.2408 -0.5274  0.2175
 1115TIP3    H124904   1.127   0.201   2.053 -0.1277  0.4113 -0.0012
 1115TIP3    H224905   1.273   0.161   2.045  0.6765  3.4213 -1.8831
 1116TIP3   OH224906   6.559   5.204   8.656  0.6032  0.0959 -0.0022
 1116TIP3    H124907   6.602   5.123   8.629  0.5525  0.7016 -2.0576
 1116TIP3    H224908   6.472   5.177   8.684  0.8050 -0.6343 -0.0553
 1117TIP3   OH224909   1.156   1.096   7.587 -0.1917  0.2126  0.5633
 1117TIP3    H124910   1.128   1.005   7.597  0.6299 -0.1622 -0.3317
 1117TIP3    H224911   1.091   1.135   7.529 -2.8298  1.3610  3.9790
 1118TIP3   OH224912   0.231   3.210   0.910 -0.3408 -0.4565  0.0750
 1118TIP3    H124913   0.308   3.264   0.891 -1.8827  1.8172 -0.0812
 1118TIP3    H224914   0.223   3.212   1.005 -0.7015  0.0493  0.0357
 1119TIP3   OH224915   6.019   6.679   0.864  0.2731 -0.2352  0.0484
 1119TIP3    H124916   6.108   6.714   0.867 -0.0697  0.7532 -0.9632
 1119TIP3    H224917   5.974   6.723   0.936 -0.1491  1.4371 -1.2025
 1120TIP3   OH224918   4.363   1.371   1.650 -0.2673 -0.1193 -0.2072
 1120TIP3    H124919   4.364   1.323   1.733 -2.5589  2.2039  1.3232
 1120TIP3    H224920   4.441   1.425   1.653 -2.0180  2.5645  2.2925
 1121TIP3   OH224921   4.238   6.309   0.883  0.2595  0.2705  0.8368
 1121TIP3    H124922   4.179   6.382   0.866  1.1539  0.4613 -1.8808
 1121TIP3    H224923   4.186   6.231   0.861  0.7010  0.3898 -0.7163
 1122TIP3   OH224924   2.462   3.996   6.737 -0.4010  0.3748  0.4031
 1122TIP3    H124925   2.548   4.011   6.697 -0.6794  0.9616  0.0015
 1122TIP3    H224926   2.408   4.068   6.705 -1.4029 -0.6932 -0.4050
 1123TIP3   OH224927   2.167   5.362   2.427 -0.1785  0.3175  0.4320
 1123TIP3    H124928   2.127   5.445   2.453 -0.5432  0.3303 -0.1637
 1123TIP3    H224929   2.093   5.304   2.411  0.0573 -0.7616  2.7795
 1124TIP3   OH224930   3.180   5.400   8.553 -0.0775  0.1431  0.2457
 1124TIP3    H124931   3.148   5.403   8.643  1.5590  0.1161  0.8750
 1124TIP3    H224932   3.204   5.491   8.533  1.1260 -0.1004  0.4757
 1125TIP3   OH224933   2.853   1.710   2.061 -0.5801 -0.2476  0.6984
 1125TIP3    H124934   2.817   1.706   2.149 -2.4810 -2.8701 -0.0573
 1125TIP3    H224935   2.927   1.650   2.063 -0.9169 -0.6829  0.4372
 1126TIP3   OH224936   2.527   2.759   0.805 -0.4027 -0.2933 -0.1818
 1126TIP3    H124937   2.431   2.753   0.806 -0.5154  1.1411 -0.4215
 1126TIP3    H224938   2.554   2.730   0.892 -1.1485  0.4762  0.3187
 1127TIP3   OH224939   0.734   6.431   2.661  0.1038  0.1929  0.3443
 1127TIP3    H124940   0.783   6.504   2.698  4.0532 -1.5638 -0.9521
 1127TIP3    H224941   0.733   6.365   2.731 -0.1276  0.0687  0.2281
 1128TIP3   OH224942   6.119   5.845   0.351 -0.3327 -0.0005 -0.6629
 1128TIP3    H124943   6.110   5.890   0.435  0.3750  0.6066 -0.9043
 1128TIP3    H224944   6.037   5.864   0.305 -0.8977 -0.6763  0.0398
 1129TIP3   OH224945   2.698   6.278   7.848 -0.1513 -0.1645  0.1244
 1129TIP3    H124946   2.673   6.263   7.940  0.9136  0.1246  0.4750
 1129TIP3    H224947   2.757   6.206   7.827 -0.1109 -0.0284 -0.2301
 1130TIP3   OH224948   6.855   0.846   8.525 -0.5200  0.7170  0.2651
 1130TIP3    H124949   6.871   0.928   8.571 -1.2977  0.4188  1.0876
 1130TIP3    H224950   6.881   0.778   8.587 -1.2448  0.3217  0.1440
 1131TIP3   OH224951   2.355   4.090   0.573  0.0328 -0.7327  0.2398
 1131TIP3    H124952   2.344   4.001   0.607  0.1911 -0.7294  0.3010
 1131TIP3    H224953   2.277   4.105   0.519 -0.4075 -0.6121  0.8866
 1132TIP3   OH224954   1.282   4.247   1.195 -0.4897  0.0696 -0.0779
 1132TIP3    H124955   1.306   4.323   1.141 -0.7809 -0.5853 -1.1500
 1132TIP3    H224956   1.364   4.221   1.237 -0.3380  0.8297  0.1218
 1133TIP3   OH224957   0.261   5.203   0.059  0.3445 -0.0569  0.0519
 1133TIP3    H124958   0.315   5.211   0.137  0.3474 -0.2539  0.0711
 1133TIP3    H224959   0.267   5.288   0.016 -1.1688  0.6938  1.2426
 1134TIP3   OH224960   1.816   4.222   0.648 -0.3233 -0.2546  0.2327
 1134TIP3    H124961   1.756   4.279   0.599 -2.5156 -0.8008  2.1002
 1134TIP3    H224962   1.900   4.268   0.646 -0.9976  1.0103 -1.7256
 1135TIP3   OH224963   4.842   5.324   0.240  0.0025  0.2849 -0.9367
 1135TIP3    H124964   4.834   5.234   0.209 -2.1543 -0.7066  2.0664
 1135TIP3    H224965   4.838   5.318   0.335 -4.6297  3.7230 -0.5563
 1136TIP3   OH224966   5.982   1.896   7.068  0.0922  0.2900 -0.4869
 1136TIP3    H124967   5.983   1.831   7.138  1.7356  0.5719 -0.1958
 1136TIP3    H224968   5.891   1.923   7.061  0.0171  1.0596  2.3341
 1137TIP3   OH224969   0.987   6.130   7.083 -0.0885  0.0706 -0.9102
 1137TIP3    H124970   0.951   6.215   7.058  0.6071  0.9744  0.9744
 1137TIP3    H224971   1.074   6.128   7.043 -0.9420 -0.7642 -2.8304
 1138TIP3   OH224972   5.330   0.335   7.435  0.3759 -0.5431  0.5982
 1138TIP3    H124973   5.389   0.293   7.372  1.9652  0.2260  1.5194
 1138TIP3    H224974   5.311   0.421   7.397  0.8961 -0.2894  0.9110
 1139TIP3   OH224975   6.412   6.546   1.001 -0.1390  0.0291 -0.4244
 1139TIP3    H124976   6.421   6.451   1.001  1.1410  0.1028 -1.7578
 1139TIP3    H224977   6.497   6.578   0.970 -0.7407  1.5818 -0.5751
 1140TIP3   OH224978   5.514   2.059   8.402  0.3403 -0.3309 -0.0243
 1140TIP3    H124979   5.608   2.070   8.389  0.4082  0.1672  0.8464
 1140TIP3    H224980   5.504   2.044   8.496 -0.3335 -1.6661 -0.2792
 1141TIP3   OH224981   5.052   5.916   7.826  0.5737 -0.1236  0.0257
 1141TIP3    H124982   5.047   5.854   7.899 -0.6171 -0.4235 -0.2873
 1141TIP3    H224983   5.120   5.879   7.769 -0.2793 -1.3029 -0.2736
 1142TIP3   OH224984   0.691   6.262   1.230  0.4787  0.3800 -0.2211
 1142TIP3    H124985   0.627   6.253   1.301 -1.6193  0.5015 -1.9683
 1142TIP3    H224986   0.766   6.306   1.270 -0.3028 -0.2443  2.0661
 1143TIP3   OH224987   6.202   2.082   1.640  0.0113 -0.1015  0.4938
 1143TIP3    H124988   6.285   2.053   1.678 -0.5806 -1.6188  0.6931
 1143TIP3    H224989   6.136   2.025   1.679 -1.0248  0.5112 -0.3090
 1144TIP3   OH224990   2.617   6.754   0.909 -0.0900 -0.4258  0.1164
 1144TIP3    H124991   2.706   6.787   0.919 -0.6279  0.6176  1.9844
 1144TIP3    H224992   2.619   6.667   0.949 -0.1847  0.1415  1.3951
 1145TIP3   OH224993   6.281   6.432   1.831  0.4774  0.1785  0.5338
 1145TIP3    H124994   6.249   6.520   1.845 -0.6223 -0.2128  0.5455
 1145TIP3    H224995   6.219   6.392   1.770 -0.3281 -1.3013  2.2259
 1146TIP3   OH224996   3.080   3.196   8.474 -0.0420 -1.0129  0.8055
 1146TIP3    H124997   3.129   3.261   8.525 -0.0762  0.4013 -0.8640
 1146TIP3    H224998   2.994   3.193   8.514  0.0142 -0.1250  1.0083
 1147TIP3   OH224999   2.138   2.349   7.064 -0.2008  0.2408 -0.2110
 1147TIP3    H125000   2.163   2.407   6.993 -0.9814  0.7724 -0.0640
 1147TIP3    H225001   2.043   2.360   7.072 -0.4593 -1.4239 -0.5096
 1148TIP3   OH225002   4.707   1.439   2.399  0.0748  0.3458 -0.5050
 1148TIP3    H125003   4.800   1.420   2.397 -0.0470 -0.8339  1.4885
 1148TIP3    H225004   4.680   1.416   2.488 -2.5939 -1.7476 -1.6967
 1149TIP3   OH225005   1.018   3.807   2.698 -0.3485  0.3050  0.5650
 1149TIP3    H125006   1.112   3.818   2.713 -0.1721  0.4000 -0.5294
 1149TIP3    H225007   0.986   3.896   2.681 -0.6759  0.2977  1.1294
 1150TIP3   OH225008   4.480   2.849   7.139  0.2817  0.3980  0.4093
 1150TIP3    H125009   4.538   2.830   7.065 -0.3518  0.7116 -0.1858
 1150TIP3    H225010   4.458   2.942   7.129 -2.6459 -0.3180 -1.1320
 1151TIP3   OH225011   1.381   5.451   8.109  0.0554 -0.3494  0.2772
 1151TIP3    H125012   1.461   5.441   8.057  0.8646  1.9807  0.9630
 1151TIP3    H225013   1.313   5.465   8.044  0.7243  0.5661 -0.2513
 1152TIP3   OH225014   6.019   1.326   7.817  0.3886 -0.2010  0.2344
 1152TIP3    H125015   6.059   1.409   7.792 -1.5290  1.0996  1.1688
 1152TIP3    H225016   6.089   1.275   7.857  1.9951  0.2534 -1.8783
 1153TIP3   OH225017   3.404   2.819   7.329 -0.0706 -0.1170 -0.0397
 1153TIP3    H125018   3.472   2.880   7.357 -0.0996 -0.0961 -0.0141
 1153TIP3    H225019   3.337   2.874   7.289  0.0589 -0.1658 -0.3260
 1154TIP3   OH225020   3.706   4.420   0.103  0.5483 -0.2392 -0.5353
 1154TIP3    H125021   3.746   4.502   0.133  3.5079 -1.1208 -1.6521
 1154TIP3    H225022   3.763   4.351   0.139  0.0696 -1.6164 -2.2747
 1155TIP3   OH225023   4.313   1.390   8.381  0.7801 -0.7508  0.0735
 1155TIP3    H125024   4.335   1.305   8.344 -0.0096 -0.9528  0.0605
 1155TIP3    H225025   4.218   1.395   8.376  0.8933  0.7337 -1.2418
 1156TIP3   OH225026   2.758   1.599   7.081  0.6408  0.4574 -0.1809
 1156TIP3    H125027   2.670   1.596   7.044  0.5267 -1.0746  0.1573
 1156TIP3    H225028   2.763   1.686   7.122 -0.1800  1.1317 -1.4183
 1157TIP3   OH225029   0.984   5.106   0.621 -0.0829 -0.3126  0.0681
 1157TIP3    H125030   1.020   5.017   0.630 -1.5269 -0.9406 -0.0778
 1157TIP3    H225031   0.915   5.110   0.688 -1.3358 -0.0077 -1.1948
 1158TIP3   OH225032   4.161   4.022   6.670 -0.5014  0.3011  0.5125
 1158TIP3    H125033   4.245   3.992   6.636 -0.7657 -0.0740  0.1784
 1158TIP3    H225034   4.172   4.116   6.683 -0.1057  0.2930  0.2429
 1159TIP3   OH225035   5.648   4.351   1.064 -0.1501  0.0490 -0.2522
 1159TIP3    H125036   5.617   4.317   1.148  1.1452  0.2051  0.3192
 1159TIP3    H225037   5.631   4.445   1.068  0.8315  0.2179  0.2819
 1160TIP3   OH225038   2.254   1.507   7.740  0.2923 -0.5208 -0.5723
 1160TIP3    H125039   2.285   1.451   7.811  0.7157 -0.6491 -0.8521
 1160TIP3    H225040   2.260   1.451   7.662 -1.9543 -1.0336 -0.4537
 1161TIP3   OH225041   2.572   2.219   1.449  0.2740  0.1135 -0.9336
 1161TIP3    H125042   2.621   2.175   1.379  1.6029 -0.7880  0.4947
 1161TIP3    H225043   2.632   2.220   1.523 -1.1646  0.8560  0.2753
 1162TIP3   OH225044   6.660   6.056   8.139 -0.0004  0.6057  0.1848
 1162TIP3    H125045   6.639   6.079   8.048 -1.9083  1.5952  0.8094
 1162TIP3    H225046   6.627   5.967   8.149  0.2373  0.4841 -0.1026
 1163TIP3   OH225047   3.011   0.435   7.610  0.1735  0.1727  0.1594
 1163TIP3    H125048   3.106   0.438   7.597  0.0033  0.9506 -1.0214
 1163TIP3    H225049   2.975   0.488   7.539 -1.2190 -0.9324 -0.0059
 1164TIP3   OH225050   6.279   6.745   0.864  0.2398  0.2865 -0.0251
 1164TIP3    H125051   6.313   6.668   0.910  0.0631  0.4697  0.4260
 1164TIP3    H225052   6.333   6.753   0.786 -1.0626 -1.5031 -1.1550
 1165TIP3   OH225053   3.705   1.014   1.028 -0.7584  0.8444  0.2671
 1165TIP3    H125054   3.630   0.979   1.076  0.0183 -1.5099 -0.0784
 1165TIP3    H225055   3.768   1.038   1.097 -0.2551 -1.0691  0.5248
 1166TIP3   OH225056   6.055   1.068   1.407 -0.1216 -0.2303 -0.3058
 1166TIP3    H125057   5.995   1.079   1.481  1.3447  1.3868  0.7129
 1166TIP3    H225058   6.020   0.993   1.359 -1.8528 -0.5258  1.2962
 1167TIP3   OH225059   2.320   2.789   8.131  0.3053 -0.1722  0.1277
 1167TIP3    H125060   2.375   2.860   8.163  0.4585 -1.9270  4.3854
 1167TIP3    H225061   2.231   2.825   8.130  0.6789  0.7735 -0.3673
 1168TIP3   OH225062   6.800   4.527   8.393 -0.2484  0.0336  0.0517
 1168TIP3    H125063   6.869   4.574   8.345 -0.6277  0.7794  0.2226
 1168TIP3    H225064   6.756   4.595   8.444 -1.3887 -0.3506 -0.3835
 1169TIP3   OH225065   4.248   2.189   7.586  0.3178 -0.5464  0.2992
 1169TIP3    H125066   4.291   2.191   7.672 -0.3538 -0.3951  0.6374
 1169TIP3    H225067   4.196   2.108   7.587 -1.8645  0.7898  1.1305
 1170TIP3   OH225068   1.546   2.801   1.111 -0.5194  0.0660  0.9616
 1170TIP3    H125069   1.585   2.790   1.025 -1.1340  3.6070  0.1170
 1170TIP3    H225070   1.460   2.759   1.104  0.1796 -1.3488  0.5183
 1171TIP3   OH225071   5.042   3.372   6.510  0.4778  0.1828 -0.1431
 1171TIP3    H125072   5.060   3.404   6.598  0.5883 -0.3194  0.0201
 1171TIP3    H225073   5.055   3.448   6.454 -0.1801  0.6597  0.3350
 1172TIP3   OH225074   0.916   2.973   2.302  0.3263  0.3115 -0.2446
 1172TIP3    H125075   0.903   2.983   2.208  1.7625  0.9090 -0.4025
 1172TIP3    H225076   0.963   2.890   2.311 -0.3712 -0.0652  0.0140
 1173TIP3   OH225077   5.161   4.810   7.519 -0.1812 -0.1376 -0.4234
 1173TIP3    H125078   5.154   4.853   7.604  0.3159  2.3897 -1.5644
 1173TIP3    H225079   5.084   4.753   7.515 -1.1813  1.0289  1.0050
 1174TIP3   OH225080   1.369   5.459   8.651  0.6990  0.1308  0.0047
 1174TIP3    H125081   1.360   5.539   8.701 -0.3716 -0.4097  0.7093
 1174TIP3    H225082   1.463   5.443   8.648  0.8142  0.4847  1.3440
 1175TIP3   OH225083   3.309   4.016   1.982  0.4772 -0.9226 -0.0793
 1175TIP3    H125084   3.280   3.928   1.961  1.5698 -1.5657  0.9587
 1175TIP3    H225085   3.291   4.067   1.903 -2.5662 -1.4304  0.1542
 1176TIP3   OH225086   4.205   4.395   7.330 -0.1754 -0.0129  0.0302
 1176TIP3    H125087   4.118   4.372   7.298 -0.8443  2.4547 -0.1328
 1176TIP3    H225088   4.192   4.416   7.422  0.3848 -0.2486  0.1657
 1177TIP3   OH225089   4.745   3.762   7.534  0.4288 -0.2816 -0.1401
 1177TIP3    H125090   4.756   3.699   7.606  0.2379  0.4082  0.5057
 1177TIP3    H225091   4.650   3.770   7.524  0.4075  0.9262  0.7253
 1178TIP3   OH225092   0.678   0.184   7.510 -0.5729  0.0169  0.5384
 1178TIP3    H125093   0.701   0.128   7.435 -0.9173 -2.1912  1.9875
 1178TIP3    H225094   0.745   0.165   7.575 -0.9492  1.0249  1.2438
 1179TIP3   OH225095   0.115   6.605   7.669  0.3248  0.5273  0.1474
 1179TIP3    H125096   0.063   6.665   7.616  1.3054  0.9971 -0.3107
 1179TIP3    H225097   0.124   6.649   7.754  1.2496  1.1790 -0.2651
 1180TIP3   OH225098   2.408   4.058   7.215  0.1015  0.0669 -0.3894
 1180TIP3    H125099   2.442   4.114   7.285  0.1132  0.5916 -0.8043
 1180TIP3    H225100   2.467   4.073   7.142  0.8993 -1.5293 -0.0977
 1181TIP3   OH225101   3.633   5.175   0.571 -0.5136  0.0671  0.1681
 1181TIP3    H125102   3.652   5.095   0.620 -1.1353  0.0843  0.4529
 1181TIP3    H225103   3.546   5.161   0.535 -0.2775  0.2742 -0.5011
 1182TIP3   OH225104   1.314   0.922   7.801  0.1199 -0.2706 -0.1677
 1182TIP3    H125105   1.289   0.878   7.882 -0.3645 -0.8611 -0.6269
 1182TIP3    H225106   1.233   0.926   7.750  0.6855 -1.1297 -1.1769
 1183TIP3   OH225107   4.689   5.602   0.803 -0.1226  0.5963  0.2254
 1183TIP3    H125108   4.739   5.599   0.721  1.8042  0.6303  1.3325
 1183TIP3    H225109   4.660   5.511   0.817 -1.5502  0.8182 -1.0870
 1184TIP3   OH225110   6.448   1.116   7.921 -0.2335 -0.3043 -0.2678
 1184TIP3    H125111   6.414   1.075   8.001  0.6371 -0.9111 -0.1869
 1184TIP3    H225112   6.542   1.097   7.923  0.4343  2.5928  0.2748
 1185TIP3   OH225113   0.943   4.476   1.535 -0.0595 -0.3122 -0.6226
 1185TIP3    H125114   0.951   4.392   1.580 -3.5837 -0.8607 -0.7297
 1185TIP3    H225115   0.973   4.458   1.446 -1.2107 -1.6790 -0.7817
 1186TIP3   OH225116   0.834   5.426   0.099 -0.5446  0.2420  0.2877
 1186TIP3    H125117   0.824   5.500   0.039  1.2071 -0.9273 -1.5913
 1186TIP3    H225118   0.928   5.420   0.116 -0.8819 -0.1490  2.3325
 1187TIP3   OH225119   4.858   2.202   1.211  0.6034  0.0646  0.7009
 1187TIP3    H125120   4.927   2.222   1.147 -0.7423 -0.1236 -0.8758
 1187TIP3    H225121   4.862   2.107   1.222 -0.1619 -0.1129 -0.3518
 1188TIP3   OH225122   3.396   5.182   6.656 -0.1288 -0.2311  0.4906
 1188TIP3    H125123   3.441   5.247   6.604  1.3170 -0.7107  1.0792
 1188TIP3    H225124   3.390   5.221   6.743 -0.8043 -0.2033  0.4367
 1189TIP3   OH225125   4.311   4.488   7.831  0.2156 -0.0395  0.1216
 1189TIP3    H125126   4.290   4.555   7.896 -0.3267  0.5166 -0.6082
 1189TIP3    H225127   4.256   4.413   7.856  0.1458  0.1044  0.4085
 1190TIP3   OH225128   1.594   6.316   2.023 -0.7362  0.0351  0.2243
 1190TIP3    H125129   1.680   6.353   2.002 -0.4690 -1.6348 -1.9721
 1190TIP3    H225130   1.614   6.241   2.080 -0.6624 -0.6366 -0.6671
 1191TIP3   OH225131   1.276   1.792   2.437  0.3355 -0.7435  0.0874
 1191TIP3    H125132   1.297   1.835   2.355  2.8398 -0.0099  1.0410
 1191TIP3    H225133   1.241   1.861   2.493 -0.5935 -1.0750 -0.0613
 1192TIP3   OH225134   1.987   5.508   0.421  0.1316  0.2532  0.3699
 1192TIP3    H125135   2.030   5.444   0.364  1.1232  0.8591  0.4052
 1192TIP3    H225136   1.911   5.539   0.372  0.4819  0.1268 -0.2506
 1193TIP3   OH225137   0.528   0.687   7.402  0.0353  0.1642 -0.2162
 1193TIP3    H125138   0.558   0.608   7.447 -0.6298  0.1182  0.1663
 1193TIP3    H225139   0.542   0.757   7.465  0.3962  0.3149 -0.4635
 1194TIP3   OH225140   0.913   5.141   2.474  0.3376  0.4338  0.0364
 1194TIP3    H125141   0.876   5.226   2.498 -1.9616  0.1076 -1.9869
 1194TIP3    H225142   0.841   5.079   2.484  1.6708 -1.1257  0.4635
 1195TIP3   OH225143   4.040   6.106   0.861  0.3207  0.3584 -0.8386
 1195TIP3    H125144   3.990   6.184   0.886  0.1852 -0.3345  1.2333
 1195TIP3    H225145   4.063   6.064   0.944 -1.0654 -2.7293 -1.8520
 1196TIP3   OH225146   1.522   1.870   6.724  0.1317  0.1174  0.8594
 1196TIP3    H125147   1.433   1.843   6.701  0.4833 -0.7105  0.4212
 1196TIP3    H225148   1.554   1.799   6.781  1.1580 -0.5678 -0.5062
 1197TIP3   OH225149   0.308   6.373   7.727  0.0758 -0.4181  0.1037
 1197TIP3    H125150   0.242   6.435   7.698  0.7843  0.3886  0.1883
 1197TIP3    H225151   0.391   6.410   7.697  0.6770 -0.3984  1.6843
 1198TIP3   OH225152   3.218   0.566   2.016  0.0703  0.3936 -0.1096
 1198TIP3    H125153   3.268   0.583   2.097 -0.2968  0.7305  0.0490
 1198TIP3    H225154   3.142   0.624   2.023  0.0258  0.4031 -0.6872
 1199TIP3   OH225155   3.028   3.745   2.136 -0.1142 -0.4227 -0.3492
 1199TIP3    H125156   3.067   3.716   2.218 -2.3661  1.0466  1.3976
 1199TIP3    H225157   3.088   3.811   2.101  0.8499 -1.0365  0.1489
 1200TIP3   OH225158   3.249   3.948   8.660  0.3426  0.0302 -0.5159
 1200TIP3    H125159   3.258   4.006   8.736  0.9628 -0.5328 -0.1453
 1200TIP3    H225160   3.281   3.863   8.691 -0.7260 -0.5642 -0.9876
 1201TIP3   OH225161   4.162   6.460   2.312 -0.3069 -0.2206  0.5760
 1201TIP3    H125162   4.149   6.367   2.293  0.3414 -0.1409 -0.3016
 1201TIP3    H225163   4.123   6.505   2.237  0.0176  0.1920  0.6560
 1202TIP3   OH225164   4.426   0.562   7.275 -0.6264  0.4585 -0.2918
 1202TIP3    H125165   4.366   0.488   7.274  1.3268 -1.2422  0.2381
 1202TIP3    H225166   4.399   0.617   7.202 -3.2307  0.1917  0.3754
 1203TIP3   OH225167   1.451   3.537   7.375 -0.9233 -0.4214  0.0894
 1203TIP3    H125168   1.492   3.486   7.305 -3.5884 -2.7301  0.0592
 1203TIP3    H225169   1.474   3.490   7.455 -1.1692 -0.0789  0.3627
 1204TIP3   OH225170   6.131   6.817   7.283  0.1171  0.1091 -0.3815
 1204TIP3    H125171   6.226   6.814   7.271  0.3213  1.6432  0.5415
 1204TIP3    H225172   6.110   6.733   7.323  1.3929  0.4640  1.1567
 1205TIP3   OH225173   0.973   3.735   7.167  0.3866 -0.2377  0.1607
 1205TIP3    H125174   1.015   3.762   7.085 -1.0645 -1.3824 -1.0262
 1205TIP3    H225175   0.881   3.762   7.156  0.5033  1.2577  2.2308
 1206TIP3   OH225176   1.823   4.406   1.550 -0.1240 -0.0684  0.0960
 1206TIP3    H125177   1.852   4.381   1.463 -2.2079  1.6654 -1.2082
 1206TIP3    H225178   1.838   4.328   1.604  2.1718 -0.8385 -1.5199
 1207TIP3   OH225179   2.900   5.181   7.352 -0.4827 -0.0040  0.1154
 1207TIP3    H125180   2.832   5.147   7.294  1.4326 -1.5044 -1.3958
 1207TIP3    H225181   2.936   5.104   7.396  0.0817  0.7828  1.0943
 1208TIP3   OH225182   3.693   0.762   1.662  0.2203 -0.0088  0.0685
 1208TIP3    H125183   3.612   0.811   1.650  0.8686  1.0128 -0.2361
 1208TIP3    H225184   3.681   0.682   1.610  0.2282  1.1225 -1.7395
 1209TIP3   OH225185   6.453   2.247   8.066 -0.0009  0.2316 -0.3473
 1209TIP3    H125186   6.459   2.328   8.116 -1.8049  0.2369 -0.0515
 1209TIP3    H225187   6.522   2.191   8.101  0.2325  1.0652  0.5575
 1210TIP3   OH225188   0.227   3.889   3.010  0.5259 -0.5764  0.5739
 1210TIP3    H125189   0.158   3.822   3.003  0.9873 -1.1491  1.3495
 1210TIP3    H225190   0.182   3.971   2.991 -0.5235 -0.8665  1.6749
 1211TIP3   OH225191   0.411   5.397   8.047 -0.2100  0.1596 -0.2554
 1211TIP3    H125192   0.431   5.304   8.032 -0.9191  0.2122 -1.6947
 1211TIP3    H225193   0.320   5.397   8.076 -0.8210  0.4909 -2.0313
 1212TIP3   OH225194   0.039   6.030   2.078  0.3548  0.1078 -0.0159
 1212TIP3    H125195   0.013   5.984   1.998  1.2514  1.8853 -1.4089
 1212TIP3    H225196   0.132   6.011   2.087  0.3445  0.2391  0.3738
 1213TIP3   OH225197   5.119   4.424   1.719  0.2770  0.6021  0.7101
 1213TIP3    H125198   5.141   4.428   1.626  1.3804  2.4550  0.9931
 1213TIP3    H225199   5.024   4.424   1.721  0.2320  0.1510 -0.4152
 1214TIP3   OH225200   1.036   0.130   8.210  0.3988  0.2224  0.1800
 1214TIP3    H125201   0.988   0.103   8.288  0.1760  1.5147  0.5267
 1214TIP3    H225202   1.118   0.080   8.213  0.5110  0.4402  1.3955
 1215TIP3   OH225203   5.551   5.255   2.237 -0.2433 -0.6539  0.2322
 1215TIP3    H125204   5.623   5.299   2.282  0.5206 -2.9872  1.4521
 1215TIP3    H225205   5.585   5.234   2.151  0.9188 -2.5131  1.0961
 1216TIP3   OH225206   1.549   2.568   0.590 -0.4439 -0.1559 -0.2691
 1216TIP3    H125207   1.474   2.512   0.609 -0.5296  0.3886  1.1164
 1216TIP3    H225208   1.512   2.656   0.584  0.1383  0.2277  1.1840
 1217TIP3   OH225209   2.615   4.236   1.083  0.3177 -0.4273 -0.0845
 1217TIP3    H125210   2.706   4.230   1.055  0.1386  0.0272 -0.7924
 1217TIP3    H225211   2.613   4.313   1.141  0.0290  0.7719 -1.6116
 1218TIP3   OH225212   3.658   4.285   2.208  0.1426 -0.5732  0.1762
 1218TIP3    H125213   3.692   4.206   2.167 -0.1969  0.1476 -1.5526
 1218TIP3    H225214   3.575   4.257   2.248  1.6034 -1.8377  2.6102
 1219TIP3   OH225215   4.606   3.775   2.310 -0.0497  0.0677  0.1514
 1219TIP3    H125216   4.670   3.846   2.313 -1.0231  0.9784 -0.2006
 1219TIP3    H225217   4.524   3.815   2.339 -0.4349 -1.1228  0.7838
 1220TIP3   OH225218   1.322   5.132   1.762 -0.3580 -0.1426  0.2397
 1220TIP3    H125219   1.378   5.058   1.737  1.1306  0.4659  1.6279
 1220TIP3    H225220   1.288   5.109   1.848 -1.0667  0.1633  0.0480
 1221TIP3   OH225221   6.589   3.767   7.430  0.0660  0.0850  1.1659
 1221TIP3    H125222   6.565   3.676   7.449  0.0918  0.0201  0.8863
 1221TIP3    H225223   6.509   3.806   7.395  0.7256 -0.5468 -1.2619
 1222TIP3   OH225224   2.735   4.386   1.968  0.0973 -0.7388  0.4929
 1222TIP3    H125225   2.788   4.431   1.901  0.0455  0.9324  1.5058
 1222TIP3    H225226   2.794   4.320   2.004  1.5364  0.9949  1.5083
 1223TIP3   OH225227   0.799   4.141   2.205  0.2172  0.3277  0.1587
 1223TIP3    H125228   0.828   4.143   2.297  0.5439  3.3365  0.1192
 1223TIP3    H225229   0.818   4.230   2.173 -0.2450 -0.5164 -2.7316
 1224TIP3   OH225230   0.407   0.235   0.438 -0.5867  0.0117  0.8168
 1224TIP3    H125231   0.352   0.274   0.370 -1.1513 -1.0559  0.6468
 1224TIP3    H225232   0.491   0.281   0.430 -1.0513  0.7794  0.2486
 1225TIP3   OH225233   2.521   3.519   8.426 -0.0021 -0.0042  0.3752
 1225TIP3    H125234   2.575   3.598   8.440  0.7656 -0.4977  0.2574
 1225TIP3    H225235   2.486   3.529   8.338  1.8793 -0.8123 -0.5212
 1226TIP3   OH225236   1.919   4.618   1.022  0.4685  0.2092 -0.4849
 1226TIP3    H125237   1.983   4.649   0.959  0.1182  1.4132 -0.2635
 1226TIP3    H225238   1.917   4.523   1.010  2.5469  0.0988 -0.2573
 1227TIP3   OH225239   1.434   5.768   0.321 -0.2365  0.1207 -0.2407
 1227TIP3    H125240   1.465   5.688   0.366 -1.5330 -1.0020 -1.2642
 1227TIP3    H225241   1.442   5.748   0.228 -1.7424  0.7067 -0.5199
 1228TIP3   OH225242   0.555   2.341   1.022  0.5480 -0.5095 -0.3542
 1228TIP3    H125243   0.604   2.316   1.101 -0.5642  0.1301  0.5778
 1228TIP3    H225244   0.470   2.370   1.055 -0.3136 -1.1786 -1.8855
 1229TIP3   OH225245   5.248   4.996   6.933 -0.0673 -0.3958  0.2131
 1229TIP3    H125246   5.290   5.073   6.896 -2.7709  1.3241  0.4316
 1229TIP3    H225247   5.284   4.922   6.884  4.0501  0.6468  1.2677
 1230TIP3   OH225248   2.785   2.468   1.719  0.1353 -0.4329  0.1642
 1230TIP3    H125249   2.699   2.477   1.758  0.4414  1.4158  0.5422
 1230TIP3    H225250   2.783   2.385   1.673 -1.8582 -0.4028  0.1329
 1231TIP3   OH225251   0.078   1.609   2.267 -0.1953  0.3748 -0.0797
 1231TIP3    H125252   0.055   1.540   2.328 -0.4874  1.7404  1.4143
 1231TIP3    H225253   0.035   1.688   2.301 -0.6043  1.1465 -2.2071
 1232TIP3   OH225254   3.737   4.193   8.591 -0.1567  0.4720  0.5242
 1232TIP3    H125255   3.738   4.289   8.598  0.0918  0.3441  2.7227
 1232TIP3    H225256   3.824   4.171   8.558  0.4611  0.9331  1.7764
 1233TIP3   OH225257   0.148   5.953   1.397 -0.1426  0.0457  0.1010
 1233TIP3    H125258   0.242   5.939   1.412 -0.5664 -1.3564  1.7808
 1233TIP3    H225259   0.144   6.008   1.319  2.0449 -0.8859 -0.7444
 1234TIP3   OH225260   5.674   4.543   0.629 -0.2379 -0.1151 -0.4206
 1234TIP3    H125261   5.659   4.485   0.704  1.5846 -0.8534 -0.6031
 1234TIP3    H225262   5.662   4.631   0.666 -1.7215 -0.5274  0.1599
 1235TIP3   OH225263   5.530   0.350   7.938  0.2095 -0.4612 -0.6073
 1235TIP3    H125264   5.492   0.429   7.900  2.3558  0.0937 -1.8137
 1235TIP3    H225265   5.506   0.280   7.878 -0.9514 -0.5868 -0.0141
 1236TIP3   OH225266   1.076   2.521   8.062  0.3075  0.0854 -0.0772
 1236TIP3    H125267   1.156   2.572   8.052  1.2080 -0.8439  1.8891
 1236TIP3    H225268   1.088   2.472   8.143 -1.3850 -1.6728 -0.7955
 1237TIP3   OH225269   2.085   4.673   0.788 -0.3253 -0.1689 -0.1424
 1237TIP3    H125270   2.032   4.729   0.731  0.7782  0.3508 -0.6848
 1237TIP3    H225271   2.176   4.695   0.767  0.1214 -0.4974  1.2969
 1238TIP3   OH225272   3.267   4.609   1.700 -0.1962 -0.1869 -0.4894
 1238TIP3    H125273   3.248   4.679   1.638  1.6977 -0.9090 -1.9780
 1238TIP3    H225274   3.283   4.654   1.783 -0.7018  0.9766 -0.9967
 1239TIP3   OH225275   4.273   6.848   1.061  0.4237 -0.0773  0.4846
 1239TIP3    H125276   4.228   6.907   1.122 -2.1101 -2.9854  1.6882
 1239TIP3    H225277   4.283   6.766   1.110  3.9139 -0.7477 -1.0409
 1240TIP3   OH225278   5.744   1.531   1.893 -0.3015 -0.2586  0.2328
 1240TIP3    H125279   5.773   1.486   1.972 -1.4049 -0.6455  0.4480
 1240TIP3    H225280   5.692   1.605   1.926  0.4255  0.4284 -0.1300
 1241TIP3   OH225281   5.366   0.806   2.231  0.1177 -0.2161 -0.5493
 1241TIP3    H125282   5.364   0.814   2.326 -0.8607  1.2276 -0.6528
 1241TIP3    H225283   5.363   0.712   2.214 -2.0370 -0.4595  0.8316
 1242TIP3   OH225284   2.078   0.198   7.412  0.0726  0.1018  0.4274
 1242TIP3    H125285   2.125   0.199   7.329  0.4677 -1.2804  0.5958
 1242TIP3    H225286   2.080   0.288   7.443  0.9099  0.4218 -0.5221
 1243TIP3   OH225287   5.568   0.281   1.990  0.1342  0.3193  0.4423
 1243TIP3    H125288   5.481   0.262   1.954 -0.6527  1.7681  1.5151
 1243TIP3    H225289   5.617   0.316   1.916 -0.2478 -0.2812 -0.1119
 1244TIP3   OH225290   3.431   5.253   0.986  0.3772  0.0238 -0.4688
 1244TIP3    H125291   3.475   5.335   1.010  0.5172  0.3002 -1.5699
 1244TIP3    H225292   3.442   5.249   0.890  1.7340 -2.0511 -0.2844
 1245TIP3   OH225293   4.796   2.413   0.708  0.0956 -0.8524  0.2307
 1245TIP3    H125294   4.844   2.478   0.657 -1.0480 -0.7982 -0.8157
 1245TIP3    H225295   4.833   2.421   0.797 -0.0844  1.3017  0.1729
 1246TIP3   OH225296   0.598   1.586   2.328  0.5072  0.1654 -0.2376
 1246TIP3    H125297   0.564   1.674   2.342  0.2420 -0.1194  1.0518
 1246TIP3    H225298   0.525   1.538   2.289  0.3159  0.2559  0.0071
 1247TIP3   OH225299   6.226   4.482   8.267 -0.0851  0.1012 -0.7177
 1247TIP3    H125300   6.279   4.562   8.260  0.2418 -0.1920 -1.7468
 1247TIP3    H225301   6.282   4.420   8.312 -0.2058  0.3372 -0.2397
 1248TIP3   OH225302   0.311   6.561   2.570 -0.7848 -0.8134  1.4420
 1248TIP3    H125303   0.216   6.558   2.574 -1.0409  0.8593 -0.8832
 1248TIP3    H225304   0.330   6.645   2.528  1.8057 -0.4257  3.1762
 1249TIP3   OH225305   2.436   1.393   1.107  0.3656  0.6158 -0.4624
 1249TIP3    H125306   2.379   1.325   1.143  0.3251  0.6202 -0.5175
 1249TIP3    H225307   2.435   1.377   1.013  4.2245 -2.3755 -0.2158
 1250TIP3   OH225308   4.494   0.235   0.853 -0.6362  0.3169 -0.1500
 1250TIP3    H125309   4.581   0.253   0.817 -1.1980  2.0758 -0.7204
 1250TIP3    H225310   4.501   0.257   0.946 -0.4942  0.5434 -0.2140
 1251TIP3   OH225311   1.995   6.168   0.590  0.0674 -0.0921  0.3592
 1251TIP3    H125312   2.073   6.200   0.637 -0.3725  0.2791  0.8474
 1251TIP3    H225313   1.942   6.247   0.576 -0.6341 -0.4729  0.8264
 1252TIP3   OH225314   6.513   1.505   7.785  0.4874  0.3089 -0.5902
 1252TIP3    H125315   6.564   1.429   7.812  0.7956 -0.2122 -2.5435
 1252TIP3    H225316   6.506   1.558   7.865  0.2845 -1.7160  0.8118
 1253TIP3   OH225317   4.000   5.524   2.400 -0.1164  0.1589  0.4108
 1253TIP3    H125318   3.916   5.479   2.403 -0.1440  0.2306  0.6652
 1253TIP3    H225319   3.981   5.615   2.424  0.2986 -0.2024  2.2614
 1254TIP3   OH225320   1.506   4.783   7.150  0.1407  0.9755 -0.1219
 1254TIP3    H125321   1.468   4.862   7.112  0.9895  1.5763  0.2386
 1254TIP3    H225322   1.504   4.719   7.080  1.3581  1.9548 -1.0923
 1255TIP3   OH225323   2.283   6.860   0.610  0.4142 -0.1060  0.2731
 1255TIP3    H125324   2.364   6.813   0.588  0.8620  1.1700 -0.9445
 1255TIP3    H225325   2.287   6.873   0.704  0.3251 -2.3661  0.6459
 1256TIP3   OH225326   1.951   1.682   1.087  0.2160  0.3420 -0.1057
 1256TIP3    H125327   1.981   1.730   1.010  2.4792 -1.4112 -0.4093
 1256TIP3    H225328   1.897   1.611   1.051  0.6932 -0.0526 -0.0663
 1257TIP3   OH225329   0.541   6.024   2.315  0.1443  0.1798 -0.1774
 1257TIP3    H125330   0.608   5.968   2.276 -0.4474  0.4150 -1.5971
 1257TIP3    H225331   0.590   6.091   2.362  0.9342  0.5033 -1.4055
 1258TIP3   OH225332   5.834   2.762   0.863 -0.5254  0.4207  0.1512
 1258TIP3    H125333   5.800   2.703   0.931  2.0930  0.9073  2.0279
 1258TIP3    H225334   5.853   2.705   0.789 -0.3381 -0.7144  1.0373
 1259TIP3   OH225335   6.573   5.440   6.963  0.3382  0.1235 -0.0172
 1259TIP3    H125336   6.491   5.392   6.966  0.5930 -0.3333 -0.1551
 1259TIP3    H225337   6.626   5.393   6.898  0.6261  0.5365 -0.0854
 1260TIP3   OH225338   4.218   5.824   2.303  0.2307  0.4614 -0.2164
 1260TIP3    H125339   4.146   5.870   2.346 -0.7666 -2.3438  1.3535
 1260TIP3    H225340   4.238   5.878   2.226 -2.3294  2.2792  0.2557
 1261TIP3   OH225341   5.534   1.926   0.219 -0.0074 -0.2776  0.0905
 1261TIP3    H125342   5.455   1.874   0.235 -0.2556 -0.3277 -1.1918
 1261TIP3    H225343   5.603   1.861   0.208  0.3319 -0.2256  1.6301
 1262TIP3   OH225344   4.833   5.576   7.510 -0.3600 -0.2389 -0.5859
 1262TIP3    H125345   4.800   5.488   7.490 -0.9429 -0.2066  0.1750
 1262TIP3    H225346   4.777   5.606   7.581  2.2508 -0.7876  1.8910
 1263TIP3   OH225347   1.834   5.738   0.277 -0.3389 -0.5432  0.1830
 1263TIP3    H125348   1.793   5.821   0.300 -0.7363 -0.1956 -1.6866
 1263TIP3    H225349   1.803   5.718   0.189  0.8719 -1.9613  0.0253
 1264TIP3   OH225350   6.328   4.342   8.481  0.2288  0.1468  0.5673
 1264TIP3    H125351   6.373   4.265   8.447  2.1276  2.0545 -1.6543
 1264TIP3    H225352   6.241   4.311   8.503  0.4924 -2.3861 -1.4454
 1265TIP3   OH225353   5.530   6.821   0.155 -0.4832  0.5329  0.5860
 1265TIP3    H125354   5.551   6.739   0.200 -1.1846 -0.6906 -1.1882
 1265TIP3    H225355   5.459   6.797   0.095 -1.7209  2.7888  1.0533
 1266TIP3   OH225356   0.639   1.070   2.221  0.4967 -0.6875  0.6567
 1266TIP3    H125357   0.592   1.116   2.152  1.3750  0.5789  0.8574
 1266TIP3    H225358   0.571   1.023   2.270 -0.3857  0.0618  0.1825
 1267TIP3   OH225359   2.557   6.399   1.540  0.0730  0.1742 -0.3545
 1267TIP3    H125360   2.549   6.490   1.566  0.6663 -0.3993  2.1646
 1267TIP3    H225361   2.487   6.354   1.587 -0.9212 -0.5797 -2.4247
 1268TIP3   OH225362   1.257   1.718   0.391 -0.4341  0.3708 -0.5966
 1268TIP3    H125363   1.302   1.742   0.472 -0.2803 -0.4481 -0.4301
 1268TIP3    H225364   1.165   1.715   0.416 -0.3984  0.2268 -0.4811
 1269TIP3   OH225365   1.900   5.967   2.128  0.0771 -0.6653 -0.1595
 1269TIP3    H125366   1.829   6.028   2.149 -1.5269 -2.6396  0.4716
 1269TIP3    H225367   1.886   5.944   2.037 -0.8352 -1.9296  0.2788
 1270TIP3   OH225368   5.688   0.883   8.534  0.1066  0.5145 -0.2161
 1270TIP3    H125369   5.717   0.802   8.493 -0.4243  0.7549 -1.0912
 1270TIP3    H225370   5.613   0.911   8.482 -1.5607  0.0540  1.8207
 1271TIP3   OH225371   3.592   1.970   6.844 -0.4926 -0.0389  0.6262
 1271TIP3    H125372   3.553   2.057   6.834 -2.6338 -1.1756 -2.7846
 1271TIP3    H225373   3.518   1.910   6.838  1.1027 -2.1575  1.1265
 1272TIP3   OH225374   5.380   3.167   1.518  0.1316 -0.1043 -0.4412
 1272TIP3    H125375   5.459   3.124   1.484 -0.0236  0.6039 -1.7407
 1272TIP3    H225376   5.411   3.218   1.593  0.5195 -1.5130  0.3993
 1273TIP3   OH225377   0.764   1.621   1.827  0.5273 -0.9147  0.5475
 1273TIP3    H125378   0.697   1.679   1.863  1.5769  0.0453  1.0232
 1273TIP3    H225379   0.804   1.580   1.903  0.6924 -1.2446  0.2867
 1274TIP3   OH225380   4.477   5.970   7.261  0.2376 -0.0729  0.3682
 1274TIP3    H125381   4.406   5.907   7.252 -0.1687  0.3722  0.4114
 1274TIP3    H225382   4.551   5.930   7.215  0.0325 -0.6478  0.5323
 1275TIP3   OH225383   6.820   1.699   2.484 -0.2258  0.0593 -0.4569
 1275TIP3    H125384   6.841   1.644   2.560 -1.4144 -1.2281 -1.0114
 1275TIP3    H225385   6.810   1.787   2.520  1.1862 -0.1485  0.5499
 1276TIP3   OH225386   0.054   1.483   2.021 -0.4426 -0.1005 -0.0850
 1276TIP3    H125387   0.077   1.504   2.112  2.0365 -3.1726  0.1684
 1276TIP3    H225388   0.098   1.550   1.969  0.6214  0.0164  0.9138
 1277TIP3   OH225389   5.813   0.565   8.640 -0.2307  0.0103 -0.0119
 1277TIP3    H125390   5.832   0.615   8.561  1.0819 -1.1608 -0.4782
 1277TIP3    H225391   5.717   0.555   8.639 -0.2318 -0.0518 -1.5066
 1278TIP3   OH225392   1.568   5.528   1.507 -0.1892  0.1034  0.1351
 1278TIP3    H125393   1.526   5.447   1.538  0.1066  0.3992  1.3496
 1278TIP3    H225394   1.557   5.525   1.412 -1.0157 -0.9027  0.2384
 1279TIP3   OH225395   1.469   2.689   6.868 -0.5941 -0.0100  0.2056
 1279TIP3    H125396   1.389   2.705   6.819 -0.1495 -0.7890 -0.8074
 1279TIP3    H225397   1.462   2.747   6.945 -1.1702  1.4490 -0.9034
 1280TIP3   OH225398   6.124   3.944   7.773  0.5992 -0.5338  0.6172
 1280TIP3    H125399   6.075   3.913   7.697 -1.7646 -1.3283  2.3786
 1280TIP3    H225400   6.107   4.038   7.776  1.3914 -0.3396 -0.2512
 1281TIP3   OH225401   3.974   4.314   8.530 -0.8422 -0.1954  0.6288
 1281TIP3    H125402   4.030   4.256   8.479 -0.4282  0.6256  0.1361
 1281TIP3    H225403   4.020   4.326   8.613 -0.9299 -0.5681  0.7307
 1282TIP3   OH225404   4.473   5.526   8.199 -0.2554 -0.3779 -0.1135
 1282TIP3    H125405   4.542   5.535   8.265 -0.0091 -2.8848  0.0672
 1282TIP3    H225406   4.392   5.537   8.249 -0.0473  0.3405  0.0873
 1283TIP3   OH225407   0.457   0.138   0.114  0.0221 -0.3625 -0.0989
 1283TIP3    H125408   0.393   0.174   0.175  0.8530 -0.5422  0.9121
 1283TIP3    H225409   0.515   0.085   0.169  1.3168  0.1913 -0.8975
 1284TIP3   OH225410   5.021   0.064   2.641  0.0307 -0.0162  0.5524
 1284TIP3    H125411   4.973   0.080   2.560  1.4536  2.6433  0.1118
 1284TIP3    H225412   4.970   0.112   2.707  0.1142 -0.2757  0.8072
 1285TIP3   OH225413   1.220   0.801   1.001  0.0721  0.0997 -0.6188
 1285TIP3    H125414   1.161   0.822   1.074 -0.7760 -0.7871 -1.0249
 1285TIP3    H225415   1.308   0.815   1.037 -0.3459  2.3729 -0.2704
 1286TIP3   OH225416   2.990   3.158   6.970 -0.0633  0.4796  0.4716
 1286TIP3    H125417   3.017   3.249   6.980 -2.5208  1.2157  1.1053
 1286TIP3    H225418   2.986   3.144   6.875  2.3830  0.2990  0.3406
 1287TIP3   OH225419   4.162   1.999   0.304  0.0737 -0.4260  0.4067
 1287TIP3    H125420   4.198   1.960   0.384 -0.7599 -2.8724 -0.3134
 1287TIP3    H225421   4.068   2.006   0.322  0.0617  0.3142  0.1087
 1288TIP3   OH225422   1.862   0.627   7.714 -0.0708 -0.6093  0.4963
 1288TIP3    H125423   1.890   0.638   7.804  1.7948  0.3153 -0.1639
 1288TIP3    H225424   1.934   0.580   7.671 -0.6220 -0.4407 -0.6715
 1289TIP3   OH225425   2.329   3.613   0.508  0.5173 -0.6206 -0.2855
 1289TIP3    H125426   2.252   3.670   0.504  0.9396  0.1665  1.6088
 1289TIP3    H225427   2.320   3.555   0.433 -0.9676  0.6512 -1.1594
 1290TIP3   OH225428   2.503   1.343   7.078  0.6854  0.1335 -0.6713
 1290TIP3    H125429   2.475   1.432   7.056 -0.1660  0.2005  0.5326
 1290TIP3    H225430   2.425   1.289   7.062  0.2083  0.1003  1.4372
 1291TIP3   OH225431   5.938   6.040   0.020 -0.1227  0.0169 -0.1979
 1291TIP3    H125432   5.917   5.953  -0.014 -2.2867 -0.0590  1.0808
 1291TIP3    H225433   5.853   6.076   0.045  0.9909  1.3216  2.0122
 1292TIP3   OH225434   3.782   2.860   8.265 -0.0175  0.4260 -0.0419
 1292TIP3    H125435   3.687   2.857   8.254 -0.2680 -2.8065  1.6625
 1292TIP3    H225436   3.796   2.929   8.329 -1.3445  0.3556  0.3618
 1293TIP3   OH225437   4.664   2.293   7.120  0.2672  0.4649 -0.8061
 1293TIP3    H125438   4.714   2.355   7.173  0.2245 -1.2054  1.3271
 1293TIP3    H225439   4.725   2.264   7.052  1.2181  0.7121 -0.0785
 1294TIP3   OH225440   0.092   5.701   8.051 -0.6419  0.2998 -0.3486
 1294TIP3    H125441   0.054   5.614   8.042 -2.1062  0.8770 -0.1330
 1294TIP3    H225442   0.073   5.744   7.967 -0.6032  0.6416 -0.1842
 1295TIP3   OH225443   0.420   0.870   8.388 -0.1537  0.1859 -0.0289
 1295TIP3    H125444   0.400   0.793   8.335  1.6662  0.0485 -0.5606
 1295TIP3    H225445   0.450   0.835   8.472 -2.4861  0.4012  0.9778
 1296TIP3   OH225446   5.372   5.556   7.457  0.1009 -0.1836  0.7130
 1296TIP3    H125447   5.318   5.486   7.420 -0.0036  0.6696 -0.8589
 1296TIP3    H225448   5.458   5.517   7.470  0.7712 -0.0564 -2.4961
 1297TIP3   OH225449   1.806   4.281   2.081  0.2283 -0.8661  0.1362
 1297TIP3    H125450   1.723   4.297   2.126 -1.2741  1.1715 -2.9355
 1297TIP3    H225451   1.873   4.292   2.148 -1.8811 -1.0876  2.4335
 1298TIP3   OH225452   3.295   1.186   0.204  0.3357  0.0459  0.0944
 1298TIP3    H125453   3.290   1.094   0.229 -0.9482  0.0481 -0.1107
 1298TIP3    H225454   3.338   1.228   0.279  0.7454 -0.6804  0.2781
 1299TIP3   OH225455   2.708   4.073   8.436 -0.3610 -0.1713 -0.9768
 1299TIP3    H125456   2.783   4.079   8.495 -0.1560 -0.6609 -1.1837
 1299TIP3    H225457   2.649   4.010   8.478 -0.7289  0.3237 -0.7411
 1300TIP3   OH225458   1.154   3.700   1.012 -0.2982  0.1416 -0.2308
 1300TIP3    H125459   1.181   3.609   1.027 -0.7059 -0.0654 -0.7076
 1300TIP3    H225460   1.064   3.703   1.045  0.9803  1.4513  3.7038
 1301TIP3   OH225461   2.083   2.848   8.484 -0.4761  0.6839  0.1758
 1301TIP3    H125462   2.086   2.753   8.473  0.3141  0.6021  0.9144
 1301TIP3    H225463   2.075   2.861   8.579 -1.2511  1.3504  0.0257
 1302TIP3   OH225464   3.823   2.396   1.669 -0.0608 -0.5386  0.1636
 1302TIP3    H125465   3.782   2.476   1.700  2.4294  1.1234 -0.5330
 1302TIP3    H225466   3.873   2.364   1.745  0.0370 -0.6504  0.0527
 1303TIP3   OH225467   0.057   6.761   2.380 -0.4573 -0.1922 -0.2086
 1303TIP3    H125468   0.123   6.783   2.447 -0.1844  0.9103 -0.8249
 1303TIP3    H225469  -0.026   6.787   2.420 -0.2664  0.7517 -0.3993
 1304TIP3   OH225470   5.241   1.309   2.194  0.2112  0.8439  0.2970
 1304TIP3    H125471   5.243   1.366   2.271  0.6137 -0.2288  1.1060
 1304TIP3    H225472   5.307   1.347   2.136  0.3079  1.3452  0.7134
 1305TIP3   OH225473   1.705   6.426   8.185 -0.4085 -0.3914  0.4237
 1305TIP3    H125474   1.795   6.401   8.164 -0.2556 -1.5534  2.1850
 1305TIP3    H225475   1.650   6.367   8.132 -0.0916 -0.9189  0.6682
 1306TIP3   OH225476   0.414   5.308   1.672 -0.3152  0.0250 -0.3584
 1306TIP3    H125477   0.432   5.244   1.741 -2.2354  0.0398  0.2183
 1306TIP3    H225478   0.476   5.287   1.603 -0.1550 -1.7563  0.2767
 1307TIP3   OH225479   6.486   6.366   2.353  0.1814  0.1427  0.1722
 1307TIP3    H125480   6.413   6.312   2.322 -0.0140 -0.8727  2.2539
 1307TIP3    H225481   6.452   6.410   2.431  0.5907  2.7580 -1.0268
 1308TIP3   OH225482   5.387   2.434   0.912 -0.4099  0.3737 -0.6113
 1308TIP3    H125483   5.399   2.528   0.920 -0.9500  0.4453 -0.5946
 1308TIP3    H225484   5.381   2.402   1.002 -0.0854  0.3010 -0.6133
 1309TIP3   OH225485   1.143   2.047   6.939  0.0497 -0.1555  0.2861
 1309TIP3    H125486   1.236   2.026   6.946 -0.1491 -1.6299 -0.8935
 1309TIP3    H225487   1.136   2.103   6.862  0.1304  1.3057  1.3129
 1310TIP3   OH225488   4.605   4.615   0.346 -0.3675 -0.2363 -0.6526
 1310TIP3    H125489   4.611   4.533   0.394 -2.4910  0.4216  0.8503
 1310TIP3    H225490   4.667   4.673   0.389 -1.2474 -0.0832  0.4525
 1311TIP3   OH225491   3.386   5.124   1.232 -0.2217 -0.3215 -0.0589
 1311TIP3    H125492   3.316   5.177   1.270 -0.6684 -0.4379 -0.7140
 1311TIP3    H225493   3.405   5.165   1.148  0.0523 -0.6706 -0.1709
 1312TIP3   OH225494   4.672   3.981   7.835 -0.5689 -0.5200 -0.0392
 1312TIP3    H125495   4.596   3.934   7.867 -2.2267  1.3787 -0.9589
 1312TIP3    H225496   4.729   3.991   7.911 -1.2927 -1.8141  0.7025
 1313TIP3   OH225497   0.176   4.048   2.096  0.2787 -0.1160  0.2579
 1313TIP3    H125498   0.202   4.051   2.003  1.8735 -0.7497  0.6478
 1313TIP3    H225499   0.185   3.956   2.121 -1.1053 -0.1294  0.8177
 1314TIP3   OH225500   4.691   6.798   7.439 -0.0268 -0.0962 -0.1820
 1314TIP3    H125501   4.754   6.756   7.382  1.5477 -1.0211  2.0949
 1314TIP3    H225502   4.740   6.866   7.484 -1.3741  1.0237 -0.3303
 1315TIP3   OH225503   4.100   4.656   1.414 -0.4750 -0.1734 -0.8335
 1315TIP3    H125504   4.189   4.663   1.380 -0.3603 -1.0922 -0.7489
 1315TIP3    H225505   4.112   4.631   1.506 -0.8091  0.4454 -0.6205
 1316TIP3   OH225506   5.379   1.546   1.818 -0.0364  0.5056 -0.4147
 1316TIP3    H125507   5.292   1.547   1.856  1.0377  1.6039  2.2390
 1316TIP3    H225508   5.410   1.456   1.833  0.1864  0.7904  0.9579
 1317TIP3   OH225509   0.810   6.627   7.644 -0.4488 -0.0887  0.5715
 1317TIP3    H125510   0.840   6.559   7.584 -0.5495 -0.1672  0.6107
 1317TIP3    H225511   0.868   6.701   7.627 -0.4202 -0.1414  0.4400
 1318TIP3   OH225512   6.671   2.907   0.041  0.2603 -0.5015 -0.1302
 1318TIP3    H125513   6.694   2.914  -0.051 -0.0804 -1.3707 -0.2918
 1318TIP3    H225514   6.597   2.967   0.052  0.7918  0.1851 -0.2368
 1319TIP3   OH225515   5.924   0.282   1.203 -0.3787 -0.3231  0.0137
 1319TIP3    H125516   5.938   0.207   1.261 -0.6128 -0.2035  0.2287
 1319TIP3    H225517   5.831   0.303   1.214 -0.1094  0.6085  0.7003
 1320TIP3   OH225518   3.364   0.346   2.190 -0.4162 -0.1076  0.3311
 1320TIP3    H125519   3.366   0.267   2.136  0.9833 -0.7769  1.3031
 1320TIP3    H225520   3.450   0.385   2.179  0.6351 -1.2714  3.4605
 1321TIP3   OH225521   6.583   4.095   2.679  0.5842  0.1618  0.0416
 1321TIP3    H125522   6.530   4.174   2.668  0.1740  0.1506  1.6515
 1321TIP3    H225523   6.621   4.103   2.766 -0.2308 -1.8393  0.6503
 1322TIP3   OH225524   6.271   1.167   8.499 -1.0908 -0.1286  0.0884
 1322TIP3    H125525   6.352   1.191   8.454 -1.6212 -1.0636 -1.4382
 1322TIP3    H225526   6.276   1.212   8.583  0.3907  0.9145 -0.5152
 1323TIP3   OH225527   0.153   2.880   7.882  0.5528 -0.3500 -0.1479
 1323TIP3    H125528   0.220   2.881   7.950  1.1430 -0.2906 -0.7154
 1323TIP3    H225529   0.195   2.923   7.807 -0.3053  0.1660 -0.3442
 1324TIP3   OH225530   6.833   2.712   1.987  0.3480 -0.2070 -0.1109
 1324TIP3    H125531   6.805   2.668   2.067 -0.3082  0.8313  0.2627
 1324TIP3    H225532   6.889   2.784   2.017 -0.4868  0.6421 -0.4969
 1325TIP3   OH225533   5.023   3.450   1.067 -0.4363  0.0241 -0.2669
 1325TIP3    H125534   4.999   3.364   1.102 -0.9226 -0.0838 -0.8301
 1325TIP3    H225535   5.086   3.430   0.998  0.3239  0.2133  0.3669
 1326TIP3   OH225536   2.228   4.699   1.414  0.0917 -0.0009  0.7151
 1326TIP3    H125537   2.148   4.749   1.402 -1.5743 -2.0224  2.4049
 1326TIP3    H225538   2.226   4.632   1.345  1.0198  0.6870 -0.0092
 1327TIP3   OH225539   4.240   6.446   1.977  0.2062 -0.2898 -0.0834
 1327TIP3    H125540   4.220   6.353   1.966 -0.2725 -0.1757 -0.2448
 1327TIP3    H225541   4.165   6.490   1.937  1.2081  0.1738 -1.5325
 1328TIP3   OH225542   2.983   6.479   0.734  0.0308 -0.2983 -0.5210
 1328TIP3    H125543   3.075   6.462   0.714 -0.0573 -0.6964 -0.5961
 1328TIP3    H225544   2.962   6.558   0.684  0.1596 -0.5683 -1.0142
 1329TIP3   OH225545   1.424   6.721   2.494 -0.0686 -1.6567 -0.0758
 1329TIP3    H125546   1.354   6.783   2.518 -1.3011 -2.4323 -1.5050
 1329TIP3    H225547   1.501   6.776   2.482 -1.2888 -0.2404 -2.0179
 1330TIP3   OH225548   0.114   1.159   1.503  0.3340  0.1676 -0.8056
 1330TIP3    H125549   0.077   1.211   1.432 -0.8941 -1.2027 -1.2204
 1330TIP3    H225550   0.138   1.223   1.570 -3.0935  1.2237 -0.3734
 1331TIP3   OH225551   6.343   5.743   0.139  0.5853 -0.2029  0.4080
 1331TIP3    H125552   6.338   5.662   0.088 -0.1149 -0.0097  0.1583
 1331TIP3    H225553   6.278   5.732   0.208  0.3494  0.2211  0.2584
 1332TIP3   OH225554   3.634   6.652   8.521  0.1344 -0.5027  0.2084
 1332TIP3    H125555   3.635   6.557   8.532  0.1194 -0.8819 -2.4067
 1332TIP3    H225556   3.726   6.676   8.511  0.1583 -0.1769  1.1087
 1333TIP3   OH225557   0.895   1.708   6.880 -0.1279  0.2161 -0.0073
 1333TIP3    H125558   0.803   1.723   6.903 -0.5166 -0.2268 -1.2289
 1333TIP3    H225559   0.942   1.724   6.962 -1.2276  1.0167  0.5045
 1334TIP3   OH225560   6.272   5.202   1.831  0.4016  0.5702 -0.5979
 1334TIP3    H125561   6.304   5.253   1.756  0.8692  2.6409  0.9453
 1334TIP3    H225562   6.177   5.207   1.825  0.4374  1.9411 -0.3029
 1335TIP3   OH225563   2.623   3.025   0.794 -0.5511  0.3327 -0.0578
 1335TIP3    H125564   2.616   3.057   0.884  0.6934  0.0635  0.1542
 1335TIP3    H225565   2.592   2.935   0.799  1.6778 -0.4621  0.6177
 1336TIP3   OH225566   5.345   5.584   0.786  0.1776  0.3476 -0.1476
 1336TIP3    H125567   5.281   5.565   0.718 -0.5905  0.8072  0.4292
 1336TIP3    H225568   5.297   5.572   0.868  0.7473  0.9922  0.2938
 1337TIP3   OH225569   5.338   0.429   2.415 -0.2202  0.0745  0.0544
 1337TIP3    H125570   5.326   0.362   2.482  1.9845 -1.1021 -0.6383
 1337TIP3    H225571   5.355   0.509   2.465 -0.0230 -0.4839  0.9175
 1338TIP3   OH225572   3.900   1.123   1.234 -0.2095 -0.6388  0.0456
 1338TIP3    H125573   3.868   1.208   1.206 -1.0423 -1.3305 -1.1953
 1338TIP3    H225574   3.936   1.138   1.321  3.0534  1.7738 -1.5001
 1339TIP3   OH225575   6.764   1.366   1.784  0.2179  0.6271 -0.0811
 1339TIP3    H125576   6.774   1.426   1.857  2.4155  2.2975 -1.6084
 1339TIP3    H225577   6.795   1.282   1.818 -1.9247  0.5175  1.7904
 1340TIP3   OH225578   0.993   5.776   0.045 -0.4408  0.1028  0.0978
 1340TIP3    H125579   1.018   5.844   0.108  0.6342  1.3643 -1.6166
 1340TIP3    H225580   0.917   5.812  -0.000  0.7113  0.6647 -1.4868
 1341TIP3   OH225581   3.610   5.044   0.281 -0.5336 -0.1072  0.0782
 1341TIP3    H125582   3.544   4.975   0.272  0.2531 -0.8839  0.1558
 1341TIP3    H225583   3.694   4.999   0.269 -0.0050  0.8325  0.1602
 1342TIP3   OH225584   6.857   6.147   0.813  0.3617 -0.0706  0.6390
 1342TIP3    H125585   6.782   6.207   0.810  0.6190  0.2498  0.5299
 1342TIP3    H225586   6.819   6.060   0.805  0.1465  0.1731 -1.3525
 1343TIP3   OH225587   2.508   2.109   0.823  0.1669 -0.1370  0.2770
 1343TIP3    H125588   2.443   2.113   0.752 -0.8568 -0.4451  1.1782
 1343TIP3    H225589   2.568   2.039   0.797  0.0273  0.0073 -0.4622
 1344TIP3   OH225590   1.487   3.811   2.619 -0.0287 -0.6056  0.7628
 1344TIP3    H125591   1.430   3.782   2.548 -0.8288 -1.3555  1.6695
 1344TIP3    H225592   1.446   3.774   2.698  0.9598  0.0072  1.5787
 1345TIP3   OH225593   5.087   2.361   7.327 -0.3252  0.8427  0.6944
 1345TIP3    H125594   5.088   2.457   7.330 -2.4003  1.0080 -1.1590
 1345TIP3    H225595   4.995   2.338   7.338 -0.5159 -0.6577 -2.7280
 1346TIP3   OH225596   4.026   6.833   8.117 -0.3595 -0.2922  0.2742
 1346TIP3    H125597   4.090   6.880   8.063 -2.1192  1.8364 -0.1042
 1346TIP3    H225598   4.050   6.853   8.207  0.6041 -1.0863  0.2062
 1347TIP3   OH225599   4.655   3.985   7.266 -0.3936 -0.2040  0.4895
 1347TIP3    H125600   4.619   4.064   7.225 -0.1665  1.1055  2.6027
 1347TIP3    H225601   4.747   4.007   7.282 -0.8956  0.2404  3.4002
 1348TIP3   OH225602   4.904   2.587   8.140  0.2939 -0.1150  0.0476
 1348TIP3    H125603   4.992   2.613   8.167  0.1551  2.1374 -1.3662
 1348TIP3    H225604   4.860   2.560   8.221  2.0692 -0.7187  0.8571
 1349TIP3   OH225605   0.593   2.035   7.839 -0.0897  0.0524 -0.4664
 1349TIP3    H125606   0.503   2.007   7.854 -0.2389  0.2259 -1.0416
 1349TIP3    H225607   0.637   2.017   7.922 -1.0163  1.4244  0.3660
 1350TIP3   OH225608   4.715   3.916   8.689  0.1137 -0.0651  0.2132
 1350TIP3    H125609   4.798   3.919   8.736  0.0994 -0.8016  0.2949
 1350TIP3    H225610   4.695   3.822   8.682 -0.4577  0.0893 -0.2431
 1351TIP3   OH225611   4.174   1.549   7.496 -0.0629 -0.4393 -0.7497
 1351TIP3    H125612   4.159   1.595   7.413  1.7144 -1.0301 -1.4395
 1351TIP3    H225613   4.242   1.600   7.540 -1.5345  0.3296  0.7752
 1352TIP3   OH225614   0.047   0.051   7.296 -0.8918 -0.1986  0.0916
 1352TIP3    H125615   0.041   0.145   7.279  1.0176  0.3067  1.8158
 1352TIP3    H225616   0.076   0.013   7.213 -2.1541  0.6187 -0.7676
 1353TIP3   OH225617   1.711   4.856   2.159 -0.0389  0.3525 -0.5858
 1353TIP3    H125618   1.742   4.766   2.157  0.7209  0.6122 -0.6330
 1353TIP3    H225619   1.638   4.857   2.097 -0.3911 -0.3466 -0.1960
 1354TIP3   OH225620   3.424   6.605   1.477 -0.4250 -0.4294 -0.0555
 1354TIP3    H125621   3.452   6.539   1.540 -0.6848 -0.0696  0.4430
 1354TIP3    H225622   3.328   6.601   1.480 -0.4992  1.3001  1.4303
 1355TIP3   OH225623   1.240   1.488   1.006 -0.3597 -0.6673  0.4962
 1355TIP3    H125624   1.204   1.552   0.944 -1.0840 -2.6672 -1.2515
 1355TIP3    H225625   1.174   1.482   1.075 -0.8664 -0.4249  0.0424
 1356TIP3   OH225626   4.147   5.557   1.020 -0.9005 -0.1757 -0.3535
 1356TIP3    H125627   4.201   5.577   0.944 -0.4472 -0.8179 -0.2089
 1356TIP3    H225628   4.059   5.542   0.984 -1.4593  2.6044 -0.4244
 1357TIP3   OH225629   5.187   3.611   1.290  0.0376 -0.2248  0.1476
 1357TIP3    H125630   5.135   3.598   1.211 -2.6298 -0.1338  1.7806
 1357TIP3    H225631   5.176   3.703   1.311  0.3108 -0.3526  0.8817
 1358TIP3   OH225632   3.345   6.130   0.759  0.4021  0.1729 -0.7884
 1358TIP3    H125633   3.265   6.091   0.794  1.6583 -1.5578  0.3477
 1358TIP3    H225634   3.383   6.177   0.834  1.2766 -0.4650 -0.8129
 1359TIP3   OH225635   3.766   3.651   6.927  0.1335 -0.0634  0.5566
 1359TIP3    H125636   3.801   3.603   6.852  1.1345  0.0985  0.8945
 1359TIP3    H225637   3.753   3.584   6.994 -2.0576 -0.4300 -0.1617
 1360TIP3   OH225638   4.852   4.109   1.034 -0.6351  0.1158 -0.2918
 1360TIP3    H125639   4.922   4.171   1.054 -2.1587  1.8423  0.0238
 1360TIP3    H225640   4.781   4.164   1.000 -2.0643 -1.4635  0.0023
 1361TIP3   OH225641   2.931   1.992   8.249  0.5622 -0.3885 -0.1054
 1361TIP3    H125642   2.867   2.003   8.319  0.7838  0.7841 -0.0791
 1361TIP3    H225643   2.943   1.897   8.244 -2.0935 -0.7865 -0.9422
 1362TIP3   OH225644   4.825   6.096   7.739 -0.1259 -0.0800  0.3607
 1362TIP3    H125645   4.765   6.089   7.665  2.5378 -1.3523 -1.8646
 1362TIP3    H225646   4.866   6.182   7.730 -1.2183  0.6174  1.6371
 1363TIP3   OH225647   3.693   0.641   0.420  0.5410  0.2758 -0.4288
 1363TIP3    H125648   3.612   0.609   0.459  1.3399  1.5493  2.5942
 1363TIP3    H225649   3.748   0.563   0.412 -0.0564 -0.2028  0.0110
 1364TIP3   OH225650   2.716   4.964   7.754  0.3465  0.2557  0.3754
 1364TIP3    H125651   2.657   4.918   7.814  0.9174 -1.9339 -0.6207
 1364TIP3    H225652   2.679   4.946   7.667  1.2528  0.7107 -0.1118
 1365TIP3   OH225653   0.363   1.942   8.665  0.2710  0.1334 -0.0694
 1365TIP3    H125654   0.398   1.864   8.707  0.5457 -0.1527 -0.8012
 1365TIP3    H225655   0.332   1.911   8.579 -0.6241  0.6216  0.0637
 1366TIP3   OH225656   3.434   6.263   0.318 -0.0036  1.1233  0.0924
 1366TIP3    H125657   3.340   6.268   0.333 -0.1032 -0.4061  0.0839
 1366TIP3    H225658   3.443   6.243   0.225  0.2391 -0.5770  0.4470
 1367TIP3   OH225659   6.509   4.614   1.764 -0.3103  0.1518 -0.5790
 1367TIP3    H125660   6.534   4.543   1.705  0.9523 -0.8762  1.1085
 1367TIP3    H225661   6.414   4.619   1.757 -0.2620 -0.4923 -2.0486
 1368TIP3   OH225662   0.539   3.347   0.021  0.2016 -0.2478 -0.2723
 1368TIP3    H125663   0.554   3.432  -0.021 -1.1299 -0.5647 -1.4464
 1368TIP3    H225664   0.482   3.300  -0.039 -0.6170 -1.2679  1.2336
 1369TIP3   OH225665   6.465   0.420   0.037 -0.2741  0.1825 -0.0517
 1369TIP3    H125666   6.473   0.380   0.124  0.0508 -1.0400 -0.6156
 1369TIP3    H225667   6.547   0.469   0.026  0.3930 -0.9231 -0.2538
 1370TIP3   OH225668   3.672   5.181   7.173 -0.3919 -0.1494  0.2292
 1370TIP3    H125669   3.688   5.123   7.099 -0.6679  0.7681 -0.5724
 1370TIP3    H225670   3.726   5.145   7.243 -0.9677 -1.6776 -0.0716
 1371TIP3   OH225671   5.249   3.141   1.263 -0.0248 -0.1135  0.0733
 1371TIP3    H125672   5.301   3.113   1.338 -1.8078 -0.2650  1.3029
 1371TIP3    H225673   5.273   3.233   1.250  0.1507 -0.0320  0.9520
 1372TIP3   OH225674   0.667   0.389   8.050  0.1292  0.2915  0.7411
 1372TIP3    H125675   0.699   0.340   8.126 -0.0760 -0.2298  0.4926
 1372TIP3    H225676   0.634   0.322   7.990 -1.0586  0.7749  0.8139
 1373TIP3   OH225677   5.405   3.238   8.164  0.6044 -0.1506  0.0932
 1373TIP3    H125678   5.389   3.279   8.249  1.2696  1.3934 -0.4931
 1373TIP3    H225679   5.499   3.246   8.150  0.4287  0.1772 -1.0433
 1374TIP3   OH225680   2.477   1.696   1.594  0.2234  0.0007 -0.2718
 1374TIP3    H125681   2.452   1.677   1.685  0.9919 -1.4994 -0.3504
 1374TIP3    H225682   2.460   1.614   1.547 -0.7187  0.9378 -1.6228
 1375TIP3   OH225683   1.566   5.454   7.444  0.3773 -0.4159  0.1283
 1375TIP3    H125684   1.583   5.502   7.363  1.6855 -2.3373 -0.8165
 1375TIP3    H225685   1.488   5.402   7.425  1.3386 -1.7281 -0.3499
 1376TIP3   OH225686   4.209   1.958   8.083  0.0933  0.0677 -0.4460
 1376TIP3    H125687   4.223   2.041   8.129 -4.0637  0.4938  0.4839
 1376TIP3    H225688   4.203   1.892   8.152  1.1310 -0.6577 -1.0196
 1377TIP3   OH225689   1.896   0.019   8.080  0.6504 -0.2223 -0.2737
 1377TIP3    H125690   1.958  -0.010   8.146  0.6097  0.0738 -0.1007
 1377TIP3    H225691   1.932  -0.010   7.997  0.3145 -1.2777 -0.0612
 1378TIP3   OH225692   3.588   3.662   6.651  0.0925 -0.1056 -0.3620
 1378TIP3    H125693   3.642   3.740   6.655  1.9733 -1.3799  1.8669
 1378TIP3    H225694   3.626   3.609   6.581  0.2138  0.0264 -0.3958
 1379TIP3   OH225695   5.099   2.299   8.266 -0.1343  0.1511  0.4338
 1379TIP3    H125696   5.121   2.258   8.182  0.8799  0.1953  0.6674
 1379TIP3    H225697   5.003   2.293   8.271 -0.4060  1.6252 -1.4989
 1380TIP3   OH225698   4.608   2.675   0.753 -0.0431 -0.2323 -0.4805
 1380TIP3    H125699   4.635   2.734   0.823 -0.2693 -0.4022 -0.2505
 1380TIP3    H225700   4.516   2.657   0.770 -0.2245  0.0996 -1.0918
 1381TIP3   OH225701   2.858   1.004   2.544  0.3056  0.7155 -0.0288
 1381TIP3    H125702   2.910   1.017   2.465  0.6798  1.4022  0.3220
 1381TIP3    H225703   2.921   1.009   2.615  0.3382 -2.1053  0.2373
 1382TIP3   OH225704   3.618   5.429   7.915 -0.1680  0.0984 -0.2411
 1382TIP3    H125705   3.668   5.504   7.948  0.4825 -0.8147  0.9628
 1382TIP3    H225706   3.685   5.366   7.888 -0.6601 -0.7699  0.5004
 1383TIP3   OH225707   5.445   6.548   1.828  0.1012  0.3863 -0.2321
 1383TIP3    H125708   5.468   6.549   1.921  0.1316 -2.7846 -0.0903
 1383TIP3    H225709   5.354   6.578   1.825 -0.0567  0.0727  0.8966
 1384TIP3   OH225710   3.449   0.232   8.010  0.1432 -0.2665  0.4415
 1384TIP3    H125711   3.373   0.196   7.964 -0.1331 -1.4415  1.7638
 1384TIP3    H225712   3.508   0.260   7.940 -0.1193 -2.2723 -0.6618
 1385TIP3   OH225713   2.889   5.712   1.655 -1.1333  0.1405  0.5193
 1385TIP3    H125714   2.860   5.713   1.747  1.0181 -1.6222  1.3036
 1385TIP3    H225715   2.982   5.690   1.659 -0.9856 -0.0490 -2.1094
 1386TIP3   OH225716   2.382   1.243   1.650  0.0504  0.1094 -0.6930
 1386TIP3    H125717   2.339   1.266   1.733  0.3215 -1.7206  0.0132
 1386TIP3    H225718   2.413   1.326   1.615  0.5956  0.8745  1.4303
 1387TIP3   OH225719   3.801   0.536   7.805  0.0713  0.2769  0.4292
 1387TIP3    H125720   3.883   0.487   7.816  0.6354  1.0749 -0.0973
 1387TIP3    H225721   3.775   0.519   7.714 -0.2975  0.0972  0.5680
 1388TIP3   OH225722   5.916   4.976   0.473 -0.5370  0.6570  1.2811
 1388TIP3    H125723   5.919   4.883   0.452 -0.4084  1.2007 -1.5712
 1388TIP3    H225724   5.901   5.019   0.389  1.3243  3.3273  2.1653
 1389TIP3   OH225725   3.078   6.566   7.881  0.1356 -0.0696 -0.3188
 1389TIP3    H125726   3.084   6.615   7.798  1.4559 -1.5266 -1.1454
 1389TIP3    H225727   3.083   6.474   7.855  0.7432 -0.5615  1.3881
 1390TIP3   OH225728   1.487   3.358   1.616 -0.4463 -0.5929 -0.2394
 1390TIP3    H125729   1.548   3.319   1.678 -1.0453  0.2189  0.8869
 1390TIP3    H225730   1.458   3.440   1.658  0.7904  1.1358 -2.5116
 1391TIP3   OH225731   5.473   0.386   7.151 -0.9633  0.1797 -0.1328
 1391TIP3    H125732   5.509   0.300   7.174 -0.5878  0.9498  2.5728
 1391TIP3    H225733   5.548   0.433   7.113 -0.5244  0.0498  0.5468
 1392TIP3   OH225734   4.978   1.479   7.942 -0.3584 -0.6206  0.2993
 1392TIP3    H125735   5.047   1.545   7.946 -0.7699 -0.2042  0.5937
 1392TIP3    H225736   4.993   1.434   7.858 -1.1316  1.0328 -0.7788
 1393TIP3   OH225737   5.600   5.407   7.483 -0.7654 -0.0386 -0.0707
 1393TIP3    H125738   5.602   5.394   7.578 -0.5247 -3.7402 -0.4375
 1393TIP3    H225739   5.692   5.414   7.458 -0.8012  0.3009 -0.1128
 1394TIP3   OH225740   0.620   1.727   6.936  0.0763 -0.6191  0.1688
 1394TIP3    H125741   0.586   1.815   6.954  0.0850 -1.0906  2.8330
 1394TIP3    H225742   0.543   1.676   6.913  0.0623  0.0080 -1.3412
 1395TIP3   OH225743   5.190   4.921   7.768  0.1135 -0.0268  0.5476
 1395TIP3    H125744   5.229   4.997   7.811  0.3786 -0.4090  0.9892
 1395TIP3    H225745   5.138   4.878   7.836 -0.7363  0.2265  0.0814
 1396TIP3   OH225746   1.292   4.428   8.644  0.4606 -0.3983 -0.4313
 1396TIP3    H125747   1.254   4.367   8.708 -1.2815  0.1675 -0.8681
 1396TIP3    H225748   1.218   4.452   8.588  1.4307  1.0136 -1.1485
 1397TIP3   OH225749   2.583   5.558   2.318 -0.2691  0.5881  0.7057
 1397TIP3    H125750   2.625   5.640   2.344 -0.2195  0.9453 -0.4407
 1397TIP3    H225751   2.654   5.494   2.321 -0.1451  0.7333  0.9182
 1398TIP3   OH225752   0.310   6.108   7.845  0.3279 -0.2080 -0.1719
 1398TIP3    H125753   0.353   6.051   7.781 -0.7174  0.2493 -1.3163
 1398TIP3    H225754   0.313   6.195   7.806 -1.0381 -0.0579  0.0203
 1399TIP3   OH225755   1.498   3.590   2.211  0.2211 -0.3808 -0.3876
 1399TIP3    H125756   1.529   3.599   2.121  1.1441  1.0059  0.0399
 1399TIP3    H225757   1.523   3.501   2.236  1.7007 -0.1316 -0.8823
 1400TIP3   OH225758   5.549   4.265   1.292 -0.2215 -0.4135 -0.1973
 1400TIP3    H125759   5.460   4.234   1.310 -0.8221  1.2624 -0.1206
 1400TIP3    H225760   5.584   4.290   1.378  0.0403 -0.3440 -0.3229
 1401TIP3   OH225761   3.588   1.162   8.679 -0.5402  0.1517 -0.0420
 1401TIP3    H125762   3.574   1.242   8.628 -0.3255  1.8319  2.3646
 1401TIP3    H225763   3.683   1.152   8.683 -0.5571 -1.5553 -2.1480
 1402TIP3   OH225764   0.401   0.206   8.530  0.3782 -0.1226  0.1063
 1402TIP3    H125765   0.418   0.186   8.623  1.1371 -0.4644 -0.0928
 1402TIP3    H225766   0.314   0.170   8.514  1.2463 -2.4072  0.0574
 1403TIP3   OH225767   4.280   3.984   0.971  0.1824  0.5385  0.1803
 1403TIP3    H125768   4.188   4.003   0.952 -0.4662  0.1522  2.6056
 1403TIP3    H225769   4.296   3.899   0.928 -0.1143  1.2955 -1.5020
 1404TIP3   OH225770   2.672   1.916   6.513  0.2494  0.3229  0.5933
 1404TIP3    H125771   2.746   1.861   6.540  0.1282  0.9953  2.4349
 1404TIP3    H225772   2.701   2.005   6.529 -0.3926  0.6824 -0.1942
 1405TIP3   OH225773   2.756   6.531   7.703 -0.0952  0.2496 -0.1853
 1405TIP3    H125774   2.756   6.435   7.697 -1.3068  0.2699 -0.7289
 1405TIP3    H225775   2.779   6.549   7.794 -0.3816 -0.5745  0.0607
 1406TIP3   OH225776   6.095   0.976   2.165 -0.2486  0.5277 -0.0612
 1406TIP3    H125777   6.078   0.929   2.246  0.2086 -0.8709 -0.7568
 1406TIP3    H225778   6.185   1.008   2.175  0.2606 -0.7196 -0.5116
 1407TIP3   OH225779   1.455   3.649   1.740 -0.6496 -0.0037  0.1269
 1407TIP3    H125780   1.369   3.651   1.781  0.3027  0.9771  2.2622
 1407TIP3    H225781   1.516   3.665   1.812  1.4312 -1.9778 -1.0761
 1408TIP3   OH225782   6.050   5.619   8.100  0.4265  0.2558 -0.2226
 1408TIP3    H125783   6.007   5.675   8.035  1.6251  0.3132 -0.9924
 1408TIP3    H225784   6.133   5.596   8.060  0.2525 -1.5291  0.3873
 1409TIP3   OH225785   5.670   2.996   8.274  0.0074 -0.2179 -0.4098
 1409TIP3    H125786   5.603   3.036   8.330  0.5759  2.0247 -1.1863
 1409TIP3    H225787   5.649   3.027   8.186  1.2145 -0.6653 -0.8792
 1410TIP3   OH225788   2.270   4.009   0.969 -0.1517  0.0989 -0.6537
 1410TIP3    H125789   2.188   3.987   1.014  0.3619 -1.1077 -0.2470
 1410TIP3    H225790   2.273   4.104   0.969 -1.2872  0.1508 -0.1798
 1411TIP3   OH225791   1.655   4.680   0.453  0.0363  0.4134 -0.2419
 1411TIP3    H125792   1.682   4.606   0.398  0.8314  0.2507  0.3522
 1411TIP3    H225793   1.670   4.757   0.398  1.3181  0.2899 -0.1020
 1412TIP3   OH225794   1.335   0.070   7.063  0.3813 -0.5318 -0.2559
 1412TIP3    H125795   1.243   0.096   7.059  0.8155  0.9768 -1.1534
 1412TIP3    H225796   1.383   0.150   7.042  1.8736 -1.5746 -0.9672
 1413TIP3   OH225797   6.246   2.376   7.279  0.5519 -0.3630  0.1697
 1413TIP3    H125798   6.181   2.310   7.254 -1.3058  2.0835 -2.0540
 1413TIP3    H225799   6.282   2.406   7.195  0.2824  2.3634  0.9355
 1414TIP3   OH225800   3.385   1.785   8.143 -0.3612  0.3412  0.0468
 1414TIP3    H125801   3.474   1.790   8.107 -0.1833 -0.1715  0.4006
 1414TIP3    H225802   3.350   1.703   8.108 -1.3860  1.4367 -1.6075
 1415TIP3   OH225803   2.756   1.757   7.595  0.2100  0.5243  0.3218
 1415TIP3    H125804   2.663   1.772   7.577 -0.0096  0.7721  1.5818
 1415TIP3    H225805   2.758   1.678   7.650  0.7133  0.6970  0.5598
 1416TIP3   OH225806   0.487   2.104   0.181  0.6218 -0.2420 -0.3987
 1416TIP3    H125807   0.514   2.183   0.136  3.2476 -1.5474 -1.3543
 1416TIP3    H225808   0.464   2.043   0.111 -2.1922 -0.1583  0.3361
 1417TIP3   OH225809   4.869   5.767   7.033  0.2439  0.2989  0.2375
 1417TIP3    H125810   4.906   5.773   6.945  0.8401  0.2567  0.4823
 1417TIP3    H225811   4.796   5.829   7.032  0.7692  0.9311 -0.0281
 1418TIP3   OH225812   2.629   2.781   7.359 -0.5589 -0.2124  0.8503
 1418TIP3    H125813   2.709   2.737   7.387 -0.7728 -0.4519  1.0866
 1418TIP3    H225814   2.615   2.750   7.270  1.2042  2.0480 -0.3142
 1419TIP3   OH225815   4.130   6.497   7.166  0.6677 -0.0748 -0.3021
 1419TIP3    H125816   4.204   6.520   7.111  1.0335  1.3505  0.7223
 1419TIP3    H225817   4.104   6.579   7.207  1.3816 -1.2562  2.7956
 1420TIP3   OH225818   1.099   5.619   0.621  0.1010  0.2568 -0.2952
 1420TIP3    H125819   1.009   5.640   0.645 -0.1738  0.5242 -1.4779
 1420TIP3    H225820   1.103   5.524   0.621 -0.9560  0.1294 -2.7424
 1421TIP3   OH225821   1.997   4.951   8.027 -0.0742 -0.1361 -0.0087
 1421TIP3    H125822   2.001   4.932   7.934 -0.3165 -0.7616  0.1040
 1421TIP3    H225823   1.931   4.890   8.062 -0.1262  0.2211  0.5363
 1422TIP3   OH225824   2.382   1.953   7.821  0.0929 -0.4547  0.5724
 1422TIP3    H125825   2.471   1.922   7.840 -0.0680 -0.8003  0.7755
 1422TIP3    H225826   2.347   1.888   7.760 -0.5110 -1.1066  1.5792
 1423TIP3   OH225827   0.059   3.108   0.203 -0.1667 -0.2042  0.2949
 1423TIP3    H125828   0.020   3.155   0.276  0.6798 -1.8040  1.8459
 1423TIP3    H225829   0.001   3.126   0.129 -2.2904 -0.3141  1.8629
 1424TIP3   OH225830   0.128   1.450   0.258  1.1240  0.3152  0.0374
 1424TIP3    H125831   0.153   1.540   0.236 -0.1961  0.5015 -0.8080
 1424TIP3    H225832   0.143   1.400   0.178 -1.2571  0.4842 -0.6130
 1425TIP3   OH225833   0.496   6.354   6.407 -0.2403  0.3800 -0.2394
 1425TIP3    H125834   0.451   6.294   6.348 -0.0550  0.2577 -0.2550
 1425TIP3    H225835   0.581   6.314   6.423 -0.7785 -0.2802  1.2035
 1426TIP3   OH225836   0.739   1.062   6.932 -0.3091 -0.0646  0.1577
 1426TIP3    H125837   0.828   1.063   6.897  0.7620  0.9373  2.6453
 1426TIP3    H225838   0.693   0.996   6.880  1.0197  1.3696 -3.0527
 1427TIP3   OH225839   1.965   1.353   7.400  0.2506  0.9896  0.0718
 1427TIP3    H125840   1.956   1.331   7.307  0.3058  2.4909 -0.3188
 1427TIP3    H225841   1.896   1.417   7.416 -0.5794 -0.1922  1.4141
 1428TIP3   OH225842   5.100   5.574   8.674  0.4412  0.6341  0.3161
 1428TIP3    H125843   5.186   5.602   8.641  0.3412  0.3646 -0.1804
 1428TIP3    H225844   5.068   5.512   8.608 -0.1728  0.7953  0.4588
 1429TIP3   OH225845   0.773   5.819   2.651 -0.5122 -0.6393 -0.1131
 1429TIP3    H125846   0.820   5.769   2.585 -0.3470 -1.2585  0.4638
 1429TIP3    H225847   0.683   5.824   2.619  0.1224  1.5547 -1.8110
 1430TIP3   OH225848   3.216   5.052   7.945  0.2811  0.5494  0.0315
 1430TIP3    H125849   3.128   5.048   7.906  0.8981 -0.1789 -1.3724
 1430TIP3    H225850   3.256   5.130   7.906  0.9192 -0.2110 -0.9063
 1431TIP3   OH225851   3.229   1.011   7.912  0.2856  0.5946 -0.2702
 1431TIP3    H125852   3.150   0.956   7.902  0.7302  0.0275 -0.7427
 1431TIP3    H225853   3.209   1.067   7.987  0.2016 -0.9247  0.9167
 1432TIP3   OH225854   4.636   5.092   0.609  0.3544 -0.0989 -0.2469
 1432TIP3    H125855   4.686   5.054   0.681  0.5110  0.0173 -0.2941
 1432TIP3    H225856   4.545   5.093   0.640 -0.3961 -4.1790 -1.6504
 1433TIP3   OH225857   2.482   6.849   7.061 -0.2311  0.4947 -0.4424
 1433TIP3    H125858   2.521   6.919   7.009 -0.4137  0.4048 -0.6982
 1433TIP3    H225859   2.503   6.873   7.152  1.8105 -0.3629 -0.6278
 1434TIP3   OH225860   3.089   1.892   0.049  0.4704 -0.7924  0.3838
 1434TIP3    H125861   3.160   1.901   0.112  1.1439 -0.3143 -0.4379
 1434TIP3    H225862   3.069   1.798   0.050  3.5906 -1.6488 -2.0006
 1435TIP3   OH225863   1.284   2.427   7.028 -0.2365 -0.1721  0.0160
 1435TIP3    H125864   1.296   2.518   7.056 -1.8138 -0.2989  1.2541
 1435TIP3    H225865   1.211   2.430   6.966 -0.4578 -0.6247  0.2492
 1436TIP3   OH225866   6.499   2.510   0.288  0.7262  0.1656  0.1431
 1436TIP3    H125867   6.433   2.502   0.220 -0.1100 -0.8915  1.0551
 1436TIP3    H225868   6.561   2.574   0.253 -1.0634  1.6470 -0.4808
 1437TIP3   OH225869   6.192   4.974   0.248  0.1751  0.1630  0.0312
 1437TIP3    H125870   6.192   4.943   0.338 -1.2981  0.6737  0.2404
 1437TIP3    H225871   6.218   4.898   0.196  0.6287 -0.2479  0.8470
 1438TIP3   OH225872   2.765   6.216   7.209 -0.2040  0.1514  0.1346
 1438TIP3    H125873   2.785   6.309   7.214  1.9858  0.0379 -3.2733
 1438TIP3    H225874   2.686   6.211   7.156 -0.2588  0.0680  0.2233
 1439TIP3   OH225875   6.261   3.312   0.152 -0.5059 -0.5320  0.1073
 1439TIP3    H125876   6.242   3.392   0.102 -1.5002 -0.1219  1.0915
 1439TIP3    H225877   6.355   3.314   0.164 -0.4219  0.0988 -0.5288
 1440TIP3   OH225878   1.061   4.150   8.357 -0.4990 -0.1522  0.1331
 1440TIP3    H125879   1.135   4.126   8.301  0.3697  0.4388  0.9683
 1440TIP3    H225880   1.077   4.242   8.379  0.5836 -0.9590  3.2835
 1441TIP3   OH225881   6.040   5.382   6.643  0.2878  0.2482 -0.4021
 1441TIP3    H125882   5.949   5.372   6.669 -0.1011  3.2266 -0.2427
 1441TIP3    H225883   6.080   5.297   6.663 -2.1791 -0.8006  0.5390
 1442TIP3   OH225884   2.632   2.782   7.060 -0.3394 -0.1360 -0.0036
 1442TIP3    H125885   2.694   2.711   7.046 -0.1671 -0.1566  0.8025
 1442TIP3    H225886   2.549   2.749   7.027 -0.4047 -0.9676  0.9673
 1443TIP3   OH225887   1.084   4.856   0.369 -0.0085  0.4118  0.5054
 1443TIP3    H125888   1.150   4.874   0.437  0.2308  1.1531  0.0915
 1443TIP3    H225889   1.083   4.936   0.316  0.5437 -0.5366 -0.9835
 1444TIP3   OH225890   1.438   1.695   8.474  0.3495  0.2485  0.1943
 1444TIP3    H125891   1.492   1.741   8.409  0.9477 -1.2671 -0.4399
 1444TIP3    H225892   1.392   1.628   8.423 -1.2572  0.7496  0.9255
 1445TIP3   OH225893   0.406   2.862   0.775 -0.0398 -0.0100 -0.3374
 1445TIP3    H125894   0.327   2.913   0.793 -0.6775 -1.2410  0.5389
 1445TIP3    H225895   0.476   2.927   0.773 -1.0810  1.1382 -1.3248
 1446TIP3   OH225896   6.176   3.217   0.517 -0.1303 -0.1695  0.0944
 1446TIP3    H125897   6.248   3.158   0.495 -0.0196  0.4088 -1.1120
 1446TIP3    H225898   6.191   3.296   0.466 -2.7958 -0.8543 -2.0334
 1447TIP3   OH225899   2.298   5.185   1.332  0.5158  0.4914 -0.5601
 1447TIP3    H125900   2.245   5.112   1.366 -1.1271  0.7036 -2.4887
 1447TIP3    H225901   2.257   5.263   1.368  0.2238  0.5982 -1.1100
 1448TIP3   OH225902   1.949   3.978   8.319 -0.4173  0.3054  0.2590
 1448TIP3    H125903   1.900   3.976   8.401  0.3948  1.0443  0.7734
 1448TIP3    H225904   1.882   3.980   8.251 -1.1137  1.7855  0.9598
 1449TIP3   OH225905   6.632   5.703   7.089 -0.9047  0.1432  0.1293
 1449TIP3    H125906   6.559   5.765   7.082 -0.2112  0.8274 -2.5528
 1449TIP3    H225907   6.601   5.625   7.043 -0.3569  0.0275 -0.0507
 1450TIP3   OH225908   0.621   6.599   2.441  0.2479  0.0730 -0.6022
 1450TIP3    H125909   0.655   6.676   2.487  1.6469 -0.4726 -0.6861
 1450TIP3    H225910   0.619   6.530   2.507  1.0848 -0.3829 -1.0309
 1451TIP3   OH225911   3.147   5.706   7.274 -0.3201 -0.0608  0.4091
 1451TIP3    H125912   3.187   5.637   7.326  0.5448  1.5763  2.0509
 1451TIP3    H225913   3.209   5.778   7.277 -1.4859  1.0558 -0.6546
 1452TIP3   OH225914   1.952   5.349   8.589  0.2270 -0.3576 -0.7273
 1452TIP3    H125915   2.046   5.331   8.595  0.3199  0.0579 -0.8851
 1452TIP3    H225916   1.910   5.271   8.624  0.6457 -0.2683 -0.0037
 1453TIP3   OH225917   4.961   3.669   0.853  0.2833  0.3104  0.2041
 1453TIP3    H125918   4.973   3.596   0.914 -0.2184  1.6607  2.0291
 1453TIP3    H225919   4.934   3.628   0.771 -1.3386 -1.4775  1.5507
 1454TIP3   OH225920   1.519   4.886   8.083 -0.2474 -0.2481  0.0421
 1454TIP3    H125921   1.588   4.844   8.031  0.4055  0.5508  0.2386
 1454TIP3    H225922   1.488   4.958   8.028 -0.8907 -0.5727 -0.0222
 1455TIP3   OH225923   6.152   5.967   8.006  0.3319  0.0528  0.0077
 1455TIP3    H125924   6.166   6.004   7.919  0.0669 -0.5007 -0.2775
 1455TIP3    H225925   6.069   5.921   7.999  1.2391 -1.6454 -0.0154
 1456TIP3   OH225926   0.159   4.230   7.699 -0.1397 -0.3225  0.2050
 1456TIP3    H125927   0.068   4.260   7.702 -0.1776 -0.4096 -0.1101
 1456TIP3    H225928   0.159   4.158   7.635 -0.0118 -0.8767  0.8170
 1457TIP3   OH225929   6.634   1.130   2.514 -0.1074 -0.1041  0.4842
 1457TIP3    H125930   6.697   1.114   2.443  1.2854 -1.8842  2.0195
 1457TIP3    H225931   6.684   1.177   2.580  0.2095 -2.8549  2.3838
 1458TIP3   OH225932   4.443   3.807   7.932  0.1957 -0.1178  0.8287
 1458TIP3    H125933   4.351   3.790   7.948  0.1463  0.6004  1.3786
 1458TIP3    H225934   4.485   3.721   7.936 -0.5151 -0.5147  0.0536
 1459TIP3   OH225935   0.911   3.567   2.773 -0.0689  0.0238  0.2557
 1459TIP3    H125936   0.945   3.650   2.738 -0.5543  0.3658  0.5816
 1459TIP3    H225937   0.829   3.591   2.817 -0.5118 -0.7189 -0.1448
 1460TIP3   OH225938   4.936   3.324   8.614  0.9326 -0.8142 -0.4083
 1460TIP3    H125939   4.991   3.255   8.651 -1.3258 -2.1675  0.6222
 1460TIP3    H225940   4.847   3.292   8.625 -0.1984  2.0724 -0.3516
 1461TIP3   OH225941   6.107   1.351   8.304 -0.1158  0.2962 -0.2372
 1461TIP3    H125942   6.151   1.285   8.358  2.2475  0.3118 -2.0042
 1461TIP3    H225943   6.097   1.310   8.219 -1.0556  1.3031 -0.6401
 1462TIP3   OH225944   3.553   3.036   7.412 -0.3096  0.0266 -0.1565
 1462TIP3    H125945   3.648   3.039   7.401 -0.2362 -2.2960 -0.8195
 1462TIP3    H225946   3.537   3.086   7.492  1.2710  1.7179 -0.8146
 1463TIP3   OH225947   1.711   0.768   1.645 -0.6690 -0.0940  0.6652
 1463TIP3    H125948   1.671   0.705   1.584  1.2425 -0.9066  0.1702
 1463TIP3    H225949   1.678   0.853   1.616 -0.2004 -0.5120 -1.2143
 1464TIP3   OH225950   5.313   0.273   1.882 -0.2870 -0.1306  0.0082
 1464TIP3    H125951   5.239   0.292   1.941 -0.1749  2.6073 -0.6078
 1464TIP3    H225952   5.284   0.306   1.797  0.8800 -0.9340 -0.7226
 1465TIP3   OH225953   0.256   3.132   0.403  0.4715 -0.2204  0.3365
 1465TIP3    H125954   0.172   3.109   0.363  0.6306  0.5239 -0.4429
 1465TIP3    H225955   0.320   3.126   0.332  0.9060  0.2370  0.6785
 1466TIP3   OH225956   4.984   6.618   0.634  0.3440  0.5158 -0.0017
 1466TIP3    H125957   5.070   6.577   0.638  0.3548  0.3125 -1.5723
 1466TIP3    H225958   4.933   6.575   0.702  1.0667 -0.3742 -0.0096
 1467TIP3   OH225959   4.566   3.569   2.116 -0.0793 -0.3352  0.6080
 1467TIP3    H125960   4.600   3.649   2.157  0.7277 -0.0589 -0.5505
 1467TIP3    H225961   4.471   3.580   2.116  0.0129  0.5334  0.6428
 1468TIP3   OH225962   3.728   6.213   1.115  0.1844  0.4414 -0.3396
 1468TIP3    H125963   3.718   6.237   1.023  0.4538  0.4769 -0.3600
 1468TIP3    H225964   3.816   6.241   1.138  0.3241 -0.0703 -0.2257
 1469TIP3   OH225965   3.501   2.155   1.999  0.3915 -0.2758 -0.1151
 1469TIP3    H125966   3.475   2.064   2.011 -0.4378  0.0131  0.4102
 1469TIP3    H225967   3.543   2.180   2.081  0.6434 -0.1893 -0.2676
 1470TIP3   OH225968   0.841   6.107   7.326 -0.8784 -0.5950 -0.1042
 1470TIP3    H125969   0.894   6.136   7.252  0.3264  0.2102  1.0324
 1470TIP3    H225970   0.885   6.027   7.357 -1.3583 -0.9099 -0.2271
 1471TIP3   OH225971   1.177   3.918   8.594  0.4009  0.4435  0.2682
 1471TIP3    H125972   1.194   3.860   8.520  1.8020  0.0979  0.8289
 1471TIP3    H225973   1.106   3.975   8.564 -0.9477 -1.4562 -0.3466
 1472TIP3   OH225974   5.196   4.936   1.199 -0.3119  0.1229 -0.4700
 1472TIP3    H125975   5.134   4.987   1.148 -0.1018 -0.1029 -0.9506
 1472TIP3    H225976   5.176   4.958   1.290  0.5447  1.9789 -0.6817
 1473TIP3   OH225977   0.369   2.551   0.275 -0.0171  0.5282  0.2215
 1473TIP3    H125978   0.377   2.543   0.180 -1.0152 -0.5223  0.2171
 1473TIP3    H225979   0.440   2.611   0.299  2.2774 -1.6025 -0.8088
 1474TIP3   OH225980   0.996   1.162   1.450 -0.0195  0.2678  0.5654
 1474TIP3    H125981   0.914   1.212   1.457 -0.1738 -0.0116  0.7530
 1474TIP3    H225982   1.065   1.229   1.456 -0.2269  0.8001 -1.7403
 1475TIP3   OH225983   3.372   6.136   2.470 -0.0245  0.1340  0.1468
 1475TIP3    H125984   3.422   6.195   2.526 -0.9572  1.7443 -0.6358
 1475TIP3    H225985   3.431   6.117   2.397  0.0343  0.7110  0.0365
 1476TIP3   OH225986   2.425   2.321   1.698  0.3642 -0.3181 -0.0527
 1476TIP3    H125987   2.453   2.265   1.626 -1.1468 -1.1206 -0.0537
 1476TIP3    H225988   2.337   2.349   1.673  0.1822  0.1271  1.0611
 1477TIP3   OH225989   6.574   4.226   7.545  0.4780 -0.0526 -0.1506
 1477TIP3    H125990   6.568   4.133   7.570  3.0729  0.0332  1.1528
 1477TIP3    H225991   6.519   4.234   7.467 -0.0699 -2.6078 -0.1102
 1478TIP3   OH225992   1.751   3.031   7.932 -0.3333 -0.0383 -0.6384
 1478TIP3    H125993   1.733   2.943   7.899  0.6626 -0.6351  0.3520
 1478TIP3    H225994   1.771   3.019   8.025  0.0618  1.2096 -0.5389
 1479TIP3   OH225995   1.083   3.753   6.885 -0.2145 -0.2931  0.5624
 1479TIP3    H125996   1.079   3.792   6.797 -0.5155  0.0107  0.7068
 1479TIP3    H225997   1.121   3.667   6.871  0.3267 -0.0034  0.2178
 1480TIP3   OH225998   6.084   3.225   7.825  0.4220 -0.7955 -0.4721
 1480TIP3    H125999   6.064   3.205   7.734 -0.8277  2.5441 -1.0296
 1480TIP3    H226000   6.154   3.290   7.821  0.8415 -1.1049  1.0164
 1481TIP3   OH226001   4.141   5.773   8.099  0.1731 -0.6306 -0.5204
 1481TIP3    H126002   4.085   5.842   8.135 -0.9475 -0.6166 -2.1686
 1481TIP3    H226003   4.130   5.699   8.158 -0.8643 -0.3181 -0.3138
 1482TIP3   OH226004   2.369   1.034   0.222  0.0994 -0.2943 -0.8725
 1482TIP3    H126005   2.344   0.974   0.151 -1.1577  0.3615 -1.0017
 1482TIP3    H226006   2.450   1.075   0.192 -1.3710  1.3574 -2.8132
 1483TIP3   OH226007   6.427   6.742   7.787  0.3172  0.2010  0.1568
 1483TIP3    H126008   6.492   6.795   7.834  2.0052 -0.7580 -1.0097
 1483TIP3    H226009   6.478   6.673   7.745 -1.2493  0.3366 -2.1445
 1484TIP3   OH226010   1.461   1.860   8.071 -0.0171 -0.8335 -0.1369
 1484TIP3    H126011   1.368   1.846   8.049 -0.3632 -0.0136  0.7440
 1484TIP3    H226012   1.508   1.835   7.991 -1.0457 -0.5214 -0.8666
 1485TIP3   OH226013   5.477   3.532   7.559 -0.3659  0.0135 -0.1578
 1485TIP3    H126014   5.559   3.506   7.602 -0.0803  0.6348 -0.3147
 1485TIP3    H226015   5.408   3.499   7.616  0.0053  0.3420  0.4861
 1486TIP3   OH226016   6.505   3.710   1.959  0.1443 -0.2068  0.0080
 1486TIP3    H126017   6.481   3.672   1.875  0.2740 -0.4227  0.0692
 1486TIP3    H226018   6.585   3.759   1.941 -0.0175  0.0339 -0.0688
 1487TIP3   OH226019   4.134   6.432   0.073  0.3886  0.0122 -0.3711
 1487TIP3    H126020   4.210   6.404   0.123  0.4433  0.2890 -0.2966
 1487TIP3    H226021   4.170   6.462  -0.011  0.1565 -1.9216 -1.2125
 1488TIP3   OH226022   3.421   3.738   0.067 -0.0967 -0.0611 -0.3013
 1488TIP3    H126023   3.503   3.723   0.115  0.0757 -0.4110 -0.6880
 1488TIP3    H226024   3.430   3.683  -0.012  0.1157  1.3418 -1.2926
 1489TIP3   OH226025   1.466   0.585   1.750  0.1002 -0.5857  0.1183
 1489TIP3    H126026   1.510   0.666   1.776  1.1886 -1.0518 -0.2137
 1489TIP3    H226027   1.383   0.587   1.797  0.7451  0.0150  1.2705
 1490TIP3   OH226028   2.876   2.115   0.466  0.6550 -0.1779  0.2002
 1490TIP3    H126029   2.792   2.159   0.454  1.4126  1.2286 -0.1055
 1490TIP3    H226030   2.941   2.179   0.438  1.8206 -1.3818  0.0780
 1491TIP3   OH226031   1.672   5.484   0.001 -0.6334 -0.3743  0.0220
 1491TIP3    H126032   1.717   5.410   0.041 -0.3915 -0.2938 -0.1017
 1491TIP3    H226033   1.741   5.546  -0.020 -0.7767 -0.3311 -0.3382
 1492TIP3   OH226034   1.569   0.035   8.648 -0.4254 -0.1642  0.0157
 1492TIP3    H126035   1.594   0.098   8.716 -0.3668 -0.5082  0.3137
 1492TIP3    H226036   1.576   0.084   8.566  1.2892 -0.2483  0.0768
 1493TIP3   OH226037   5.635   3.521   7.256  0.0370 -0.1104 -0.0266
 1493TIP3    H126038   5.646   3.512   7.161  0.9402 -1.6182  0.1899
 1493TIP3    H226039   5.540   3.521   7.269 -0.0835 -0.8431 -0.8520
 1494TIP3   OH226040   6.757   6.752   2.140 -0.6646 -0.1645 -0.1425
 1494TIP3    H126041   6.843   6.729   2.107 -0.8718 -3.7525  1.3644
 1494TIP3    H226042   6.773   6.777   2.232 -1.1883 -0.8387  0.1409
 1495TIP3   OH226043   1.201   0.134   0.026 -0.6050 -0.6640 -0.0970
 1495TIP3    H126044   1.184   0.103  -0.063  0.9702 -1.5894 -0.1108
 1495TIP3    H226045   1.268   0.075   0.060 -0.5124  0.2373  1.3793
 1496TIP3   OH226046   1.586   1.217   0.174  0.2623  0.1538  0.2036
 1496TIP3    H126047   1.545   1.290   0.127  1.6467  0.9692  0.2144
 1496TIP3    H226048   1.525   1.198   0.245 -1.2471 -0.2645 -1.1540
 1497TIP3   OH226049   2.927   4.629   7.183 -0.0990  0.4975  1.5048
 1497TIP3    H126050   2.908   4.548   7.136 -0.5418  0.0658  2.3990
 1497TIP3    H226051   2.976   4.600   7.260  1.5829  1.2929  0.7933
 1498TIP3   OH226052   5.683   6.733   8.542  0.4120 -0.8073 -0.6098
 1498TIP3    H126053   5.648   6.822   8.539  3.2324  0.5124  0.9627
 1498TIP3    H226054   5.656   6.700   8.627  0.2771 -1.0296 -0.7391
 1499TIP3   OH226055   3.067   2.859   1.978  0.7432 -0.3347  0.5879
 1499TIP3    H126056   3.133   2.846   1.910 -0.8431  2.0981 -1.6604
 1499TIP3    H226057   3.011   2.781   1.972 -1.3348  1.1561 -3.5424
 1500TIP3   OH226058   2.055   4.306   7.002  0.2737 -0.0120 -0.2876
 1500TIP3    H126059   2.073   4.399   6.989  0.6650  0.0111  0.3946
 1500TIP3    H226060   2.119   4.261   6.947  0.1758  0.1173 -0.5082
 1501TIP3   OH226061   5.364   0.107   7.814  0.1143  0.3409  0.0691
 1501TIP3    H126062   5.298   0.042   7.838 -1.2219  2.2850  2.0630
 1501TIP3    H226063   5.436   0.056   7.777 -1.9599 -1.9849 -1.0294
 1502TIP3   OH226064   3.413   2.787   7.696  0.5900 -0.1269 -0.5173
 1502TIP3    H126065   3.493   2.837   7.715  0.2787  0.9170 -1.7848
 1502TIP3    H226066   3.357   2.849   7.650 -0.5035 -1.1834 -0.6431
 1503TIP3   OH226067   0.777   1.198   0.586  0.4396 -0.1651 -0.0857
 1503TIP3    H126068   0.759   1.290   0.604  0.9002 -0.1109  0.1174
 1503TIP3    H226069   0.841   1.172   0.652  1.1045 -0.3387 -0.7812
 1504TIP3   OH226070   5.618   3.087   0.139  0.3236 -0.1327  0.1920
 1504TIP3    H126071   5.658   3.007   0.107  1.5485  0.9209 -1.0125
 1504TIP3    H226072   5.685   3.127   0.194 -0.8489 -0.6681  2.1275
 1505TIP3   OH226073   3.240   3.479   8.359  1.0874 -0.2075  0.3899
 1505TIP3    H126074   3.199   3.565   8.368  0.1634 -0.4696 -1.0413
 1505TIP3    H226075   3.207   3.429   8.433 -0.2285 -0.0295 -0.0482
 1506TIP3   OH226076   2.155   5.906   6.712 -0.4446 -0.0883 -0.5093
 1506TIP3    H126077   2.101   5.829   6.728  0.6824 -1.0840 -1.3804
 1506TIP3    H226078   2.223   5.902   6.779 -0.9520  0.7362  0.0840
 1507TIP3   OH226079   6.721   1.466   1.527 -0.0203  0.1518 -0.1332
 1507TIP3    H126080   6.729   1.434   1.617 -1.6849 -0.3160 -0.1212
 1507TIP3    H226081   6.809   1.462   1.492  0.9350  1.5833  1.8806
 1508TIP3   OH226082   0.645   5.360   0.730  0.2433 -0.1300 -0.2103
 1508TIP3    H126083   0.710   5.431   0.735 -1.4680  1.4306  2.5691
 1508TIP3    H226084   0.689   5.285   0.770  1.2779  0.0564 -0.9662
 1509TIP3   OH226085   2.370   5.226   6.822 -0.0609  0.7136 -0.0177
 1509TIP3    H126086   2.421   5.299   6.857  0.6821 -0.6606  1.9833
 1509TIP3    H226087   2.428   5.184   6.760 -0.3878  1.6303 -0.9648
 1510TIP3   OH226088   1.397   3.752   1.157 -0.1819  0.1799 -0.6215
 1510TIP3    H126089   1.314   3.767   1.112 -0.4251  0.4275 -0.0982
 1510TIP3    H226090   1.376   3.762   1.250 -0.1759 -2.5144 -0.2569
 1511TIP3   OH226091   2.817   5.651   7.860  0.2294  0.4743 -0.7539
 1511TIP3    H126092   2.804   5.578   7.800  0.1676 -0.7952  0.7245
 1511TIP3    H226093   2.880   5.618   7.924 -0.4897  1.3895  0.4736
 1512TIP3   OH226094   3.744   6.353   8.369 -0.0871 -0.0010 -0.4844
 1512TIP3    H126095   3.724   6.409   8.295 -0.3411  1.3678  0.5792
 1512TIP3    H226096   3.722   6.264   8.340 -0.7656  0.5872 -1.8049
 1513TIP3   OH226097   1.133   6.027   0.039 -0.5883  0.3052  0.4378
 1513TIP3    H126098   1.135   6.122   0.024 -1.1680  0.7664  2.9198
 1513TIP3    H226099   1.147   5.990  -0.048 -1.7237  2.6401 -0.8636
 1514TIP3   OH226100   3.548   2.979   0.563 -0.2721  0.2838  0.1657
 1514TIP3    H126101   3.477   3.010   0.507  0.4407  0.8299 -0.4640
 1514TIP3    H226102   3.552   2.885   0.547  0.0680  0.4638 -0.9041
 1515TIP3   OH226103   5.197   4.928   0.631 -0.9675 -0.3031 -0.7239
 1515TIP3    H126104   5.291   4.941   0.624 -0.9204  0.2935  0.7639
 1515TIP3    H226105   5.159   5.002   0.585 -0.6892  0.4846  0.2784
 1516TIP3   OH226106   4.888   5.522   6.698  0.1471  0.4317 -0.1697
 1516TIP3    H126107   4.852   5.558   6.617  0.9502  1.1549 -0.2165
 1516TIP3    H226108   4.945   5.590   6.732  0.5959 -0.2524  0.4900
 1517TIP3   OH226109   6.827   0.043   1.219  0.0512  0.4272  0.1219
 1517TIP3    H126110   6.912   0.023   1.180  0.6305  2.7803  0.0213
 1517TIP3    H226111   6.844   0.119   1.276 -1.8977  0.7125  0.3892
 1518TIP3   OH226112   1.305   2.760   7.382  0.1386  0.1355 -0.4700
 1518TIP3    H126113   1.252   2.773   7.461 -0.3092 -1.5271 -0.4672
 1518TIP3    H226114   1.389   2.727   7.415  0.1096 -0.1267 -0.6543
 1519TIP3   OH226115   1.886   1.112   0.399 -0.0896  0.1556 -0.1171
 1519TIP3    H126116   1.841   1.030   0.420  0.9044 -0.9895 -2.1364
 1519TIP3    H226117   1.979   1.092   0.411  0.1021  1.4141  0.6361
 1520TIP3   OH226118   0.136   0.695   1.437  0.0684  0.0615 -0.5386
 1520TIP3    H126119   0.218   0.648   1.423  0.7636  0.9055  0.5657
 1520TIP3    H226120   0.157   0.786   1.416 -0.8671  0.1293 -1.2205
 1521TIP3   OH226121   3.674   4.239   7.584  0.2746 -0.2136 -0.2346
 1521TIP3    H126122   3.722   4.300   7.639  0.2118  0.1732 -0.6090
 1521TIP3    H226123   3.603   4.291   7.545  1.2414 -0.0753 -1.9296
 1522TIP3   OH226124   4.781   3.625   8.617  0.0716  0.2354 -0.0139
 1522TIP3    H126125   4.853   3.590   8.670  0.0924 -0.6214 -0.5829
 1522TIP3    H226126   4.724   3.549   8.602 -0.4267  0.6842 -0.4134
 1523TIP3   OH226127   3.240   6.749   0.454  0.5586  0.4988  0.2866
 1523TIP3    H126128   3.228   6.795   0.371  1.1145  0.8578  0.4011
 1523TIP3    H226129   3.314   6.690   0.438 -0.1182 -0.3334  0.1533
 1524TIP3   OH226130   0.398   3.526   7.970  0.3949  0.6053  0.0712
 1524TIP3    H126131   0.420   3.478   8.050 -0.1775  0.9889  0.4768
 1524TIP3    H226132   0.466   3.502   7.907  0.8922  0.3481  0.6960
 1525TIP3   OH226133   0.511   1.324   0.412 -0.2439  0.0483  0.2229
 1525TIP3    H126134   0.416   1.336   0.411 -0.2924 -0.2767  0.5242
 1525TIP3    H226135   0.525   1.238   0.371  0.1952  1.5873 -3.1960
 1526TIP3   OH226136   2.994   4.969   7.492  0.5414 -0.4103  0.1540
 1526TIP3    H126137   3.077   5.012   7.512  2.2827 -2.5606 -1.9490
 1526TIP3    H226138   3.004   4.881   7.528 -0.6179 -0.8581 -0.5784
 1527TIP3   OH226139   3.186   3.586   7.388 -0.7226 -0.2857  0.1325
 1527TIP3    H126140   3.195   3.681   7.394 -1.9667 -0.0685 -1.0577
 1527TIP3    H226141   3.272   3.555   7.360 -0.2961  0.4658  0.5678
 1528TIP3   OH226142   4.657   5.471   7.985  0.0749  0.1242 -0.2162
 1528TIP3    H126143   4.672   5.379   7.963 -0.7751  0.2208 -1.2422
 1528TIP3    H226144   4.669   5.474   8.080  0.6845 -0.9250 -0.2388
 1529TIP3   OH226145   0.087   4.731   0.348 -0.8447  0.2832 -0.5113
 1529TIP3    H126146   0.182   4.724   0.342 -0.8683  0.1794 -0.8223
 1529TIP3    H226147   0.059   4.743   0.257 -1.2404 -1.1906 -0.6008
 1530TIP3   OH226148   4.006   1.407   6.375  0.0634 -0.1507  0.2144
 1530TIP3    H126149   3.981   1.478   6.315  0.5208  0.9192  1.2330
 1530TIP3    H226150   4.096   1.429   6.401 -0.1442 -0.5620  1.3194
 1531TIP3   OH226151   3.747   6.206   1.612  0.0794 -0.0335 -0.1071
 1531TIP3    H126152   3.775   6.227   1.701  1.7018 -0.0980 -0.5658
 1531TIP3    H226153   3.730   6.291   1.572  1.7696  0.1784 -0.4513
 1532TIP3   OH226154   6.730   0.731   1.461  0.0514 -0.2945  0.0847
 1532TIP3    H126155   6.824   0.717   1.458  0.1399  0.1885  0.4590
 1532TIP3    H226156   6.706   0.714   1.553  0.0931  1.4966  0.4482
 1533TIP3   OH226157   2.338   5.643   2.247  0.2090  0.1023  0.1735
 1533TIP3    H126158   2.411   5.607   2.297 -1.0412 -0.9303  1.3315
 1533TIP3    H226159   2.270   5.661   2.312 -0.7490  0.5962 -0.9170
 1534TIP3   OH226160   6.072   2.763   1.206 -0.6883  0.4113  0.3613
 1534TIP3    H126161   6.123   2.819   1.265 -1.9456 -1.5837  3.5527
 1534TIP3    H226162   6.100   2.674   1.227 -1.4298 -0.4419 -1.9233
 1535TIP3   OH226163   6.427   4.316   2.592  0.0016 -0.3534 -0.6208
 1535TIP3    H126164   6.443   4.403   2.630  2.6287 -0.7876 -0.6138
 1535TIP3    H226165   6.375   4.334   2.513 -0.8483  1.0370  0.2034
 1536TIP3   OH226166   1.166   5.924   8.277 -0.1510  0.0798  0.0212
 1536TIP3    H126167   1.184   5.905   8.370  0.3340 -4.3706 -0.7534
 1536TIP3    H226168   1.077   5.961   8.277  0.7186  2.5313  2.3090
 1537TIP3   OH226169   0.689   3.393   7.041 -0.1754  0.3975 -0.1953
 1537TIP3    H126170   0.684   3.402   6.946  2.2389  0.5968 -0.3845
 1537TIP3    H226171   0.616   3.337   7.064 -0.4185 -0.2242 -2.2734
 1538TIP3   OH226172   3.535   2.408   1.882  0.3266 -0.5619  0.0865
 1538TIP3    H126173   3.559   2.331   1.933 -0.1667 -0.9828 -0.3051
 1538TIP3    H226174   3.588   2.401   1.802  1.3509  0.2740  0.6702
 1539TIP3   OH226175   4.793   1.012   1.450 -0.0752 -0.0990  0.5505
 1539TIP3    H126176   4.737   0.958   1.506  0.1478 -0.6320  0.2714
 1539TIP3    H226177   4.878   0.968   1.452  0.1120  0.2526  0.3300
 1540TIP3   OH226178   3.540   1.955   0.751 -0.1603  0.3304 -0.3485
 1540TIP3    H126179   3.521   1.993   0.836 -0.5884 -0.6743  0.0141
 1540TIP3    H226180   3.621   1.905   0.764 -1.0084 -1.0248 -0.1415
 1541TIP3   OH226181   2.610   6.492   0.859  0.2291  0.6242 -0.3234
 1541TIP3    H126182   2.578   6.454   0.777 -0.9808 -0.6604  0.6961
 1541TIP3    H226183   2.550   6.458   0.926  1.9841  0.5465  1.2831
 1542TIP3   OH226184   1.594   2.809   0.848 -0.5140 -0.2000  0.0179
 1542TIP3    H126185   1.540   2.805   0.769  0.1649  0.7801 -0.5275
 1542TIP3    H226186   1.656   2.736   0.838 -0.3478 -0.0056 -0.4309
 1543TIP3   OH226187   4.228   2.125   1.054 -0.3159  0.2431 -0.9013
 1543TIP3    H126188   4.297   2.178   1.015  0.7537  0.9275  1.7506
 1543TIP3    H226189   4.260   2.103   1.141 -2.6997 -0.9503 -0.2332
 1544TIP3   OH226190   2.766   5.876   1.191  0.1956 -0.5105 -0.0668
 1544TIP3    H126191   2.802   5.792   1.220 -1.3733 -1.0077  0.5591
 1544TIP3    H226192   2.729   5.915   1.271  0.5171  0.5814 -0.4326
 1545TIP3   OH226193   1.949   4.342   1.330  0.2136 -0.6323 -0.4087
 1545TIP3    H126194   1.880   4.323   1.267 -0.4597 -2.6389  0.8486
 1545TIP3    H226195   2.011   4.397   1.282 -0.4757 -1.7251 -2.6737
 1546TIP3   OH226196   0.857   6.024   2.473 -0.1260 -0.1998 -0.3377
 1546TIP3    H126197   0.821   6.112   2.459 -0.9715 -0.2987  0.9578
 1546TIP3    H226198   0.793   5.982   2.532  1.2230 -1.0078  0.5984
 1547TIP3   OH226199   0.355   5.708   1.852 -0.0075 -0.2626  0.8877
 1547TIP3    H126200   0.409   5.696   1.930  2.1798  0.9919 -0.3326
 1547TIP3    H226201   0.372   5.798   1.825 -2.5096  0.0729  0.2219
 1548TIP3   OH226202   3.826   5.250   7.871 -0.6464  0.2996 -0.8291
 1548TIP3    H126203   3.803   5.168   7.914  0.0563  1.2974  1.6166
 1548TIP3    H226204   3.916   5.268   7.899 -0.8252  1.9637 -1.1863
 1549TIP3   OH226205   6.334   2.156   0.931 -0.0592 -0.4011 -0.5078
 1549TIP3    H126206   6.389   2.078   0.929  2.2407  1.1036  0.5650
 1549TIP3    H226207   6.310   2.166   1.023 -0.0468  0.3506 -0.5817
 1550TIP3   OH226208   3.996   5.439   7.224 -0.2293 -0.2276  0.0371
 1550TIP3    H126209   3.905   5.432   7.198 -0.1896  0.0030 -0.1666
 1550TIP3    H226210   4.042   5.373   7.171 -0.5634 -1.7789  1.5731
 1551TIP3   OH226211   1.250   5.075   2.475 -0.1701 -0.4949 -1.1057
 1551TIP3    H126212   1.343   5.076   2.500 -0.1137 -1.5485 -1.1987
 1551TIP3    H226213   1.248   5.117   2.390 -0.0747  1.3192 -0.2608
 1552TIP3   OH226214   1.321   3.791   1.421 -0.3502  0.4611 -0.0377
 1552TIP3    H126215   1.257   3.860   1.435 -0.2508  0.4792  0.3239
 1552TIP3    H226216   1.321   3.741   1.502 -1.3091 -0.6985 -0.7194
 1553TIP3   OH226217   0.946   6.418   1.314  0.0059  0.2483  0.1768
 1553TIP3    H126218   1.009   6.368   1.366  0.9149  0.7422 -0.4101
 1553TIP3    H226219   1.000   6.484   1.269 -0.9599  0.7841 -0.2225
 1554TIP3   OH226220   3.423   2.870   8.057  0.1301  0.2303 -0.1185
 1554TIP3    H126221   3.505   2.855   8.010  0.0609  0.0491 -0.1839
 1554TIP3    H226222   3.450   2.902   8.143  0.3402 -1.4398  0.4813
 1555TIP3   OH226223   5.077   2.522   0.071 -0.4520  0.2384 -0.1670
 1555TIP3    H126224   5.075   2.544   0.164  0.3819 -0.5975  0.0576
 1555TIP3    H226225   5.104   2.603   0.028  0.6063  0.2353  0.4607
 1556TIP3   OH226226   2.410   1.794   7.174 -0.6234 -0.1078 -0.2479
 1556TIP3    H126227   2.420   1.878   7.128  1.2894 -0.1743 -0.0228
 1556TIP3    H226228   2.459   1.731   7.121  0.4349 -0.4711  1.0978
 1557TIP3   OH226229   5.959   0.216   7.290 -0.4139  0.0115  0.2662
 1557TIP3    H126230   6.046   0.176   7.294  0.6945  2.2770  0.8329
 1557TIP3    H226231   5.904   0.159   7.345  0.9098 -1.0166  0.5823
 1558TIP3   OH226232   1.903   4.899   0.519  0.0237  0.2647 -0.0782
 1558TIP3    H126233   1.986   4.946   0.514  0.8877 -1.1177  0.6543
 1558TIP3    H226234   1.898   4.850   0.437 -0.1507  0.4716 -0.1919
 1559TIP3   OH226235   5.189   3.481   0.285 -0.0483 -0.1431 -0.3985
 1559TIP3    H126236   5.238   3.496   0.204  0.3190  1.3380  0.0620
 1559TIP3    H226237   5.229   3.540   0.349 -2.8466  1.7815 -0.2029
 1560TIP3   OH226238   6.393   1.882   1.874  0.1870  0.1809 -0.3769
 1560TIP3    H126239   6.323   1.822   1.898 -0.9267  0.3623 -2.8803
 1560TIP3    H226240   6.473   1.829   1.878 -0.2256 -0.3868  1.1316
 1561TIP3   OH226241   6.370   5.259   2.108 -0.4091  0.0438 -0.0586
 1561TIP3    H126242   6.317   5.180   2.119  0.9280 -0.7806  0.6938
 1561TIP3    H226243   6.364   5.279   2.014 -0.4476 -1.1899 -0.3349
 1562TIP3   OH226244   5.736   2.374   1.469  0.0469  0.5500  0.0540
 1562TIP3    H126245   5.749   2.377   1.564 -2.8259  2.9374  0.5128
 1562TIP3    H226246   5.794   2.441   1.434  2.4818 -1.5305 -0.2467
 1563TIP3   OH226247   2.878   5.286   0.769 -0.2365  0.2879 -0.1612
 1563TIP3    H126248   2.790   5.278   0.807 -0.6526  1.2084 -0.8715
 1563TIP3    H226249   2.883   5.214   0.706 -0.2713 -0.0913  0.2643
 1564TIP3   OH226250   0.390   2.840   0.434  0.4442 -0.2712  0.6604
 1564TIP3    H126251   0.483   2.847   0.412  0.5883 -0.8154  1.0950
 1564TIP3    H226252   0.345   2.858   0.351  0.9184  0.5230  0.5631
 1565TIP3   OH226253   3.639   5.984   1.025 -0.3758  0.2247  0.0886
 1565TIP3    H126254   3.548   5.959   1.038 -0.5220  0.3377 -0.6761
 1565TIP3    H226255   3.647   6.070   1.065 -1.1314  1.1198 -1.6058
 1566TIP3   OH226256   1.154   2.499   6.800 -0.1323 -0.1906  0.0060
 1566TIP3    H126257   1.061   2.520   6.814 -0.3781 -0.1646 -1.5160
 1566TIP3    H226258   1.190   2.576   6.758  0.3531 -0.5651 -0.2708
 1567TIP3   OH226259   6.032   1.729   2.374  0.1023  0.6157 -0.3322
 1567TIP3    H126260   6.011   1.819   2.349 -0.2877  0.6254  0.0125
 1567TIP3    H226261   6.061   1.736   2.465  0.1556  0.4051 -0.3317
 1568TIP3   OH226262   3.154   4.248   7.545 -0.4755  0.2813 -0.4950
 1568TIP3    H126263   3.211   4.173   7.563  1.2031  1.7272  0.5302
 1568TIP3    H226264   3.066   4.212   7.546 -0.0556 -1.1772  3.5309
 1569TIP3   OH226265   4.982   1.992   8.385  0.2935 -0.1561  0.1967
 1569TIP3    H126266   4.936   2.066   8.346  0.4849  0.1187  0.4921
 1569TIP3    H226267   4.922   1.960   8.453  0.2677 -0.1907  0.1580
 1570TIP3   OH226268   0.048   0.325   0.724 -0.0871 -0.0302  0.5555
 1570TIP3    H126269   0.071   0.417   0.711 -0.5525  0.3057  1.8939
 1570TIP3    H226270  -0.032   0.312   0.673  0.8701 -0.1616 -0.9706
 1571TIP3   OH226271   4.932   4.047   8.407 -0.2559 -0.1403  0.1628
 1571TIP3    H126272   4.940   3.956   8.437  1.6278 -0.8199 -2.1071
 1571TIP3    H226273   4.888   4.040   8.322  1.5659  0.8213 -0.9214
 1572TIP3   OH226274   5.928   2.787   7.649 -0.7212  0.9522  0.2914
 1572TIP3    H126275   5.905   2.856   7.712  0.7106  0.9124  0.8966
 1572TIP3    H226276   6.018   2.764   7.671 -1.2854 -1.4289  0.3657
 1573TIP3   OH226277   3.673   5.976   0.612  0.1366  0.1977 -0.0880
 1573TIP3    H126278   3.581   5.994   0.634 -0.6137 -2.1783 -0.9400
 1573TIP3    H226279   3.688   5.886   0.643  1.8106  0.0991 -1.0558
 1574TIP3   OH226280   2.916   6.100   7.742  0.1763 -0.0832 -0.1763
 1574TIP3    H126281   2.913   6.112   7.647  0.6920 -0.7991 -0.2885
 1574TIP3    H226282   2.906   6.006   7.754 -2.1452  0.1953  0.5972
 1575TIP3   OH226283   6.849   5.615   2.387 -0.0530 -0.9708  0.6333
 1575TIP3    H126284   6.769   5.665   2.372  0.1039 -1.1744 -1.0285
 1575TIP3    H226285   6.862   5.618   2.482  0.3357  2.6852  0.5874
 1576TIP3   OH226286   2.881   5.011   1.117  0.2526  0.3089  0.7378
 1576TIP3    H126287   2.804   5.031   1.171 -1.3120 -0.4985 -1.0693
 1576TIP3    H226288   2.915   5.097   1.092  0.7376  0.6896  2.5760
 1577TIP3   OH226289   2.257   1.879   0.197 -0.2991 -0.1751  0.8380
 1577TIP3    H126290   2.273   1.972   0.185  0.3671 -0.4867 -1.0239
 1577TIP3    H226291   2.320   1.851   0.263  1.0175  0.2920 -0.1851
 1578TIP3   OH226292   0.315   3.700   1.611  0.0241  0.0569  0.3588
 1578TIP3    H126293   0.361   3.670   1.532  0.0757 -0.5612  0.6169
 1578TIP3    H226294   0.355   3.649   1.682  0.4123  1.0565  0.8713
 1579TIP3   OH226295   4.353   2.864   1.378  0.3225  0.2065 -0.3575
 1579TIP3    H126296   4.304   2.857   1.460 -0.6405  0.2149 -0.9262
 1579TIP3    H226297   4.288   2.853   1.309  1.5103 -2.7405 -1.1781
 1580TIP3   OH226298   5.947   5.075   0.220  0.0345 -0.4635  0.5758
 1580TIP3    H126299   5.966   5.167   0.238 -0.7966 -0.1813  0.0379
 1580TIP3    H226300   6.034   5.035   0.207  0.3587  0.4651 -0.2337
 1581TIP3   OH226301   3.533   2.994   2.651 -0.0511  0.5522  0.8252
 1581TIP3    H126302   3.548   3.012   2.558  1.9298 -1.3330  0.7084
 1581TIP3    H226303   3.585   3.060   2.697  0.7891  0.0973  0.5431
 1582TIP3   OH226304   0.387   6.101   7.174 -0.1288  0.3129 -0.0537
 1582TIP3    H126305   0.315   6.045   7.146  0.3807  1.1243 -3.4464
 1582TIP3    H226306   0.454   6.041   7.206 -0.9608 -0.7380 -0.2522
 1583TIP3   OH226307   4.956   6.266   1.029  0.1968 -0.0224 -0.0893
 1583TIP3    H126308   4.931   6.175   1.041  0.6681 -0.1010  0.3000
 1583TIP3    H226309   4.906   6.314   1.094  1.6726 -0.2817  1.3003
 1584TIP3   OH226310   5.626   3.691   1.238  0.1056 -0.1548  0.6713
 1584TIP3    H126311   5.696   3.740   1.195  0.0186  0.0851  0.8034
 1584TIP3    H226312   5.614   3.614   1.183  0.4626 -0.1901  0.6379
 1585TIP3   OH226313   6.793   0.430   1.831  0.7346 -0.0378 -0.0898
 1585TIP3    H126314   6.740   0.366   1.878  2.9344 -1.0798  1.1413
 1585TIP3    H226315   6.862   0.378   1.789  3.3918  1.4857  2.0304
 1586TIP3   OH226316   0.863   5.327   7.829  0.2680 -0.0266  0.3691
 1586TIP3    H126317   0.860   5.406   7.775 -3.4317 -0.2898 -0.1117
 1586TIP3    H226318   0.868   5.255   7.767 -0.7071 -0.2277  0.4937
 1587TIP3   OH226319   2.663   4.656   1.878  0.6108 -0.0247 -0.0502
 1587TIP3    H126320   2.644   4.716   1.806 -2.6366  1.1450  1.5507
 1587TIP3    H226321   2.653   4.568   1.840 -0.6870  0.5604 -1.1518
 1588TIP3   OH226322   2.241   6.284   0.647  0.1623  0.2761 -0.2530
 1588TIP3    H126323   2.248   6.336   0.566  0.4269  0.7400  0.0591
 1588TIP3    H226324   2.275   6.198   0.623 -0.1198  0.2995 -0.7382
 1589TIP3   OH226325   2.539   4.030   0.363 -0.1624 -0.3724  0.1278
 1589TIP3    H126326   2.484   4.040   0.441  1.0951 -0.5766  1.0685
 1589TIP3    H226327   2.513   4.103   0.306 -2.5738 -1.3973 -0.2281
 1590TIP3   OH226328   6.288   1.703   8.266 -0.0119  0.6182 -0.0844
 1590TIP3    H126329   6.258   1.771   8.205 -1.0551 -0.0570 -0.3417
 1590TIP3    H226330   6.262   1.621   8.225  0.9759  0.0597  0.3685
 1591TIP3   OH226331   5.233   1.714   0.412 -0.3370  0.7443  0.5057
 1591TIP3    H126332   5.178   1.636   0.406  0.6301  0.1203 -0.6629
 1591TIP3    H226333   5.316   1.682   0.447 -0.2219  1.4156  0.8730
 1592TIP3   OH226334   3.159   3.838   1.200  0.2389  0.3717  0.4446
 1592TIP3    H126335   3.240   3.840   1.252  0.3045  0.7325  0.3336
 1592TIP3    H226336   3.090   3.830   1.266  0.3783 -0.2213  0.5224
 1593TIP3   OH226337   5.898   6.512   8.096  0.5926  0.0535  0.2053
 1593TIP3    H126338   5.945   6.438   8.133 -0.9359 -1.2092 -0.2906
 1593TIP3    H226339   5.967   6.568   8.059  1.6906 -1.9026 -0.8492
 1594TIP3   OH226340   3.971   0.989   7.545  0.6010  0.2416  0.0765
 1594TIP3    H126341   3.970   1.079   7.580  1.0821  1.5254 -2.8732
 1594TIP3    H226342   3.879   0.962   7.547  0.4511  0.7546  1.0112
 1595TIP3   OH226343   2.576   2.144   0.203 -0.2052  0.0031 -0.3875
 1595TIP3    H126344   2.503   2.164   0.144  0.4405  1.6850 -0.6883
 1595TIP3    H226345   2.651   2.134   0.145  0.1580  0.2209  0.0437
 1596TIP3   OH226346   6.650   1.487   2.035  0.2218  0.0106 -0.3996
 1596TIP3    H126347   6.741   1.497   2.063  0.8203 -0.2927 -2.1167
 1596TIP3    H226348   6.617   1.413   2.086  0.4491  1.0465  1.3239
 1597TIP3   OH226349   4.484   3.308   8.065  0.8313  0.2116 -0.1337
 1597TIP3    H126350   4.398   3.273   8.090  0.6745  2.1561  2.5792
 1597TIP3    H226351   4.541   3.231   8.064 -0.3379 -0.7450  1.1288
 1598TIP3   OH226352   2.871   0.487   0.196  0.6875  0.0700 -0.3306
 1598TIP3    H126353   2.900   0.431   0.123  0.3152  0.9593 -1.1799
 1598TIP3    H226354   2.786   0.451   0.221  0.3081  0.4096 -1.0753
 1599TIP3   OH226355   1.705   2.883   6.773  0.3115 -0.2948  0.0154
 1599TIP3    H126356   1.642   2.870   6.844  0.1202  1.0105  0.1174
 1599TIP3    H226357   1.661   2.943   6.712 -0.2448 -2.7494 -2.1654
 1600TIP3   OH226358   0.859   3.052   8.383 -0.5575  0.3341 -0.1053
 1600TIP3    H126359   0.873   2.986   8.451 -1.6609 -0.2033 -0.3698
 1600TIP3    H226360   0.899   3.015   8.305 -0.6765  0.2220 -0.1151
 1601TIP3   OH226361   6.604   0.104   1.023  0.1565 -0.3883 -0.1154
 1601TIP3    H126362   6.616   0.016   0.986 -0.0762 -1.2198  1.6620
 1601TIP3    H226363   6.672   0.111   1.090 -0.0956  0.6274  0.0418
 1602TIP3   OH226364   3.115   5.223   0.097 -0.4092 -0.1327 -0.2507
 1602TIP3    H126365   3.045   5.201   0.035 -0.8598  0.0845  0.1727
 1602TIP3    H226366   3.069   5.264   0.171 -0.0927 -1.9805  1.0326
 1603TIP3   OH226367   2.861   3.508   2.059  0.2477 -0.1333  0.5936
 1603TIP3    H126368   2.835   3.498   2.151  1.1224 -0.4877  0.8158
 1603TIP3    H226369   2.915   3.587   2.058 -1.3399  1.0015  0.0091
 1604TIP3   OH226370   5.442   4.050   8.575  0.3513 -0.6271 -0.0284
 1604TIP3    H126371   5.368   4.008   8.530 -0.6364 -0.0004  0.9804
 1604TIP3    H226372   5.519   4.002   8.544 -0.3354 -0.5209 -2.0225
 1605TIP3   OH226373   6.296   6.766   1.770  0.3824  0.4282 -0.0174
 1605TIP3    H126374   6.215   6.781   1.721  0.9298 -0.2363 -1.1587
 1605TIP3    H226375   6.267   6.747   1.860 -0.7593 -0.3777 -0.5365
 1606TIP3   OH226376   3.983   6.399   1.161 -0.1507 -0.1241  0.1222
 1606TIP3    H126377   3.966   6.356   1.245 -1.0556 -0.1603 -0.0667
 1606TIP3    H226378   4.078   6.410   1.158 -0.1015 -0.1955  1.1149
 1607TIP3   OH226379   6.254   3.302   1.107  0.1196 -0.0508 -0.3043
 1607TIP3    H126380   6.270   3.393   1.085  0.3674 -0.0823 -0.2521
 1607TIP3    H226381   6.217   3.263   1.028  3.0661 -0.7326 -1.4567
 1608TIP3   OH226382   2.983   1.334   7.494 -0.2796  0.2810  0.4030
 1608TIP3    H126383   2.996   1.239   7.497 -0.7722  0.2338  1.6890
 1608TIP3    H226384   3.048   1.370   7.554 -1.7498  0.5110  1.9706
 1609TIP3   OH226385   2.886   4.981   1.586  0.3190 -0.4519 -0.4840
 1609TIP3    H126386   2.910   4.897   1.627 -1.1227 -1.1065 -0.9385
 1609TIP3    H226387   2.802   5.004   1.624  0.2077  0.2776 -1.1418
 1610TIP3   OH226388   1.546   5.878   3.053  0.5391  0.1126  0.0617
 1610TIP3    H126389   1.525   5.868   2.960  0.4436  1.2006 -0.0439
 1610TIP3    H226390   1.563   5.972   3.064  1.6784 -0.1710  0.9091
 1611TIP3   OH226391   0.483   0.609   8.103  0.1592 -0.2282  0.1522
 1611TIP3    H126392   0.565   0.657   8.111  0.2391 -0.1244 -1.0637
 1611TIP3    H226393   0.509   0.517   8.096  0.0927 -0.3143  0.9244
 1612TIP3   OH226394   0.961   1.819   8.456 -0.1034  0.2298  0.4510
 1612TIP3    H126395   1.014   1.866   8.521 -0.3920  0.3755  0.5843
 1612TIP3    H226396   0.870   1.839   8.481 -0.3149 -1.9712  1.7182
 1613TIP3   OH226397   1.642   0.434   8.049 -0.0984 -0.0708 -0.3488
 1613TIP3    H126398   1.659   0.526   8.069  0.5339  0.0619 -1.4478
 1613TIP3    H226399   1.728   0.398   8.028 -0.4616 -0.6965 -0.7773
 1614TIP3   OH226400   4.299   4.356   8.516  0.1472  0.1572 -0.3900
 1614TIP3    H126401   4.271   4.337   8.426  1.7245  0.2255 -0.9275
 1614TIP3    H226402   4.391   4.383   8.507  0.5030 -0.3948  1.3078
 1615TIP3   OH226403   5.311   3.881   8.165  0.1575 -0.3709 -0.1858
 1615TIP3    H126404   5.368   3.807   8.145  0.0495 -0.5885  0.3113
 1615TIP3    H226405   5.340   3.950   8.105  1.3654 -0.2677  0.4814
 1616TIP3   OH226406   0.471   5.915   7.685  0.1513 -0.1106  0.2774
 1616TIP3    H126407   0.490   5.855   7.758  0.9939  0.7053  0.7547
 1616TIP3    H226408   0.554   5.959   7.669  0.0705 -0.5192 -1.4322
 1617TIP3   OH226409   1.126   0.584   7.677  0.4156  0.1023  0.4415
 1617TIP3    H126410   1.079   0.504   7.652 -0.3026  0.7727 -0.4125
 1617TIP3    H226411   1.171   0.561   7.759  1.0599 -1.4947 -0.3150
 1618TIP3   OH226412   3.599   3.662   1.488  0.2327  0.5297  0.4799
 1618TIP3    H126413   3.638   3.579   1.516  1.8977  1.8232  2.2882
 1618TIP3    H226414   3.592   3.655   1.393 -0.0804 -1.8104  0.6233
 1619TIP3   OH226415   2.469   2.393   0.849 -0.2737  0.0823 -0.5681
 1619TIP3    H126416   2.496   2.324   0.789  0.3797  1.9350 -2.5268
 1619TIP3    H226417   2.503   2.473   0.810 -1.2756  1.5654  1.4407
 1620TIP3   OH226418   1.473   6.630   1.513 -0.2257  0.2578  0.3067
 1620TIP3    H126419   1.539   6.624   1.444 -0.4896  0.1458  0.0636
 1620TIP3    H226420   1.431   6.715   1.499  0.1144  0.4909  0.6863
 1621TIP3   OH226421   5.948   4.351   6.907  0.5264  0.6284  0.1317
 1621TIP3    H126422   5.885   4.294   6.862  0.1318  1.6897 -0.6857
 1621TIP3    H226423   5.999   4.391   6.837  2.0369 -0.0907  0.7740
 1622TIP3   OH226424   5.792   3.844   1.079 -0.5203  0.2163 -0.0011
 1622TIP3    H126425   5.882   3.821   1.056 -0.8967 -0.2937 -1.0255
 1622TIP3    H226426   5.801   3.921   1.136  0.6204 -0.6271  1.0103
 1623TIP3   OH226427   2.094   0.995   7.148  0.1163 -0.2698 -0.0252
 1623TIP3    H126428   2.042   1.067   7.113  0.9496  0.8854  1.0245
 1623TIP3    H226429   2.133   0.954   7.071 -0.0253  0.6822 -0.6238
 1624TIP3   OH226430   3.084   1.550   2.102  0.0370  0.0929  0.0818
 1624TIP3    H126431   3.114   1.466   2.137 -0.4324 -0.5121 -0.8921
 1624TIP3    H226432   3.162   1.588   2.061  0.3121  0.2674  0.7484
 1625TIP3   OH226433   4.258   3.239   2.070  0.6848  0.0178  0.3033
 1625TIP3    H126434   4.169   3.204   2.065  0.9020 -0.3595 -1.7911
 1625TIP3    H226435   4.246   3.334   2.074  0.0984  0.2565 -3.3702
 1626TIP3   OH226436   0.168   5.068   1.734 -0.5464  0.0283  0.0747
 1626TIP3    H126437   0.170   5.011   1.811 -2.1993  2.5460  2.1500
 1626TIP3    H226438   0.154   5.008   1.661  1.7799 -2.5638  1.5370
 1627TIP3   OH226439   5.319   6.756   2.713  0.0085  0.1191  0.1017
 1627TIP3    H126440   5.348   6.667   2.735  0.8478  0.0336 -1.2639
 1627TIP3    H226441   5.382   6.814   2.756  0.1137  0.0238  0.0758
 1628TIP3   OH226442   5.584   5.821   8.677 -0.5218  0.0896 -0.4622
 1628TIP3    H126443   5.527   5.752   8.644 -1.6311  0.9466 -0.3958
 1628TIP3    H226444   5.622   5.785   8.757 -2.1883  0.0536  0.3428
 1629TIP3   OH226445   6.586   0.380   2.074  0.3867  0.1999  0.3663
 1629TIP3    H126446   6.523   0.446   2.046 -1.7863 -1.3954  1.2201
 1629TIP3    H226447   6.550   0.345   2.155  2.3072 -0.9113  0.8037
 1630TIP3   OH226448   2.357   1.820   0.490  0.4536  0.9891  0.1595
 1630TIP3    H126449   2.450   1.802   0.499  0.7785  1.9378 -0.9959
 1630TIP3    H226450   2.344   1.905   0.531  0.9711  2.8717 -3.1900
 1631TIP3   OH226451   5.057   2.499   2.410 -0.3886 -0.0656  0.6327
 1631TIP3    H126452   5.139   2.548   2.405 -0.6195  0.3020  0.4340
 1631TIP3    H226453   5.000   2.542   2.346 -0.4224 -0.9055  0.0742
 1632TIP3   OH226454   1.601   1.063   0.764  0.3735 -0.3227 -0.2785
 1632TIP3    H126455   1.621   1.138   0.708  0.2374  0.0557  0.1745
 1632TIP3    H226456   1.534   1.095   0.824  1.4755 -0.3023  0.9961
 1633TIP3   OH226457   6.790   5.259   1.749 -0.2050 -0.6474  0.2261
 1633TIP3    H126458   6.781   5.193   1.817  0.0817 -1.0660 -0.1351
 1633TIP3    H226459   6.717   5.243   1.690 -1.6336  0.9626  1.4430
 1634TIP3   OH226460   2.351   0.392   8.201  0.4605  0.0195 -0.1601
 1634TIP3    H126461   2.368   0.302   8.174  0.7225  0.3441 -1.1010
 1634TIP3    H226462   2.354   0.389   8.297  0.4891 -0.9595 -0.1813
 1635TIP3   OH226463   6.643   0.687   0.065  0.5134  0.1248  0.3830
 1635TIP3    H126464   6.630   0.705   0.158  0.0499 -1.6209  0.6973
 1635TIP3    H226465   6.736   0.668   0.057  0.4242 -0.4382  0.6356
 1636TIP3   OH226466   1.348   0.552   2.012  0.5526 -0.2114  0.0055
 1636TIP3    H126467   1.320   0.506   2.091  0.4123 -1.5383 -0.7916
 1636TIP3    H226468   1.275   0.542   1.951  0.1869  1.7690  0.0627
 1637TIP3   OH226469   4.796   0.225   1.562  0.0457 -0.0324 -0.8946
 1637TIP3    H126470   4.734   0.161   1.597 -0.3496 -0.1722 -1.8305
 1637TIP3    H226471   4.749   0.309   1.566 -0.4208 -0.2189 -2.0911
 1638TIP3   OH226472   0.071   5.871   8.568 -0.1717 -0.0569  0.1603
 1638TIP3    H126473   0.015   5.821   8.509 -1.4154  0.5983  0.7410
 1638TIP3    H226474   0.102   5.945   8.515  0.3500 -0.5629 -0.2390
 1639TIP3   OH226475   1.151   2.067   2.952 -0.2284 -0.3498 -0.1293
 1639TIP3    H126476   1.138   1.991   2.896  0.2915  0.3150 -1.1909
 1639TIP3    H226477   1.084   2.130   2.924  0.5718  0.3099 -0.6163
 1640TIP3   OH226478   6.293   5.084   8.074 -0.0903  0.9881 -0.1388
 1640TIP3    H126479   6.238   5.149   8.029  0.8933  0.6421 -1.9194
 1640TIP3    H226480   6.322   5.025   8.004 -1.1732 -1.5879  1.4464
 1641TIP3   OH226481   0.111   4.522   7.537  0.1629  0.1632 -0.0189
 1641TIP3    H126482   0.032   4.501   7.587 -0.3456 -0.3275 -1.0021
 1641TIP3    H226483   0.153   4.593   7.586 -0.4838 -0.0957  0.9240
 1642TIP3   OH226484   4.736   6.606   8.685 -0.1553  0.1035 -0.1732
 1642TIP3    H126485   4.817   6.595   8.734 -0.0557  0.7231 -0.1950
 1642TIP3    H226486   4.746   6.689   8.639 -1.6052  1.2026  1.3684
 1643TIP3   OH226487   3.783   6.645   0.956  0.3680 -0.5694 -0.1563
 1643TIP3    H126488   3.833   6.646   0.874  2.0956 -0.8817  0.8404
 1643TIP3    H226489   3.712   6.707   0.941  1.4077  0.3878 -1.4305
 1644TIP3   OH226490   6.307   3.796   1.605 -0.6533  0.8069  0.0447
 1644TIP3    H126491   6.391   3.840   1.592  0.1016 -1.2197 -2.9983
 1644TIP3    H226492   6.277   3.773   1.517 -3.7885  0.2544  1.1021
 1645TIP3   OH226493   0.968   0.745   0.561 -0.3319  0.4888 -0.4259
 1645TIP3    H126494   1.041   0.805   0.542 -0.2395 -0.1712 -2.4594
 1645TIP3    H226495   0.972   0.732   0.655  1.3932  1.4838 -0.3067
 1646TIP3   OH226496   4.795   5.893   7.287  0.4599 -0.6191 -0.2654
 1646TIP3    H126497   4.813   5.971   7.233 -0.4055 -0.6735 -0.6550
 1646TIP3    H226498   4.879   5.848   7.293  0.1888 -1.8376 -3.5633
 1647TIP3   OH226499   4.160   3.791   7.937 -0.0561  0.2031  0.0910
 1647TIP3    H126500   4.194   3.817   8.022 -0.8661  1.4376  0.0611
 1647TIP3    H226501   4.089   3.853   7.919 -0.3130 -0.4250 -1.1987
 1648TIP3   OH226502   6.781   3.810   2.200 -0.7604  0.1874 -0.7000
 1648TIP3    H126503   6.750   3.732   2.155 -0.7302 -0.0321 -0.3449
 1648TIP3    H226504   6.876   3.795   2.210 -1.0215 -0.5910  1.0091
 1649TIP3   OH226505   4.745   0.346   0.899  0.3525  0.0607  0.1677
 1649TIP3    H126506   4.829   0.386   0.874  0.5756 -0.1731  0.5267
 1649TIP3    H226507   4.759   0.316   0.989  0.6220 -1.9858 -0.5083
 1650TIP3   OH226508   4.636   3.074   8.092 -0.2589 -0.1444  0.6536
 1650TIP3    H126509   4.730   3.059   8.105 -0.4930 -0.3344  2.2657
 1650TIP3    H226510   4.606   2.996   8.046 -0.3023 -1.9967  3.5665
 1651TIP3   OH226511   4.014   4.205   7.521 -0.5585 -0.2032  0.3489
 1651TIP3    H126512   4.078   4.200   7.591  0.9144 -1.1870 -0.9919
 1651TIP3    H226513   3.974   4.292   7.531 -0.3153 -0.2781  2.2888
 1652TIP3   OH226514   5.124   1.056   7.600  0.4282  0.0818  0.4482
 1652TIP3    H126515   5.149   1.021   7.685  1.3767  1.6455  0.8579
 1652TIP3    H226516   5.038   1.097   7.615  0.8734  0.8983  0.8260
 1653TIP3   OH226517   3.278   6.638   7.249  1.1500  0.0234 -0.2957
 1653TIP3    H126518   3.311   6.712   7.199 -3.1592  1.2686 -1.7378
 1653TIP3    H226519   3.214   6.676   7.309  1.4756 -2.1986  1.6067
 1654TIP3   OH226520   4.315   3.031   8.536 -0.3422  0.3287  0.0216
 1654TIP3    H126521   4.384   3.094   8.518 -0.1434 -0.0620 -0.6344
 1654TIP3    H226522   4.361   2.953   8.566 -0.5935  0.5359  0.9639
 1655TIP3   OH226523   5.397   2.049   2.025  0.3156 -0.2859 -0.5998
 1655TIP3    H126524   5.331   2.094   1.973 -0.0572 -0.3813 -0.2149
 1655TIP3    H226525   5.402   1.961   1.987  1.5228  0.2617 -1.7807
 1656TIP3   OH226526   1.778   0.778   8.681 -0.0493 -0.5064  0.1235
 1656TIP3    H126527   1.845   0.735   8.628 -0.8691 -0.7628 -0.7362
 1656TIP3    H226528   1.716   0.708   8.703 -2.3990  0.4293 -2.8405
 1657TIP3   OH226529   5.319   2.210   1.154  0.3443  0.4208  0.4662
 1657TIP3    H126530   5.390   2.177   1.100  0.7772 -0.3606  1.4753
 1657TIP3    H226531   5.362   2.262   1.222 -0.1720  1.1690  0.2436
 1658TIP3   OH226532   5.297   0.349   0.879  0.3844 -0.3844 -0.2530
 1658TIP3    H126533   5.357   0.405   0.926 -0.1397  0.7109 -0.8427
 1658TIP3    H226534   5.351   0.306   0.812  0.8545 -0.8714  0.4285
 1659TIP3   OH226535   5.104   0.813   1.036 -0.4566  0.2639  0.0992
 1659TIP3    H126536   5.090   0.746   0.969 -0.4983 -1.1578  1.4715
 1659TIP3    H226537   5.024   0.866   1.034 -1.0475 -0.6164 -0.0394
 1660TIP3   OH226538   4.094   5.576   6.918 -0.5137 -0.0552 -0.2134
 1660TIP3    H126539   4.151   5.625   6.859 -0.5327  0.8033  0.4649
 1660TIP3    H226540   4.006   5.591   6.884 -0.4475 -0.3524 -0.5245
 1661TIP3   OH226541   4.421   3.875   1.997 -0.0798  0.1622 -0.1270
 1661TIP3    H126542   4.460   3.927   1.927 -1.2769 -0.0891 -1.0264
 1661TIP3    H226543   4.368   3.810   1.951  0.5076 -1.1603  0.9922
 1662TIP3   OH226544   2.754   2.436   8.656 -0.2767  0.7709 -0.2629
 1662TIP3    H126545   2.772   2.343   8.650 -1.4009  0.5863 -0.9322
 1662TIP3    H226546   2.818   2.469   8.719  0.9527 -0.2215 -0.9477
 1663TIP3   OH226547   6.410   2.306   7.561  0.2272  0.3804 -0.1072
 1663TIP3    H126548   6.425   2.385   7.509 -2.4304 -0.0653 -1.7070
 1663TIP3    H226549   6.429   2.234   7.501 -0.1990 -0.1801  0.4221
 1664TIP3   OH226550   5.453   3.696   7.956 -0.3246  0.3728 -0.0802
 1664TIP3    H126551   5.509   3.669   8.030 -2.5514  1.1848  2.0337
 1664TIP3    H226552   5.435   3.615   7.909 -0.5501 -0.5537  1.5313
 1665TIP3   OH226553   5.799   6.154   8.060  0.6130  0.1353  0.2077
 1665TIP3    H126554   5.867   6.146   7.993  0.8547  1.1922  0.3074
 1665TIP3    H226555   5.733   6.089   8.035  1.6957 -1.0108  0.1788
 1666TIP3   OH226556   6.596   4.240   1.058  0.4255  0.2269 -0.4644
 1666TIP3    H126557   6.610   4.159   1.008  1.2657  0.6596 -0.9461
 1666TIP3    H226558   6.684   4.268   1.083  0.0082 -0.5394  2.2293
 1667TIP3   OH226559   0.726   5.752   6.925 -0.0749 -0.0413 -0.1250
 1667TIP3    H126560   0.749   5.802   7.003 -0.1714  0.0552 -0.1590
 1667TIP3    H226561   0.791   5.682   6.921 -0.4902 -0.4716  0.4442
 1668TIP3   OH226562   5.778   5.530   8.384  0.2131  0.3058 -0.2183
 1668TIP3    H126563   5.714   5.555   8.317 -1.0096 -1.6795  0.1304
 1668TIP3    H226564   5.834   5.465   8.340 -0.8067 -1.2698  0.7003
 1669TIP3   OH226565   5.354   2.770   1.274  0.0682 -0.6519 -0.5715
 1669TIP3    H126566   5.326   2.823   1.349  0.4693  0.6481 -1.2952
 1669TIP3    H226567   5.420   2.711   1.310  0.3066 -0.0017  0.0868
 1670TIP3   OH226568   3.214   5.104   7.620 -0.2295 -0.3621 -0.0672
 1670TIP3    H126569   3.272   5.082   7.693  0.0043  1.2589  0.2695
 1670TIP3    H226570   3.272   5.129   7.549 -0.4782 -0.9323 -0.4735
 1671TIP3   OH226571   0.746   1.688   7.407 -0.5265 -0.0713 -0.1747
 1671TIP3    H126572   0.673   1.742   7.378  0.3436  0.6072 -1.2061
 1671TIP3    H226573   0.819   1.749   7.415  0.1295 -0.8685  0.0331
 1672TIP3   OH226574   4.476   4.545   7.272  0.0420  0.2318  0.0061
 1672TIP3    H126575   4.454   4.638   7.278 -1.4273 -0.0013 -1.4044
 1672TIP3    H226576   4.399   4.499   7.305 -0.7625 -0.5421 -2.6958
 1673TIP3   OH226577   4.032   2.474   0.966 -0.2527  0.8155  0.3741
 1673TIP3    H126578   4.088   2.543   1.003  0.7002 -0.0322  0.5529
 1673TIP3    H226579   4.019   2.413   1.039  0.8137 -0.3642 -0.4056
 1674TIP3   OH226580   2.700   2.156   1.731  0.1618  0.4435  0.0093
 1674TIP3    H126581   2.683   2.063   1.722  0.4158  0.2075  1.6061
 1674TIP3    H226582   2.636   2.186   1.796  1.2586  0.9765  0.8850
 1675TIP3   OH226583   2.994   0.583   1.149  0.1524 -0.6446 -0.7227
 1675TIP3    H126584   3.001   0.676   1.127  0.8016 -0.3424  0.6761
 1675TIP3    H226585   2.963   0.542   1.068 -0.8282  0.8683 -1.1568
 1676TIP3   OH226586   6.140   3.994   8.550  0.2927  0.6723 -0.6776
 1676TIP3    H126587   6.085   3.986   8.627  0.8002 -3.1812 -0.5150
 1676TIP3    H226588   6.229   4.002   8.584  0.2574  2.9681 -0.9573
 1677TIP3   OH226589   6.653   4.194   1.800 -0.4109 -0.0611  0.7217
 1677TIP3    H126590   6.680   4.141   1.725  0.4464  0.6573  0.4978
 1677TIP3    H226591   6.654   4.134   1.874 -2.1581 -1.0128  0.0400
 1678TIP3   OH226592   3.101   6.694   8.469  0.0380 -0.6416 -0.1881
 1678TIP3    H126593   3.073   6.758   8.404 -1.6715 -2.1134 -0.9755
 1678TIP3    H226594   3.151   6.629   8.420 -0.8174 -1.4861  0.0198
 1679TIP3   OH226595   2.257   5.042   8.143 -0.6005  0.4975  0.3676
 1679TIP3    H126596   2.273   5.085   8.059  2.2314 -1.0447 -0.0175
 1679TIP3    H226597   2.191   4.975   8.123 -1.3324  1.3559 -0.1699
 1680TIP3   OH226598   6.028   5.126   7.505 -0.1318  0.5682 -0.0888
 1680TIP3    H126599   5.992   5.062   7.445  1.4871 -0.7019  0.2119
 1680TIP3    H226600   6.085   5.181   7.451  0.1785  0.3511  0.0101
 1681TIP3   OH226601   4.744   5.682   2.221  0.4380 -0.3937 -0.1551
 1681TIP3    H126602   4.695   5.758   2.190  0.5677 -0.8517 -1.5595
 1681TIP3    H226603   4.681   5.610   2.218  1.0230 -0.8766 -1.4668
 1682TIP3   OH226604   5.845   5.643   7.228 -0.1194  0.0674  0.2917
 1682TIP3    H126605   5.922   5.694   7.205  1.3480 -2.4413 -0.7028
 1682TIP3    H226606   5.773   5.685   7.180  0.9276  1.4061 -0.1540
 1683TIP3   OH226607   5.198   3.884   1.319 -0.6068 -0.1077  0.1920
 1683TIP3    H126608   5.121   3.938   1.301  0.4204  2.2726  2.2677
 1683TIP3    H226609   5.261   3.910   1.252  0.0402  1.8010  1.4324
 1684TIP3   OH226610   5.295   4.183   8.080 -0.3429 -0.4684 -0.3957
 1684TIP3    H126611   5.331   4.270   8.060 -1.4929 -0.2340 -1.5347
 1684TIP3    H226612   5.337   4.159   8.163  0.5190  0.8680 -0.4099
 1685TIP3   OH226613   1.171   3.499   8.662  0.3700 -0.4665 -0.1748
 1685TIP3    H126614   1.129   3.510   8.577  1.5855  1.2164 -0.6176
 1685TIP3    H226615   1.245   3.441   8.645 -0.1647 -1.2435  0.0553
 1686TIP3   OH226616   2.306   4.208   6.873 -0.1274  0.6403 -0.3248
 1686TIP3    H126617   2.391   4.177   6.904 -0.8436  0.1197  1.2207
 1686TIP3    H226618   2.318   4.302   6.859  0.8245  0.4848 -0.6131
 1687TIP3   OH226619   1.319   2.823   2.447  0.9691 -0.1769 -0.0641
 1687TIP3    H126620   1.249   2.882   2.475  0.0791 -1.2084 -0.0387
 1687TIP3    H226621   1.371   2.808   2.526  1.9241  1.4851 -0.3369
 1688TIP3   OH226622   2.932   2.312   7.388 -0.6209 -0.5336  0.0641
 1688TIP3    H126623   2.842   2.286   7.409 -1.2207 -0.0229 -1.6951
 1688TIP3    H226624   2.960   2.250   7.321  0.0113 -0.1430 -0.0455
 1689TIP3   OH226625   0.025   6.122   7.485  0.2763  0.3553  0.0163
 1689TIP3    H126626   0.085   6.049   7.473 -1.4286 -1.2419  0.7299
 1689TIP3    H226627  -0.017   6.133   7.399  1.1889  1.1443 -0.3452
 1690TIP3   OH226628   0.206   4.440   8.502 -0.3136 -0.6623  0.1859
 1690TIP3    H126629   0.129   4.401   8.460  2.5466 -1.8313 -4.9221
 1690TIP3    H226630   0.238   4.503   8.438  2.9257 -0.1952  2.0493
 1691TIP3   OH226631   1.040   4.834   0.857 -0.2492  0.1293 -0.0551
 1691TIP3    H126632   1.132   4.814   0.874 -0.3873 -0.2741  0.2024
 1691TIP3    H226633   1.014   4.773   0.788 -0.2806  0.3548 -0.2460
 1692TIP3   OH226634   6.481   3.154   1.673 -0.5661  0.3702 -0.0700
 1692TIP3    H126635   6.549   3.204   1.628 -0.6933  0.3502 -0.2861
 1692TIP3    H226636   6.405   3.212   1.674 -0.4218  0.5532  0.5405
 1693TIP3   OH226637   3.117   1.327   8.319 -0.4932  0.7053  0.3960
 1693TIP3    H126638   3.193   1.368   8.361  0.6544 -2.4465  1.7058
 1693TIP3    H226639   3.087   1.392   8.255  1.9763  2.9251  1.2963
 1694TIP3   OH226640   5.962   1.949   0.495 -0.1685 -0.0706  0.5595
 1694TIP3    H126641   5.873   1.914   0.485  0.2139 -1.4081  1.6199
 1694TIP3    H226642   5.949   2.044   0.503 -1.3061  0.0003 -1.4805
 1695TIP3   OH226643   1.295   3.974   7.340  0.4757  0.4146 -0.3153
 1695TIP3    H126644   1.298   3.953   7.247  1.7447  0.6391 -0.3421
 1695TIP3    H226645   1.205   3.953   7.367  0.9511 -2.7590 -0.8585
 1696TIP3   OH226646   3.826   1.705   6.850  0.0468 -0.0291  0.1021
 1696TIP3    H126647   3.873   1.666   6.775  1.4319  0.3129  0.7522
 1696TIP3    H226648   3.744   1.657   6.854  0.4638 -0.8883 -0.8992
 1697TIP3   OH226649   5.237   2.947   0.880  0.0086  0.3930  0.4021
 1697TIP3    H126650   5.323   2.985   0.900  0.7368 -2.1466  2.5654
 1697TIP3    H226651   5.251   2.900   0.798  0.4215  0.7310  0.2698
 1698TIP3   OH226652   2.768   5.428   0.311  0.0985  0.3081  0.2126
 1698TIP3    H126653   2.862   5.417   0.323  0.1266  1.0080  0.7071
 1698TIP3    H226654   2.742   5.357   0.252  0.7609 -0.5091  0.8731
 1699TIP3   OH226655   1.921   0.074   1.227  0.1932  0.3186  0.2065
 1699TIP3    H126656   1.995   0.019   1.200 -0.4492 -0.6608  0.3970
 1699TIP3    H226657   1.877   0.023   1.294  0.4675  1.7587  1.5278
 1700TIP3   OH226658   1.360   5.209   7.384  0.7109  0.1350  0.2351
 1700TIP3    H126659   1.395   5.121   7.399  1.2340  0.3459  0.2662
 1700TIP3    H226660   1.265   5.198   7.389  0.7505 -0.5330 -0.3437
 1701TIP3   OH226661   4.867   2.596   2.246 -0.3491 -0.4858 -0.5159
 1701TIP3    H126662   4.782   2.586   2.202 -0.8713  0.0964  0.3414
 1701TIP3    H226663   4.858   2.675   2.298  1.2460  0.4333 -1.5653
 1702TIP3   OH226664   3.727   1.771   1.029  0.5285 -0.3099 -0.1449
 1702TIP3    H126665   3.807   1.733   0.992  0.4876 -0.8209  0.2854
 1702TIP3    H226666   3.748   1.864   1.041  0.3499  0.0010 -1.9776
 1703TIP3   OH226667   2.638   3.298   0.187 -0.0847 -0.1647  0.2557
 1703TIP3    H126668   2.680   3.357   0.125 -0.1560 -0.3203  0.0586
 1703TIP3    H226669   2.677   3.320   0.271  2.8803 -2.4913 -0.3271
 1704TIP3   OH226670   4.210   3.981   8.630 -0.3253  0.1977 -0.0347
 1704TIP3    H126671   4.279   4.037   8.665  0.5961  0.2606 -1.8146
 1704TIP3    H226672   4.247   3.893   8.634 -0.1382  0.2234 -0.9134
 1705TIP3   OH226673   6.429   6.768   0.606  0.1887  0.3964  0.9422
 1705TIP3    H126674   6.510   6.819   0.595  0.8901 -0.7934  0.3015
 1705TIP3    H226675   6.380   6.784   0.526 -0.2280  1.1395  1.3425
 1706TIP3   OH226676   5.061   5.682   0.615 -0.4089  0.0483  0.6133
 1706TIP3    H126677   5.128   5.736   0.574  0.8098 -1.1926  0.8920
 1706TIP3    H226678   5.041   5.726   0.698 -0.9317  1.1353 -0.0771
 1707TIP3   OH226679   3.157   6.641   8.139  0.0212 -0.2683 -0.0050
 1707TIP3    H126680   3.155   6.655   8.045 -1.3633 -2.6615 -0.4079
 1707TIP3    H226681   3.121   6.553   8.151  0.9423 -0.3652  2.6999
 1708TIP3   OH226682   1.210   2.492   1.399  0.0788 -0.2164  0.8592
 1708TIP3    H126683   1.201   2.405   1.438 -1.0393 -0.1970  0.6972
 1708TIP3    H226684   1.128   2.537   1.422 -0.7009 -0.2502 -1.5520
 1709TIP3   OH226685   6.683   0.206   1.439  0.3938  0.2795  0.2847
 1709TIP3    H126686   6.622   0.132   1.444  1.6109 -0.9093 -1.4008
 1709TIP3    H226687   6.628   0.281   1.414 -0.4428 -0.6949 -0.9311
 1710TIP3   OH226688   0.229   4.761   0.651 -0.1809 -0.3781 -0.1496
 1710TIP3    H126689   0.194   4.800   0.731 -1.6645  1.4401 -1.5870
 1710TIP3    H226690   0.268   4.835   0.604  2.8626 -1.7807 -0.1135
 1711TIP3   OH226691   2.521   4.420   8.200 -0.0180  0.0153 -0.4197
 1711TIP3    H126692   2.448   4.408   8.139  0.6213 -1.1471 -0.9893
 1711TIP3    H226693   2.497   4.367   8.276 -0.2666  0.5076 -0.1537
 1712TIP3   OH226694   5.069   2.229   2.541  0.3483 -0.0772  0.2149
 1712TIP3    H126695   5.062   2.323   2.523 -1.7151 -0.3034 -0.4080
 1712TIP3    H226696   4.979   2.196   2.532  1.0971 -2.1938 -0.0347
 1713TIP3   OH226697   1.470   0.220   7.671  0.0132 -0.1607  0.4292
 1713TIP3    H126698   1.514   0.296   7.708  0.5925  0.5696 -1.6133
 1713TIP3    H226699   1.525   0.146   7.695  0.5289  0.3220  0.7645
 1714TIP3   OH226700   4.488   5.205   8.687  0.1489  0.6510  0.3039
 1714TIP3    H126701   4.503   5.182   8.595  0.0008 -0.4501  0.5403
 1714TIP3    H226702   4.403   5.167   8.707  1.0716 -0.8973  1.4513
 1715TIP3   OH226703   6.853   2.271   1.523 -0.2521 -0.3162 -0.2070
 1715TIP3    H126704   6.905   2.221   1.459 -0.0332  2.0172 -1.9629
 1715TIP3    H226705   6.915   2.333   1.561 -1.1696  0.7448 -0.4000
 1716TIP3   OH226706   0.236   1.232   7.059 -0.3966  0.0483  0.1346
 1716TIP3    H126707   0.143   1.254   7.049 -0.3964 -0.5093 -1.4484
 1716TIP3    H226708   0.250   1.161   6.996  1.2836  0.6789 -0.2463
 1717TIP3   OH226709   6.068   5.790   6.701  0.2059 -0.3564 -0.0233
 1717TIP3    H126710   5.994   5.735   6.676  0.3400  0.0456 -1.4264
 1717TIP3    H226711   6.129   5.731   6.744 -0.5783 -0.8535  0.4250
 1718TIP3   OH226712   5.757   3.038   7.695 -0.3006 -0.2300  0.1992
 1718TIP3    H126713   5.671   3.057   7.660 -0.9117 -1.2513  1.0934
 1718TIP3    H226714   5.744   3.031   7.790  0.8842  0.2404  0.4224
 1719TIP3   OH226715   0.108   0.581   7.445 -0.2981 -0.0405 -0.1001
 1719TIP3    H126716   0.111   0.488   7.464 -0.0264  0.1172  0.6437
 1719TIP3    H226717   0.142   0.589   7.355 -1.1586 -0.7388 -0.4999
 1720TIP3   OH226718   3.259   0.616   7.468  0.1880  0.1297 -0.0136
 1720TIP3    H126719   3.208   0.630   7.388 -1.0058  0.9670  0.8600
 1720TIP3    H226720   3.258   0.521   7.482 -1.8897  0.1873  0.4387
 1721TIP3   OH226721   1.322   2.238   2.760 -0.6572  0.0048 -0.1592
 1721TIP3    H126722   1.275   2.179   2.820 -0.0671  1.2740  1.6431
 1721TIP3    H226723   1.414   2.229   2.786 -0.0282 -1.1511 -2.4871
 1722TIP3   OH226724   5.964   3.246   2.775 -0.1990 -0.4767  0.1787
 1722TIP3    H126725   5.892   3.277   2.721 -1.1699 -1.3552  0.9355
 1722TIP3    H226726   5.989   3.162   2.736 -2.0412 -1.9590  2.0279
 1723TIP3   OH226727   5.302   4.905   8.385  0.0868 -0.2367 -0.0005
 1723TIP3    H126728   5.206   4.901   8.384  0.0059  1.2728 -0.0593
 1723TIP3    H226729   5.327   4.873   8.298 -0.4490  0.7181 -0.5273
 1724TIP3   OH226730   0.132   5.091   7.722  0.1060 -0.5939 -0.1326
 1724TIP3    H126731   0.048   5.102   7.679  0.5308  1.0243 -0.6450
 1724TIP3    H226732   0.113   5.047   7.805 -1.1449 -0.8428 -0.5492
 1725TIP3   OH226733   2.528   1.567   7.721 -0.2120  0.2398 -0.8828
 1725TIP3    H126734   2.488   1.487   7.753  1.7840 -0.2668  0.5630
 1725TIP3    H226735   2.581   1.599   7.794 -0.3694  2.4889 -1.6714
 1726TIP3   OH226736   0.177   5.483   2.243  0.4602  0.1214  0.5259
 1726TIP3    H126737   0.220   5.554   2.195  1.2810  0.3623  1.5950
 1726TIP3    H226738   0.116   5.527   2.302  1.7047  0.0396  1.9320
 1727TIP3   OH226739   5.088   1.034   0.053  0.3614  0.0949 -0.2623
 1727TIP3    H126740   5.073   1.128   0.039 -0.3766  0.1696  0.9403
 1727TIP3    H226741   5.006   1.001   0.087  1.0402 -0.7254  0.6378
 1728TIP3   OH226742   6.581   4.523   1.521 -0.4483 -0.1266 -0.1636
 1728TIP3    H126743   6.599   4.616   1.505 -0.0880  0.0222  0.9943
 1728TIP3    H226744   6.664   4.479   1.504 -0.4895 -0.1775 -0.2345
 1729TIP3   OH226745   3.375   5.980   0.266 -0.2013  0.5960 -0.2815
 1729TIP3    H126746   3.465   5.993   0.237 -0.8830  0.7090 -2.5111
 1729TIP3    H226747   3.380   5.983   0.362  1.9946  1.6214 -0.3712
 1730TIP3   OH226748   0.708   0.062   8.590  0.1638  0.3413  0.8834
 1730TIP3    H126749   0.693   0.152   8.618  2.7683  0.4143  2.4135
 1730TIP3    H226750   0.787   0.035   8.638  0.5041 -2.1560 -0.8803
 1731TIP3   OH226751   1.899   4.117   2.620  0.3032  0.3553  0.5077
 1731TIP3    H126752   1.965   4.072   2.568 -0.3131  0.1924 -0.1547
 1731TIP3    H226753   1.836   4.048   2.644 -0.2815  0.7228  0.0664
 1732TIP3   OH226754   0.606   1.724   0.451 -0.1617 -0.2445 -0.8268
 1732TIP3    H126755   0.562   1.649   0.411 -0.5020 -0.1222 -0.6845
 1732TIP3    H226756   0.550   1.748   0.525  0.2344 -0.1926 -0.5426
 1733TIP3   OH226757   5.579   2.181   2.841  0.0839 -0.0019 -0.0826
 1733TIP3    H126758   5.615   2.268   2.825 -1.6164  0.3868 -2.2696
 1733TIP3    H226759   5.486   2.197   2.859 -0.4655 -1.3837 -1.4559
 1734TIP3   OH226760   5.093   0.114   1.588 -0.2450  0.1794  0.0564
 1734TIP3    H126761   5.118   0.129   1.497  0.3795  1.3051  0.3999
 1734TIP3    H226762   5.052   0.196   1.616 -1.1265 -0.4126  0.5764
 1735TIP3   OH226763   3.485   0.922   8.687  0.4499  0.5643  0.4594
 1735TIP3    H126764   3.530   1.004   8.669 -0.2743  0.6333 -1.2444
 1735TIP3    H226765   3.466   0.885   8.600 -0.7304 -0.5602  1.1560
 1736TIP3   OH226766   4.050   1.050   0.344  0.1954 -0.2352  0.3790
 1736TIP3    H126767   3.993   1.125   0.327 -2.1165 -1.8221  0.6885
 1736TIP3    H226768   3.996   0.974   0.325  3.1331 -1.9412 -2.1726
 1737TIP3   OH226769   4.875   6.761   7.208  0.3230 -0.3558 -0.0449
 1737TIP3    H126770   4.845   6.710   7.132 -2.3772  0.6777  0.2183
 1737TIP3    H226771   4.883   6.851   7.175 -1.9458  0.3129  1.0554
 1738TIP3   OH226772   5.979   0.456   7.933 -0.0502 -0.2826 -0.2484
 1738TIP3    H126773   5.958   0.498   8.017 -0.6384  0.3594 -0.7033
 1738TIP3    H226774   5.896   0.453   7.886  0.6598  1.5191 -1.7408
 1739TIP3   OH226775   3.928   3.893   7.860 -0.3183 -0.6789 -0.0546
 1739TIP3    H126776   3.845   3.862   7.896  0.0698 -1.6275  0.0588
 1739TIP3    H226777   3.908   3.913   7.769 -0.8877  0.0282  0.2117
 1740TIP3   OH226778   0.486   5.538   0.105 -0.0082  0.5426  0.0070
 1740TIP3    H126779   0.431   5.495   0.038  1.3123  0.4524 -1.0673
 1740TIP3    H226780   0.481   5.631   0.083  1.7498  0.3779 -1.3231
 1741TIP3   OH226781   5.551   2.336   1.974 -0.0595  0.0083 -0.2374
 1741TIP3    H126782   5.495   2.412   1.959 -0.1298  0.1911  0.8767
 1741TIP3    H226783   5.496   2.274   2.021  0.4460 -0.1107  0.2090
 1742TIP3   OH226784   1.465   0.917   1.803 -0.4697  0.3364 -0.3941
 1742TIP3    H126785   1.403   0.922   1.731 -1.6634  0.6000  0.6230
 1742TIP3    H226786   1.518   0.996   1.796 -0.1440  0.0398 -1.3489
 1743TIP3   OH226787   3.223   0.249   0.103  0.5876 -0.0709  0.1263
 1743TIP3    H126788   3.133   0.256   0.073  0.8749  0.4944 -0.6387
 1743TIP3    H226789   3.265   0.329   0.072  1.4855 -0.5642  0.0248
 1744TIP3   OH226790   1.388   1.142   7.955  0.5204  0.2314  0.1875
 1744TIP3    H126791   1.308   1.191   7.936  1.2085  2.4769  2.4377
 1744TIP3    H226792   1.368   1.052   7.932 -2.2919  0.8974 -0.3056
 1745TIP3   OH226793   3.580   5.011   8.469  0.0740  0.5755 -0.5753
 1745TIP3    H126794   3.595   4.955   8.393 -0.1160  1.0052 -0.9295
 1745TIP3    H226795   3.488   4.996   8.492  0.2357  0.1431 -0.1778
 1746TIP3   OH226796   5.081   6.102   2.623 -0.1453 -0.4232 -0.8077
 1746TIP3    H126797   5.062   6.008   2.632  0.7900 -0.6568 -1.1130
 1746TIP3    H226798   5.006   6.146   2.663 -0.7505 -1.3005 -0.9494
 1747TIP3   OH226799   0.203   0.382   8.136 -0.0767  0.0045  0.0152
 1747TIP3    H126800   0.230   0.454   8.193  0.0398  0.6153 -0.7866
 1747TIP3    H226801   0.260   0.309   8.161 -2.0210 -0.7446  2.7719
 1748TIP3   OH226802   1.617   1.425   8.481  0.1778  0.7163 -0.3895
 1748TIP3    H126803   1.525   1.407   8.460 -0.0521  2.5858 -1.2018
 1748TIP3    H226804   1.645   1.488   8.414  2.0535  0.2283 -0.1282
 1749TIP3   OH226805   5.763   3.291   7.406 -0.4820 -0.6852 -0.0369
 1749TIP3    H126806   5.737   3.375   7.368  0.1404 -1.3943 -2.1385
 1749TIP3    H226807   5.711   3.226   7.358  0.1719 -1.6127  0.4890
 1750TIP3   OH226808   4.997   3.578   0.083 -0.3165  0.0641  0.0125
 1750TIP3    H126809   4.962   3.488   0.084 -0.8393  0.2281 -1.2591
 1750TIP3    H226810   5.070   3.576   0.144  1.7860 -2.1186 -2.3574
 1751TIP3   OH226811   3.161   2.196   7.884  0.4526 -0.4605  0.7075
 1751TIP3    H126812   3.150   2.256   7.810 -1.3416 -1.5414  0.0432
 1751TIP3    H226813   3.114   2.239   7.956 -2.1664 -1.6832 -0.1739
 1752TIP3   OH226814   0.101   0.388   2.525  0.0650 -0.1918 -0.1413
 1752TIP3    H126815   0.195   0.392   2.506  0.4913 -0.4474  1.7166
 1752TIP3    H226816   0.086   0.297   2.552 -0.5581  0.0310  0.2818
 1753TIP3   OH226817   0.994   4.878   1.633 -0.4571 -0.2225  0.3953
 1753TIP3    H126818   1.058   4.925   1.580 -0.5144  0.1504  0.6480
 1753TIP3    H226819   1.047   4.820   1.687 -0.4800 -1.5897 -1.0020
 1754TIP3   OH226820   3.642   4.386   2.662 -0.2829 -0.0798  0.0228
 1754TIP3    H126821   3.678   4.387   2.573  1.0366  0.9759  0.5385
 1754TIP3    H226822   3.702   4.441   2.713 -0.2932 -1.6668  1.8523
 1755TIP3   OH226823   4.063   3.589   0.992  0.1822 -0.1167  0.4081
 1755TIP3    H126824   4.132   3.593   0.926  0.3043  0.9138  0.5771
 1755TIP3    H226825   4.058   3.496   1.016  1.1627 -0.2828  0.0252
 1756TIP3   OH226826   6.031   2.904   0.677  0.1109  0.0339 -0.3430
 1756TIP3    H126827   6.038   2.808   0.670  0.1221  0.1264 -1.8993
 1756TIP3    H226828   6.081   2.937   0.602 -0.3746  1.2534 -0.1475
 1757TIP3   OH226829   6.458   4.333   0.782 -0.0922 -0.1981 -0.2561
 1757TIP3    H126830   6.423   4.279   0.711  0.6155 -1.4849  0.3189
 1757TIP3    H226831   6.409   4.304   0.859  0.4511 -0.1834  0.0988
 1758TIP3   OH226832   3.984   1.305   0.250  0.2571  0.1049 -0.4156
 1758TIP3    H126833   3.957   1.375   0.309 -0.2118 -0.6471  0.2850
 1758TIP3    H226834   4.080   1.309   0.250  0.2963 -0.3539  0.9990
 1759TIP3   OH226835   3.227   6.332   1.435 -0.3704  0.0306  0.7967
 1759TIP3    H126836   3.192   6.329   1.346  0.7846  1.7135  0.2214
 1759TIP3    H226837   3.153   6.361   1.488 -0.2917  2.2332 -0.1778
 1760TIP3   OH226838   6.528   3.481   2.170  0.0807  0.1543 -0.5865
 1760TIP3    H126839   6.510   3.506   2.080  1.4052  0.6635 -0.7270
 1760TIP3    H226840   6.615   3.516   2.188  0.2349 -0.7628  0.5819
 1761TIP3   OH226841   4.030   1.170   1.507 -0.1761 -0.4760  0.4411
 1761TIP3    H126842   4.123   1.166   1.488 -0.1593 -0.2200  0.4707
 1761TIP3    H226843   4.023   1.138   1.597 -0.2537 -1.6641  0.0232
 1762TIP3   OH226844   4.149   4.292   7.957  0.2407  0.2519 -0.2222
 1762TIP3    H126845   4.085   4.255   8.018 -1.8582 -0.4617 -2.6976
 1762TIP3    H226846   4.208   4.219   7.937  1.2483  0.6228  1.2462
 1763TIP3   OH226847   5.080   3.924   7.836  0.3550 -0.0097  0.7764
 1763TIP3    H126848   5.173   3.911   7.852  0.6547  2.1406  1.1479
 1763TIP3    H226849   5.068   3.904   7.743  1.5663  1.3166  0.2985
 1764TIP3   OH226850   1.516   5.812   6.998 -0.5358 -0.3987  0.1643
 1764TIP3    H126851   1.532   5.845   6.910  0.9755  1.6604  1.1272
 1764TIP3    H226852   1.428   5.842   7.019 -0.6613 -0.3574 -0.4061
 1765TIP3   OH226853   0.985   2.631   1.775 -0.3650 -0.2718 -0.5548
 1765TIP3    H126854   1.079   2.622   1.788 -0.2029  2.5228  1.1505
 1765TIP3    H226855   0.946   2.583   1.848 -0.0837  0.9469  0.4425
 1766TIP3   OH226856   4.933   1.535   1.728 -0.2142 -0.1299 -0.3548
 1766TIP3    H126857   4.908   1.625   1.707 -1.4729 -0.1921  0.7901
 1766TIP3    H226858   4.866   1.505   1.789  0.6122 -1.5992 -0.1339
 1767TIP3   OH226859   2.441   5.113   7.423 -0.0179 -0.0055  0.0156
 1767TIP3    H126860   2.379   5.040   7.433  0.9811 -1.0232 -0.9956
 1767TIP3    H226861   2.527   5.073   7.433  0.5888  0.8618 -1.4497
 1768TIP3   OH226862   6.619   0.091   1.979 -0.0755 -0.3153 -0.1537
 1768TIP3    H126863   6.641   0.040   2.057  0.4208  0.3661  0.1586
 1768TIP3    H226864   6.614   0.181   2.009 -1.4729 -0.2221 -0.6017
 1769TIP3   OH226865   0.549   6.796   8.423  0.1250  0.5986  0.3654
 1769TIP3    H126866   0.600   6.853   8.480  2.1724 -1.7487  1.0513
 1769TIP3    H226867   0.468   6.780   8.472  0.4677  1.1794  1.1433
 1770TIP3   OH226868   6.017   4.457   0.046 -0.1421  0.6481 -0.0766
 1770TIP3    H126869   5.977   4.371   0.034  0.1047  0.2512  1.6614
 1770TIP3    H226870   5.952   4.519   0.013 -1.6229 -0.0589  1.3853
 1771TIP3   OH226871   5.057   1.516   8.247  0.4487  0.4075  0.1142
 1771TIP3    H126872   5.023   1.486   8.163  1.4783  1.1155 -0.5867
 1771TIP3    H226873   4.992   1.579   8.278  0.1673  0.3106 -0.2693
 1772TIP3   OH226874   1.320   6.061   0.282 -0.3001 -0.4218  0.2156
 1772TIP3    H126875   1.298   5.969   0.272 -0.1448 -0.5240  0.7825
 1772TIP3    H226876   1.377   6.064   0.359 -2.3161  0.4445  1.7847
 1773TIP3   OH226877   5.569   1.009   1.187  0.0337  0.4628  0.0946
 1773TIP3    H126878   5.486   0.999   1.235 -1.0824  0.5782 -1.7289
 1773TIP3    H226879   5.578   1.104   1.176  0.4136  0.4483  0.2621
 1774TIP3   OH226880   2.875   4.840   0.419 -0.3693 -0.1201  0.6850
 1774TIP3    H126881   2.916   4.885   0.345 -0.7495  1.7337  1.5514
 1774TIP3    H226882   2.918   4.755   0.422  0.7826  0.3746 -0.6889
 1775TIP3   OH226883   0.152   4.807   1.882  0.0225 -0.4199 -0.2788
 1775TIP3    H126884   0.212   4.746   1.924 -0.1664  1.4078  2.9785
 1775TIP3    H226885   0.071   4.756   1.870 -0.3525 -0.7862  2.9596
 1776TIP3   OH226886   6.026   1.206   0.779 -0.0453 -0.3328  0.2541
 1776TIP3    H126887   6.029   1.244   0.867  0.4133  0.6988 -0.2013
 1776TIP3    H226888   6.072   1.123   0.788  1.4541  0.5101  0.6291
 1777TIP3   OH226889   3.171   4.612   0.686 -0.1707  0.0976 -0.7878
 1777TIP3    H126890   3.195   4.643   0.773 -1.7237  0.7624 -0.5570
 1777TIP3    H226891   3.252   4.617   0.635  0.5549  0.5514  0.3727
 1778TIP3   OH226892   6.744   1.540   0.911  0.3805  0.6068  0.1829
 1778TIP3    H126893   6.704   1.487   0.842  1.4452  3.0155 -2.4600
 1778TIP3    H226894   6.836   1.514   0.911  0.4891  0.9889  0.3521
 1779TIP3   OH226895   5.045   4.471   6.747 -0.2702 -0.1921 -0.2487
 1779TIP3    H126896   5.034   4.519   6.829 -0.4261 -0.5367 -0.0631
 1779TIP3    H226897   5.133   4.493   6.718 -0.5214  0.5916 -0.4214
 1780TIP3   OH226898   2.591   3.717   8.685 -0.3537 -0.0064  0.1379
 1780TIP3    H126899   2.557   3.726   8.774 -0.4301 -1.8818  0.3418
 1780TIP3    H226900   2.659   3.650   8.693 -0.2126 -0.0383 -1.1833
 1781TIP3   OH226901   5.787   1.386   2.121  0.4557 -0.4835 -0.1896
 1781TIP3    H126902   5.778   1.433   2.205 -0.2687 -1.8932  0.5542
 1781TIP3    H226903   5.802   1.295   2.146  1.0358 -0.7958 -1.6064
 1782TIP3   OH226904   1.415   4.006   0.853 -0.3769  0.3136 -0.3637
 1782TIP3    H126905   1.335   3.993   0.904  0.4014  0.4866  0.9222
 1782TIP3    H226906   1.452   4.087   0.887  1.1621 -0.5712  0.1608
 1783TIP3   OH226907   4.570   3.183   8.387  0.4466 -0.2925  0.0381
 1783TIP3    H126908   4.638   3.208   8.324  0.6916  0.4152  0.5659
 1783TIP3    H226909   4.514   3.261   8.395  0.3849 -0.3891  0.6402
 1784TIP3   OH226910   0.985   0.615   1.129  0.3265 -0.1072 -0.6279
 1784TIP3    H126911   1.006   0.619   1.223 -2.0467 -0.7239  0.0138
 1784TIP3    H226912   0.974   0.707   1.103  1.8754  0.1172 -0.5582
 1785TIP3   OH226913   5.757   5.894   7.724 -0.1023  0.2673 -0.4298
 1785TIP3    H126914   5.751   5.976   7.675  1.2313  0.9729  0.5256
 1785TIP3    H226915   5.801   5.833   7.665  2.5366  1.4412  0.1894
 1786TIP3   OH226916   1.233   6.527   0.500  0.5500 -0.0489 -0.4481
 1786TIP3    H126917   1.193   6.585   0.565 -0.9797  0.0507 -1.4063
 1786TIP3    H226918   1.289   6.469   0.550 -2.1402 -1.3523  1.2925
 1787TIP3   OH226919   0.195   3.781   2.206  0.7528 -0.5654 -0.6393
 1787TIP3    H126920   0.242   3.820   2.280 -0.6303 -0.3455  0.1470
 1787TIP3    H226921   0.223   3.690   2.205 -0.8312 -1.1560  1.5705
 1788TIP3   OH226922   4.466   1.396   0.879  0.3374  0.0223 -1.0300
 1788TIP3    H126923   4.431   1.439   0.957  0.0744  0.7738 -1.5560
 1788TIP3    H226924   4.534   1.456   0.847  0.9405 -0.6179 -0.9831
 1789TIP3   OH226925   0.078   4.892   2.411 -0.5439 -0.8781  0.5138
 1789TIP3    H126926   0.009   4.938   2.363  0.0184 -0.1973  0.3397
 1789TIP3    H226927   0.050   4.800   2.412 -1.0675 -0.7318 -0.2125
 1790TIP3   OH226928   2.929   3.791   6.630  0.0731  0.1716 -0.2793
 1790TIP3    H126929   2.895   3.705   6.609 -0.4747 -0.0862  1.4728
 1790TIP3    H226930   2.876   3.852   6.580 -0.3920 -0.4407 -0.5347
 1791TIP3   OH226931   6.693   6.717   1.517 -0.0720  0.6470 -0.2014
 1791TIP3    H126932   6.740   6.636   1.495  0.6417  0.8069  0.6846
 1791TIP3    H226933   6.760   6.784   1.517 -0.5088  1.0870 -0.0412
 1792TIP3   OH226934   5.186   6.656   1.308  0.0049  0.0684 -0.4821
 1792TIP3    H126935   5.242   6.712   1.361 -0.0508 -0.5989  0.3060
 1792TIP3    H226936   5.105   6.706   1.298 -0.6225 -0.4475  1.5120
 1793TIP3   OH226937   3.662   5.720   1.200 -0.1356  0.4839 -1.0508
 1793TIP3    H126938   3.754   5.695   1.211 -0.4511 -0.8855 -1.2624
 1793TIP3    H226939   3.665   5.805   1.158  1.0495  0.0450 -1.9098
 1794TIP3   OH226940   3.463   5.938   7.787  0.1766  0.0684  0.3993
 1794TIP3    H126941   3.369   5.953   7.777  0.3184  0.2613 -0.7994
 1794TIP3    H226942   3.473   5.907   7.877 -0.7127  2.6157  1.4653
 1795TIP3   OH226943   0.254   6.460   0.716  0.1400  0.2285 -0.2373
 1795TIP3    H126944   0.317   6.409   0.767 -1.9556 -2.6050 -0.2321
 1795TIP3    H226945   0.244   6.410   0.635 -0.1132  2.1221 -1.4317
 1796TIP3   OH226946   1.581   5.226   8.155  0.3211 -0.3741  0.1089
 1796TIP3    H126947   1.632   5.182   8.223 -1.3877  1.1098  2.5165
 1796TIP3    H226948   1.572   5.161   8.086  0.9348 -2.5201  1.9253
 1797TIP3   OH226949   6.151   1.735   6.879  0.1921  0.0288 -0.3763
 1797TIP3    H126950   6.077   1.677   6.862 -0.1805  0.5910 -0.7021
 1797TIP3    H226951   6.121   1.791   6.951 -0.1027  0.9516 -1.2004
 1798TIP3   OH226952   5.590   6.861   1.971  0.0584  0.7860 -0.4905
 1798TIP3    H126953   5.595   6.949   2.008  1.2317  1.2493 -1.6689
 1798TIP3    H226954   5.682   6.833   1.964 -0.2508 -0.1255 -1.0592
 1799TIP3   OH226955   1.985   2.157   0.623  0.1424 -0.4272 -0.4710
 1799TIP3    H126956   1.974   2.222   0.554  0.7121  0.6536  0.4187
 1799TIP3    H226957   2.079   2.139   0.624  0.0936 -0.6665 -0.1755
 1800TIP3   OH226958   4.922   4.388   0.703 -0.1899  0.2261  0.0083
 1800TIP3    H126959   4.962   4.449   0.640  0.0822  0.0100 -0.0296
 1800TIP3    H226960   4.936   4.429   0.788  1.0446 -0.3443  0.0987
 1801TIP3   OH226961   5.638   2.010   7.874 -0.1263  0.1650 -0.5085
 1801TIP3    H126962   5.715   2.054   7.912  0.1513 -1.0215  0.3712
 1801TIP3    H226963   5.564   2.045   7.924  0.1090 -0.4680  0.3032
 1802TIP3   OH226964   5.892   1.961   1.650  0.2075  0.0512 -0.2531
 1802TIP3    H126965   5.873   1.977   1.558 -0.6097 -1.4304 -0.3623
 1802TIP3    H226966   5.837   1.886   1.674  1.4400 -0.4890  1.0572
 1803TIP3   OH226967   6.832   3.531   2.188  0.7972 -0.0510 -0.3371
 1803TIP3    H126968   6.840   3.487   2.103 -1.2920 -0.6721 -0.2509
 1803TIP3    H226969   6.906   3.499   2.239  2.1706  0.4319 -1.9423
 1804TIP3   OH226970   4.038   1.092   1.771 -0.0228  0.3181  0.2942
 1804TIP3    H126971   4.101   1.117   1.839  0.6296  0.9668 -0.5323
 1804TIP3    H226972   3.959   1.068   1.820  0.7004 -0.0498  1.3236
 1805TIP3   OH226973   6.773   3.218   1.431 -0.6377 -0.2020 -0.3621
 1805TIP3    H126974   6.679   3.234   1.424 -0.7243  0.6037  1.6852
 1805TIP3    H226975   6.811   3.305   1.445  0.4502 -0.4890 -1.3940
 1806TIP3   OH226976   4.098   0.597   2.363 -0.3481  0.2179  0.2826
 1806TIP3    H126977   4.020   0.550   2.391  0.2977 -0.9548  0.2201
 1806TIP3    H226978   4.171   0.545   2.399  0.4083  0.8738 -0.2612
 1807TIP3   OH226979   2.154   2.596   1.168  0.9286 -0.1908 -0.1422
 1807TIP3    H126980   2.098   2.520   1.154  0.9261 -0.1293 -0.4635
 1807TIP3    H226981   2.125   2.632   1.252 -0.5780  0.7544 -1.0240
 1808TIP3   OH226982   1.520   2.316   1.569  0.2017 -0.0617 -0.2965
 1808TIP3    H126983   1.451   2.252   1.585  0.3875 -0.0036  0.8583
 1808TIP3    H226984   1.588   2.293   1.633  1.1244  0.0693 -1.1994
 1809TIP3   OH226985   3.437   1.012   0.864  0.7311 -0.0113  0.3637
 1809TIP3    H126986   3.466   1.104   0.863  0.2134  0.1569  0.2507
 1809TIP3    H226987   3.499   0.967   0.807  0.8408  0.3210  0.2159
 1810TIP3   OH226988   1.457   0.776   1.158 -0.4705 -0.2647 -0.1283
 1810TIP3    H126989   1.543   0.815   1.147  0.1659 -1.7486 -0.6269
 1810TIP3    H226990   1.474   0.687   1.189 -1.7484 -1.0171 -1.4234
 1811TIP3   OH226991   6.090   4.324   8.095  0.0076 -0.0917  0.5978
 1811TIP3    H126992   6.110   4.386   8.165  0.6947 -0.1106  0.4250
 1811TIP3    H226993   6.063   4.244   8.140  1.7269 -0.5530  0.9114
 1812TIP3   OH226994   5.748   6.090   1.060 -0.5365 -0.7490  0.4976
 1812TIP3    H126995   5.657   6.109   1.081 -0.1851  0.1731  1.2589
 1812TIP3    H226996   5.780   6.170   1.019  0.1057 -0.8324  0.8205
 1813TIP3   OH226997   1.110   6.301   1.507 -0.1399 -0.2076  0.3988
 1813TIP3    H126998   1.060   6.244   1.564 -1.1753 -0.6772 -0.9245
 1813TIP3    H226999   1.180   6.245   1.471 -1.2596 -0.7633 -1.0355
 1814TIP3   OH227000   6.814   0.940   2.329  0.2034 -0.1994  0.0701
 1814TIP3    H127001   6.812   0.844   2.327  0.3175 -0.2544  1.5552
 1814TIP3    H227002   6.906   0.962   2.312  0.1209 -0.3333 -0.5688
 1815TIP3   OH227003   0.898   5.966   8.418  0.1766 -0.1331 -0.2327
 1815TIP3    H127004   0.879   5.997   8.330  0.9983  1.0991  0.0012
 1815TIP3    H227005   0.896   6.045   8.472  0.8423 -0.7044  0.6529
 1816TIP3   OH227006   0.067   6.073   0.542  0.6350  0.3030 -0.2557
 1816TIP3    H127007   0.141   6.083   0.602 -0.8578  1.2515  1.5575
 1816TIP3    H227008   0.012   6.149   0.561  0.5377  1.2088 -3.6013
 1817TIP3   OH227009   2.518   6.784   6.744  0.0289 -0.3221  0.0004
 1817TIP3    H127010   2.487   6.728   6.672 -1.1843  0.6658 -0.2677
 1817TIP3    H227011   2.451   6.851   6.754 -0.8680 -1.5067  3.3732
 1818TIP3   OH227012   0.218   1.806   7.652 -0.2440 -0.1232 -0.0326
 1818TIP3    H127013   0.142   1.755   7.680 -0.5726  1.3163  1.8891
 1818TIP3    H227014   0.199   1.827   7.560 -2.7321  1.0971  0.6639
 1819TIP3   OH227015   2.468   6.365   1.255  0.3603 -0.0340 -0.0179
 1819TIP3    H127016   2.502   6.453   1.240  1.3126 -0.2943  0.5961
 1819TIP3    H227017   2.494   6.343   1.344 -0.6641 -0.5850  0.1626
 1820TIP3   OH227018   0.861   5.802   1.528  0.5514 -0.4834 -0.1128
 1820TIP3    H127019   0.848   5.736   1.460  0.1279 -0.1271 -0.3892
 1820TIP3    H227020   0.885   5.881   1.480 -2.5447  0.5725 -0.1595
 1821TIP3   OH227021   4.123   4.708   8.277 -0.0882 -0.1525  0.3269
 1821TIP3    H127022   4.056   4.648   8.311 -0.0323  0.0348  0.7714
 1821TIP3    H227023   4.083   4.795   8.284 -0.1299 -0.1213 -0.2240
 1822TIP3   OH227024   4.332   5.180   7.735 -0.1986  0.0688  0.0964
 1822TIP3    H127025   4.326   5.216   7.823  1.4008  0.5161  0.0605
 1822TIP3    H227026   4.419   5.141   7.731 -0.9413 -1.6271 -0.6952
 1823TIP3   OH227027   1.954   4.551   1.897 -0.4159  0.1925  0.7235
 1823TIP3    H127028   1.934   4.613   1.827 -0.0513  0.0667  0.4985
 1823TIP3    H227029   1.977   4.470   1.851  1.0311  0.4575  0.9258
 1824TIP3   OH227030   2.621   4.437   1.247  0.6933 -0.1034 -0.6244
 1824TIP3    H127031   2.679   4.504   1.212 -0.8710  1.0450 -1.1490
 1824TIP3    H227032   2.600   4.467   1.336  0.1751  0.0035 -0.7777
 1825TIP3   OH227033   2.916   2.036   2.150  0.3612  0.4317  0.0293
 1825TIP3    H127034   2.919   2.023   2.244  0.4599  1.8925  0.2447
 1825TIP3    H227035   2.904   1.948   2.114  0.9613 -0.2200  1.3623
 1826TIP3   OH227036   5.555   3.775   2.549  0.3067 -0.2281  0.0233
 1826TIP3    H127037   5.629   3.833   2.566  0.7541 -0.1421 -2.0039
 1826TIP3    H227038   5.561   3.708   2.617  3.8785 -1.7715 -1.5806
 1827TIP3   OH227039   1.778   3.526   2.160 -0.3479  0.9988  0.1872
 1827TIP3    H127040   1.853   3.586   2.166 -0.4763  0.9954  2.4546
 1827TIP3    H227041   1.786   3.469   2.236 -0.3414 -1.8244 -1.7972
 1828TIP3   OH227042   3.467   1.913   1.224  0.5196  0.1450  1.0152
 1828TIP3    H127043   3.508   1.937   1.307 -0.0851  1.3201  1.0002
 1828TIP3    H227044   3.373   1.927   1.239  0.4169  0.4862  0.1008
 1829TIP3   OH227045   3.051   0.318   2.030 -0.2244 -0.4845  0.0612
 1829TIP3    H127046   3.129   0.340   2.080 -0.5746 -1.3148  0.9998
 1829TIP3    H227047   2.994   0.394   2.041 -0.5681 -0.9138  1.5201
 1830TIP3   OH227048   0.559   0.470   7.684 -0.7453 -0.2000  0.6650
 1830TIP3    H127049   0.608   0.389   7.666 -1.2847 -0.2979 -0.4391
 1830TIP3    H227050   0.488   0.443   7.741 -0.2578 -0.2869  1.2422
 1831TIP3   OH227051   2.810   6.175   6.170 -0.1683 -0.9168 -0.5019
 1831TIP3    H127052   2.816   6.176   6.075  0.4447 -0.6045 -0.4668
 1831TIP3    H227053   2.718   6.193   6.188 -0.1120 -0.0248 -1.0279
 1832TIP3   OH227054   0.000   1.912   2.251  0.2413 -0.2351 -0.8266
 1832TIP3    H127055   0.094   1.916   2.267  0.3737 -1.3030 -1.2866
 1832TIP3    H227056  -0.039   1.939   2.334  0.9371  0.6500 -0.7602
 1833TIP3   OH227057   6.160   3.406   2.626  0.1185 -0.0435  0.4844
 1833TIP3    H127058   6.098   3.474   2.601 -0.4434 -0.6382  0.2338
 1833TIP3    H227059   6.124   3.370   2.707  0.9862  0.6698  1.2104
 1834TIP3   OH227060   0.550   0.505   0.396  0.7200  0.4687 -0.1556
 1834TIP3    H127061   0.531   0.505   0.490  0.6670 -2.9038 -0.0410
 1834TIP3    H227062   0.640   0.536   0.390  0.7893  0.5446  1.0424
 1835TIP3   OH227063   2.797   6.450   1.165  0.3561  0.2513  0.7670
 1835TIP3    H127064   2.830   6.513   1.101  0.3800 -1.6668 -1.2306
 1835TIP3    H227065   2.732   6.499   1.215  0.9434  2.0695 -0.1596
 1836TIP3   OH227066   0.586   0.112   0.846  1.1423 -0.3291  0.3199
 1836TIP3    H127067   0.564   0.063   0.767  2.1398 -0.0844 -0.1247
 1836TIP3    H227068   0.640   0.185   0.815 -1.0050  1.6226  0.8194
 1837TIP3   OH227069   5.827   6.468   0.861  0.5007  0.2401  0.2810
 1837TIP3    H127070   5.846   6.488   0.953  1.1425 -1.7558  0.6199
 1837TIP3    H227071   5.904   6.498   0.813  0.6917  0.1603  0.5387
 1838TIP3   OH227072   2.076   6.153   7.584 -0.2034 -0.3590  0.6903
 1838TIP3    H127073   2.107   6.067   7.556  0.5815 -0.2803  1.2660
 1838TIP3    H227074   2.131   6.174   7.660 -0.1783  0.7861  0.3662
 1839TIP3   OH227075   1.621   0.032   8.120  0.1614  0.3739  0.0207
 1839TIP3    H127076   1.716   0.026   8.107 -0.1500 -1.4755 -1.8271
 1839TIP3    H227077   1.594  -0.057   8.141 -1.3304  0.6385 -0.6674
 1840TIP3   OH227078   5.021   1.569   0.402 -0.1124  0.8101 -0.0747
 1840TIP3    H127079   4.958   1.498   0.391  1.5238 -0.5375 -1.4011
 1840TIP3    H227080   4.976   1.647   0.370 -1.2735 -0.0042 -0.4746
 1841TIP3   OH227081   2.177   5.819   1.444  0.4427  0.4286  0.2744
 1841TIP3    H127082   2.159   5.726   1.458  1.6324 -0.0073 -0.9380
 1841TIP3    H227083   2.092   5.862   1.458 -0.3788 -0.9596 -0.2766
 1842TIP3   OH227084   6.304   6.824   0.369  0.1646  0.0580  0.3506
 1842TIP3    H127085   6.329   6.804   0.279  1.0791 -0.7179  0.7666
 1842TIP3    H227086   6.215   6.789   0.378  0.0360  0.2198 -0.2628
 1843TIP3   OH227087   0.364   3.159   8.166 -0.4482 -0.3232 -0.0728
 1843TIP3    H127088   0.307   3.187   8.094 -1.9413 -0.9982  0.8054
 1843TIP3    H227089   0.432   3.226   8.170 -0.0264 -0.5435 -2.4287
 1844TIP3   OH227090   1.394   1.743   0.657  0.0426 -0.5183  0.6516
 1844TIP3    H127091   1.411   1.649   0.661  0.4305 -0.3874  2.7191
 1844TIP3    H227092   1.481   1.783   0.654 -0.0608 -0.1983 -2.6824
 1845TIP3   OH227093   3.339   6.498   1.724 -0.2957 -0.5501 -0.0654
 1845TIP3    H127094   3.251   6.531   1.738  0.3892  2.1370 -1.4338
 1845TIP3    H227095   3.392   6.542   1.790  0.2262 -1.3566  0.0792
 1846TIP3   OH227096   2.635   5.797   2.094  0.1573 -0.3375  1.0049
 1846TIP3    H127097   2.598   5.734   2.155  1.2123 -0.0044  2.0036
 1846TIP3    H227098   2.669   5.868   2.149  2.5834 -0.7733  0.2018
 1847TIP3   OH227099   5.993   3.837   8.034  0.0616  0.0852  0.3718
 1847TIP3    H127100   5.937   3.776   7.985 -0.1435 -0.3011  1.0701
 1847TIP3    H227101   6.082   3.812   8.010 -0.0395  1.4085 -1.6022
 1848TIP3   OH227102   6.383   0.477   7.594  0.1896  0.4377  0.2146
 1848TIP3    H127103   6.379   0.381   7.605  1.9905  0.5636  2.6280
 1848TIP3    H227104   6.297   0.507   7.624 -0.5588 -0.3849 -0.9663
 1849TIP3   OH227105   4.790   1.997   0.145  0.1532  0.4631  0.0844
 1849TIP3    H127106   4.699   1.969   0.142  0.5608 -0.8643 -1.3962
 1849TIP3    H227107   4.786   2.093   0.145 -1.2299  0.4241 -0.7168
 1850TIP3   OH227108   2.395   4.791   8.582 -1.1369  0.3856 -0.3748
 1850TIP3    H127109   2.395   4.785   8.677 -2.0743 -0.7456 -0.4376
 1850TIP3    H227110   2.486   4.777   8.557 -1.1633 -1.0196  0.2613
 1851TIP3   OH227111   0.455   2.390   7.414 -0.2664 -0.0043 -0.1567
 1851TIP3    H127112   0.436   2.414   7.505 -3.0805 -0.6550 -0.4686
 1851TIP3    H227113   0.473   2.473   7.370 -0.7696  0.5382  0.6357
 1852TIP3   OH227114   6.735   3.815   1.837 -0.2000 -0.0248  0.0145
 1852TIP3    H127115   6.820   3.771   1.839  0.6257  1.5327  0.7603
 1852TIP3    H227116   6.733   3.861   1.753  0.9772  2.2721  1.1742
 1853TIP3   OH227117   1.537   5.001   2.536 -0.1197 -0.6449  0.2011
 1853TIP3    H127118   1.546   4.911   2.566  1.0623 -0.1865  1.3558
 1853TIP3    H227119   1.549   5.054   2.616  0.0924  0.5417 -0.5903
 1854TIP3   OH227120   3.594   1.842   7.428  0.1056 -0.1293 -0.2094
 1854TIP3    H127121   3.549   1.921   7.397 -0.6523 -0.2589  0.5511
 1854TIP3    H227122   3.683   1.851   7.393  0.0790  1.1508 -0.0118
 1855TIP3   OH227123   1.617   6.867   2.344 -0.0069 -0.3878 -0.3268
 1855TIP3    H127124   1.661   6.938   2.391 -1.4611  0.4747 -0.2025
 1855TIP3    H227125   1.675   6.848   2.270  1.0306  0.0362  0.3450
 1856TIP3   OH227126   6.136   4.686   0.404 -0.4874 -0.2276 -0.6305
 1856TIP3    H127127   6.128   4.697   0.309  0.7803 -0.1873 -0.7510
 1856TIP3    H227128   6.046   4.678   0.435 -0.9568  0.6371 -1.7252
 1857TIP3   OH227129   6.570   3.959   1.399 -0.2756  0.2249 -0.4007
 1857TIP3    H127130   6.541   3.910   1.322 -2.6752 -2.5861  2.0411
 1857TIP3    H227131   6.495   4.016   1.420 -0.7003 -0.8900  1.2173
 1858TIP3   OH227132   3.677   1.823   1.895 -0.0758 -0.0203  0.3067
 1858TIP3    H127133   3.699   1.730   1.884  3.2584  0.6635  0.1562
 1858TIP3    H227134   3.742   1.856   1.957 -2.0783  1.9537  1.4853
 1859TIP3   OH227135   6.655   5.289   0.213 -0.0783 -0.3964 -0.3528
 1859TIP3    H127136   6.635   5.266   0.122  0.2408 -0.1158 -0.4992
 1859TIP3    H227137   6.710   5.217   0.245 -1.5187 -1.3099  0.1405
 1860TIP3   OH227138   5.716   6.727   0.453  0.2906 -0.5417 -0.4388
 1860TIP3    H127139   5.802   6.740   0.494 -0.0276 -0.0049  0.0771
 1860TIP3    H227140   5.734   6.723   0.359  1.0243 -1.6754 -0.2754
 1861TIP3   OH227141   2.982   6.635   7.544  0.0539 -0.5449 -0.1828
 1861TIP3    H127142   2.906   6.605   7.595 -0.0122 -0.8203 -0.4464
 1861TIP3    H227143   3.056   6.624   7.604 -0.2370  0.6319  0.4251
 1862TIP3   OH227144   3.200   5.287   8.127  0.3199 -0.1643  0.2035
 1862TIP3    H127145   3.266   5.268   8.194  0.0518 -0.0048  0.5148
 1862TIP3    H227146   3.147   5.207   8.122 -1.2108  0.6552  1.9739
 1863TIP3   OH227147   1.729   6.688   8.478 -0.1478 -0.5657  0.0633
 1863TIP3    H127148   1.652   6.687   8.422  1.0616 -0.4673 -1.6600
 1863TIP3    H227149   1.716   6.764   8.535 -0.4309  0.6292 -1.5299
 1864TIP3   OH227150   3.154   3.362   1.657 -0.7258 -0.3560 -0.1045
 1864TIP3    H127151   3.093   3.289   1.666 -1.5211  0.4042  1.0184
 1864TIP3    H227152   3.133   3.420   1.730  0.3695  0.6500 -0.5458
 1865TIP3   OH227153   5.453   4.835   8.011 -0.0345  0.8507 -0.7451
 1865TIP3    H127154   5.493   4.849   7.925  1.8689 -1.2638 -0.2870
 1865TIP3    H227155   5.479   4.911   8.063 -1.6379  2.4176 -2.0914
 1866TIP3   OH227156   1.476   4.773   8.463  0.1951 -0.6459  0.5076
 1866TIP3    H127157   1.395   4.787   8.513 -1.1598 -1.2441 -1.4102
 1866TIP3    H227158   1.486   4.852   8.411 -0.1539 -1.2863 -0.5607
 1867TIP3   OH227159   6.246   0.235   1.463 -0.5201  0.6681  0.0619
 1867TIP3    H127160   6.246   0.320   1.507  1.0075  1.1078 -0.7236
 1867TIP3    H227161   6.263   0.255   1.371 -1.4910 -0.3978 -0.3795
 1868TIP3   OH227162   1.935   0.244   0.138 -0.5833 -0.2539  0.2049
 1868TIP3    H127163   1.976   0.174   0.189 -1.8324 -1.2819 -0.1321
 1868TIP3    H227164   1.864   0.200   0.091 -1.8738  1.3900  0.5339
 1869TIP3   OH227165   5.386   6.610   1.121 -0.3825  0.2875  0.0290
 1869TIP3    H127166   5.465   6.630   1.171  0.2488  0.3315 -0.9729
 1869TIP3    H227167   5.315   6.650   1.172  0.5084  2.3783 -0.3025
 1870TIP3   OH227168   1.663   3.838   2.262  0.1136 -0.1478  0.5972
 1870TIP3    H127169   1.577   3.862   2.295 -1.1710 -1.4331 -1.5551
 1870TIP3    H227170   1.653   3.746   2.235  2.1513 -0.3155  0.2588
 1871TIP3   OH227171   0.837   5.352   8.438  0.1967  0.2045  0.1626
 1871TIP3    H127172   0.842   5.261   8.409  0.5546  0.4851 -0.6993
 1871TIP3    H227173   0.916   5.364   8.491  0.0693 -0.0304  0.4061
 1872TIP3   OH227174   5.587   0.165   0.308 -0.1724 -0.0357 -0.2923
 1872TIP3    H127175   5.667   0.212   0.286 -1.3797  1.7175 -1.1490
 1872TIP3    H227176   5.591   0.085   0.256  0.7453  0.3022 -0.7528
 1873TIP3   OH227177   3.353   5.955   0.541  1.0136 -0.3806  0.2572
 1873TIP3    H127178   3.351   6.031   0.599  0.4881  0.4159 -0.7757
 1873TIP3    H227179   3.291   5.893   0.580 -1.9661  1.4848 -1.1774
 1874TIP3   OH227180   1.731   0.429   0.697  0.1639 -0.7915 -0.5503
 1874TIP3    H127181   1.771   0.345   0.674  0.2290 -0.8038 -0.3941
 1874TIP3    H227182   1.722   0.425   0.792  1.6089  0.0073 -0.3417
 1875TIP3   OH227183   4.664   2.889   1.209  0.7897  0.1715 -0.7448
 1875TIP3    H127184   4.594   2.835   1.172  0.8693 -0.1903 -0.3735
 1875TIP3    H227185   4.645   2.892   1.303 -0.8481  3.1519 -1.0480
 1876TIP3   OH227186   1.920   4.277   2.844  0.1131  0.0384 -0.5427
 1876TIP3    H127187   1.911   4.221   2.767 -0.5436 -0.3111 -0.2147
 1876TIP3    H227188   1.971   4.352   2.813  0.2102 -0.3014 -1.2127
 1877TIP3   OH227189   6.264   0.763   1.144 -0.5813 -0.1965 -0.4460
 1877TIP3    H127190   6.254   0.850   1.184  1.0289  0.2851 -0.9793
 1877TIP3    H227191   6.211   0.767   1.065 -0.7286  0.2060 -0.3335
 1878TIP3   OH227192   3.360   0.012   7.128  0.0870  0.2871 -0.0676
 1878TIP3    H127193   3.304   0.089   7.134  1.8203  1.6977 -1.0084
 1878TIP3    H227194   3.344  -0.021   7.039  1.0674  1.0039 -0.5318
 1879TIP3   OH227195   0.906   5.810   2.282  0.1237  0.0104  0.0485
 1879TIP3    H127196   0.890   5.740   2.345 -1.9853 -0.4557 -0.9278
 1879TIP3    H227197   0.902   5.891   2.333  0.3374 -0.4619  0.8122
 1880TIP3   OH227198   4.897   3.985   8.017  0.5908 -0.0251  0.0646
 1880TIP3    H127199   4.941   4.063   8.051  1.0010 -0.0741 -0.3399
 1880TIP3    H227200   4.963   3.944   7.961 -0.3274  0.4848 -1.4342
 1881TIP3   OH227201   1.628   5.430   7.962  0.0731 -0.1674 -0.1330
 1881TIP3    H127202   1.626   5.403   7.870 -1.5497 -2.6731  0.5404
 1881TIP3    H227203   1.642   5.348   8.010  2.1291  1.2190  1.8666
 1882TIP3   OH227204   0.560   5.329   0.475  0.6675 -0.1556 -0.4965
 1882TIP3    H127205   0.592   5.244   0.446  1.5489 -0.0970  0.2403
 1882TIP3    H227206   0.575   5.330   0.570  1.1573  0.9973 -0.5579
 1883TIP3   OH227207   0.263   0.331   0.209 -0.4843  0.4255  0.6123
 1883TIP3    H127208   0.253   0.396   0.278  0.7305  1.6330 -0.3073
 1883TIP3    H227209   0.178   0.327   0.167 -0.9436  0.4234  1.5216
 1884TIP3   OH227210   2.254   5.370   2.778 -0.4758  0.0417  0.3844
 1884TIP3    H127211   2.179   5.404   2.729 -0.8322 -0.7299  0.3685
 1884TIP3    H227212   2.324   5.363   2.713 -0.2121  1.2746  0.5146
 1885TIP3   OH227213   0.785   4.903   0.918  0.1422 -0.6487 -0.1318
 1885TIP3    H127214   0.727   4.838   0.957  0.5620 -0.6749  0.4709
 1885TIP3    H227215   0.872   4.864   0.924  0.3325 -0.2463 -0.2330
 1886TIP3   OH227216   5.642   0.716   1.783 -0.1184 -1.3061  0.4796
 1886TIP3    H127217   5.733   0.722   1.810 -0.3519  0.5732  0.9830
 1886TIP3    H227218   5.596   0.681   1.860 -0.4540  2.0314  1.9719
 1887TIP3   OH227219   5.123   0.147   0.721  0.1181  0.0080 -0.1820
 1887TIP3    H127220   5.030   0.164   0.734 -0.4471 -2.1725 -0.9428
 1887TIP3    H227221   5.147   0.091   0.795  0.7485  0.2946 -0.1673
 1888TIP3   OH227222   1.572   3.111   1.106  0.4815  0.3710  0.0819
 1888TIP3    H127223   1.594   3.165   1.182  0.3978 -0.4568  0.7145
 1888TIP3    H227224   1.610   3.025   1.126 -0.3715 -0.1267 -0.3579
 1889TIP3   OH227225   3.065   2.491   1.023  0.2415 -0.1230  0.4036
 1889TIP3    H127226   3.028   2.513   1.109 -0.2780  3.0014 -0.4893
 1889TIP3    H227227   3.134   2.556   1.010  0.8249 -1.0218 -1.2413
 1890TIP3   OH227228   2.142   6.401   6.581  0.1588 -1.1806 -0.8724
 1890TIP3    H127229   2.170   6.326   6.633  0.7692  1.2822  2.7724
 1890TIP3    H227230   2.223   6.438   6.546  0.1686 -0.7512 -0.4063
 1891TIP3   OH227231   1.318   1.380   8.472  0.0857  0.1558 -0.2062
 1891TIP3    H127232   1.304   1.290   8.442 -1.2607  0.7239 -1.3754
 1891TIP3    H227233   1.274   1.434   8.407 -1.1374  1.5733  1.6874
 1892TIP3   OH227234   0.869   1.079   8.325  0.8648 -0.1153 -0.0317
 1892TIP3    H127235   0.913   0.999   8.355 -0.7517 -1.7400 -1.7337
 1892TIP3    H227236   0.842   1.059   8.235  1.2486  2.7386 -0.8797
 1893TIP3   OH227237   5.016   5.139   1.081 -0.0982 -0.0128 -0.3526
 1893TIP3    H127238   5.077   5.134   1.007  0.6342  0.2504  0.2152
 1893TIP3    H227239   4.944   5.194   1.050 -0.4093 -0.9254 -1.2743
 1894TIP3   OH227240   6.437   3.037   0.213 -0.2447  0.1066 -0.7161
 1894TIP3    H127241   6.365   3.023   0.274  0.4722  0.8474  0.3260
 1894TIP3    H227242   6.396   3.072   0.134 -1.1213 -0.3763 -0.4846
 1895TIP3   OH227243   3.004   2.537   0.122  0.3970  0.1581 -0.0667
 1895TIP3    H127244   3.013   2.513   0.214  0.3503 -0.0275 -0.1101
 1895TIP3    H227245   3.093   2.557   0.094  0.3129  0.9630  0.2195
 1896TIP3   OH227246   4.911   5.313   0.773 -0.5279  0.3541 -0.7957
 1896TIP3    H127247   4.947   5.224   0.775 -0.7073  0.2911 -0.2158
 1896TIP3    H227248   4.867   5.323   0.858 -1.4768  0.5977 -1.3017
 1897TIP3   OH227249   4.497   3.214   0.067  0.0855 -0.5121 -0.0334
 1897TIP3    H127250   4.463   3.125   0.058  0.3224 -0.7713  1.4239
 1897TIP3    H227251   4.426   3.262   0.111  0.3494 -0.2315  0.0886
 1898TIP3   OH227252   4.059   5.019   1.954 -0.0739  0.0133  0.0179
 1898TIP3    H127253   3.981   4.971   1.984  1.5631 -1.2888  2.5092
 1898TIP3    H227254   4.036   5.048   1.865 -2.7626 -1.7103  0.0245
 1899TIP3   OH227255   2.033   4.159   0.886  0.3896 -0.1780  0.2216
 1899TIP3    H127256   2.023   4.090   0.951  0.4698 -0.5294 -0.1336
 1899TIP3    H227257   1.983   4.233   0.921 -1.2942 -1.0345 -0.2787
 1900TIP3   OH227258   0.515   5.937   1.790  0.3479  0.2464  0.3718
 1900TIP3    H127259   0.578   6.006   1.812  4.3432 -2.2311 -2.0443
 1900TIP3    H227260   0.568   5.858   1.781 -3.2177 -2.2147 -1.5479
 1901TIP3   OH227261   6.069   2.779   7.266 -0.1939  0.0455  0.1614
 1901TIP3    H127262   6.140   2.842   7.277  0.2626 -0.2688 -0.8898
 1901TIP3    H227263   5.990   2.827   7.291 -0.1175  1.6742 -2.4014
 1902TIP3   OH227264   1.254   5.708   0.826  0.4913  0.1263  0.5565
 1902TIP3    H127265   1.334   5.748   0.793 -1.6732  2.1914 -2.8215
 1902TIP3    H227266   1.214   5.667   0.749 -0.8101 -2.6111  2.5144
 1903TIP3   OH227267   4.483   1.047   7.674 -0.1714  0.3562  0.0895
 1903TIP3    H127268   4.427   1.117   7.640 -0.9572 -0.0830  0.4513
 1903TIP3    H227269   4.513   1.079   7.759  0.9111  0.9908 -0.5075
 1904TIP3   OH227270   1.613   5.774   1.614  0.0449 -0.1419  0.3973
 1904TIP3    H127271   1.652   5.742   1.696  0.4606  0.5752  0.4816
 1904TIP3    H227272   1.590   5.694   1.567 -1.6472 -0.5960  1.8790
 1905TIP3   OH227273   0.796   3.327   8.050  0.0629 -0.4795 -0.0587
 1905TIP3    H127274   0.798   3.241   8.008  0.0509 -0.7444  0.4860
 1905TIP3    H227275   0.882   3.335   8.092  0.0304 -0.2595 -0.0341
 1906TIP3   OH227276   2.442   5.618   1.612  0.0763  0.2834  0.1879
 1906TIP3    H127277   2.352   5.608   1.581  0.0212 -1.6828  0.8657
 1906TIP3    H227278   2.455   5.547   1.675  2.7990 -0.9519 -1.5474
 1907TIP3   OH227279   1.637   2.510   6.765 -0.7211 -0.3664  0.5626
 1907TIP3    H127280   1.567   2.559   6.809  1.4863  0.8342  2.9994
 1907TIP3    H227281   1.688   2.576   6.719 -1.2943 -1.2737 -1.4842
 1908TIP3   OH227282   3.495   3.616   2.314 -0.6026  0.1066  1.0299
 1908TIP3    H127283   3.424   3.614   2.378 -1.2970 -0.4409  0.2417
 1908TIP3    H227284   3.536   3.530   2.321 -1.4275 -0.3813 -0.1049
 1909TIP3   OH227285   1.536   6.570   1.209 -0.5679  0.3636 -0.1589
 1909TIP3    H127286   1.544   6.665   1.211 -1.8799  0.4929 -0.3968
 1909TIP3    H227287   1.613   6.540   1.160 -0.0454  1.2730  0.0802
 1910TIP3   OH227288   5.101   6.648   2.549 -0.5588 -0.0641  0.5909
 1910TIP3    H127289   5.142   6.711   2.608  1.2743 -0.8191  0.1659
 1910TIP3    H227290   5.068   6.701   2.476 -1.2794  0.6645  1.4203
 1911TIP3   OH227291   5.480   6.346   2.311  0.3043  0.3925  0.3818
 1911TIP3    H127292   5.545   6.288   2.353  0.2846  0.0068 -0.1147
 1911TIP3    H227293   5.422   6.372   2.383  1.1429  0.9270  0.8802
 1912TIP3   OH227294   6.094   2.324   6.913  0.3922  0.8799 -0.1437
 1912TIP3    H127295   6.176   2.347   6.955  0.3684 -0.2803  0.5920
 1912TIP3    H227296   6.107   2.235   6.881 -0.8112  0.3990  0.6354
 1913TIP3   OH227297   0.265   1.646   1.628 -0.1005  0.0353 -0.1271
 1913TIP3    H127298   0.210   1.711   1.585 -2.4967 -1.0041  1.2133
 1913TIP3    H227299   0.246   1.655   1.721  0.3479 -1.8253  0.1843
 1914TIP3   OH227300   2.223   2.860   1.161 -0.2359 -0.0095 -0.0581
 1914TIP3    H127301   2.198   2.770   1.141 -0.3728  0.6849 -3.6194
 1914TIP3    H227302   2.307   2.852   1.206 -0.1039 -1.9112 -0.5551
 1915TIP3   OH227303   6.280   3.390   1.730  0.2219  0.2384 -0.1213
 1915TIP3    H127304   6.228   3.311   1.747 -0.2356  0.7521  0.9360
 1915TIP3    H227305   6.248   3.422   1.646  0.1341 -0.4780 -0.3689
 1916TIP3   OH227306   1.435   3.878   0.581 -0.0234 -0.0602 -0.5628
 1916TIP3    H127307   1.517   3.910   0.544  1.0013 -2.9493 -1.0853
 1916TIP3    H227308   1.439   3.902   0.673 -1.2807  4.6849 -1.4544
 1917TIP3   OH227309   6.414   5.841   7.685 -0.2085  0.1199 -0.3104
 1917TIP3    H127310   6.409   5.923   7.636 -1.2521  0.2545  0.0053
 1917TIP3    H227311   6.350   5.784   7.643 -0.0001 -0.2877 -0.0773
 1918TIP3   OH227312   0.233   0.238   1.440  0.3216  0.0075 -0.1575
 1918TIP3    H127313   0.269   0.295   1.509 -0.1941  0.1869 -0.0294
 1918TIP3    H227314   0.188   0.298   1.381  2.7335  0.1598 -1.9781
 1919TIP3   OH227315   4.652   1.091   8.145  0.6571  0.6290  0.2993
 1919TIP3    H127316   4.675   1.015   8.198 -2.0211  0.9735  2.2021
 1919TIP3    H227317   4.655   1.164   8.206 -2.5775  1.0398  0.1674
 1920TIP3   OH227318   6.537   4.619   2.341 -0.3380 -0.3910  0.3100
 1920TIP3    H127319   6.449   4.645   2.366 -0.2092 -0.6622  1.0642
 1920TIP3    H227320   6.577   4.587   2.422  1.6426  2.9698  0.8563
 1921TIP3   OH227321   4.550   4.208   7.147 -0.5559  0.5922  0.8659
 1921TIP3    H127322   4.559   4.221   7.053  0.4288  0.3942  0.9139
 1921TIP3    H227323   4.460   4.231   7.167 -1.2127 -0.8103 -0.3581
 1922TIP3   OH227324   1.800   6.063   8.681 -0.1445 -0.2936 -0.1074
 1922TIP3    H127325   1.743   6.139   8.695  0.8479  0.6931 -1.1615
 1922TIP3    H227326   1.757   5.991   8.727 -0.0661  1.3373  2.7559
 1923TIP3   OH227327   6.389   6.052   0.174 -0.5384 -0.5044  0.2937
 1923TIP3    H127328   6.387   5.960   0.202 -0.1338 -0.2351  1.2280
 1923TIP3    H227329   6.410   6.101   0.253 -1.4054  0.4649 -0.0656
 1924TIP3   OH227330   1.208   3.507   7.627 -0.6668 -0.7178  0.0601
 1924TIP3    H127331   1.166   3.464   7.702  0.1138 -2.5049 -0.4683
 1924TIP3    H227332   1.276   3.561   7.666 -2.3540  0.9889  0.8195
 1925TIP3   OH227333   3.047   0.805   7.970  0.1779  0.2598 -0.4990
 1925TIP3    H127334   3.022   0.800   8.062  1.9628 -0.0780  0.0074
 1925TIP3    H227335   3.026   0.718   7.935  3.2901 -1.1492  0.7062
 1926TIP3   OH227336   0.653   1.619   7.663  0.2374 -0.3997 -0.5379
 1926TIP3    H127337   0.708   1.672   7.721  0.8243 -1.1822 -0.3629
 1926TIP3    H227338   0.655   1.666   7.580  0.5044  0.0166 -0.3015
 1927TIP3   OH227339   3.156   2.913   1.506 -0.4312  0.1886 -0.0075
 1927TIP3    H127340   3.137   2.998   1.467 -0.7978  0.5387  0.9129
 1927TIP3    H227341   3.205   2.866   1.438 -0.3440  1.0746 -0.5726
 1928TIP3   OH227342   0.897   6.207   0.865  0.3989  0.0713 -0.7953
 1928TIP3    H127343   0.951   6.271   0.912 -0.2027  0.0235 -0.0166
 1928TIP3    H227344   0.900   6.235   0.774  0.8887  0.6730 -0.6011
 1929TIP3   OH227345   2.735   5.394   2.094  0.2679 -0.3693  1.0764
 1929TIP3    H127346   2.661   5.337   2.115 -1.1471  1.0489  0.1504
 1929TIP3    H227347   2.782   5.405   2.177  0.7411 -2.9885  1.2526
 1930TIP3   OH227348   1.924   1.285   1.951 -0.2572 -0.1629 -0.2322
 1930TIP3    H127349   1.913   1.381   1.953  2.2132  0.1898  0.0549
 1930TIP3    H227350   1.898   1.257   2.039  1.0524  0.5776  0.4342
 1931TIP3   OH227351   3.142   0.355   8.451 -0.2866 -0.2466  0.2507
 1931TIP3    H127352   3.153   0.319   8.363 -0.7430  1.5563 -0.6015
 1931TIP3    H227353   3.057   0.324   8.480 -0.5464 -0.1142 -0.3444
 1932TIP3   OH227354   0.517   1.731   1.326  0.2085 -0.4787  0.0524
 1932TIP3    H127355   0.589   1.721   1.264 -1.2808 -1.5151 -1.6241
 1932TIP3    H227356   0.482   1.642   1.336 -1.1602  0.0770  0.3742
 1933TIP3   OH227357   1.469   2.117   8.199 -0.1825 -0.1152  0.0306
 1933TIP3    H127358   1.411   2.093   8.271 -1.8822  0.1355 -1.1868
 1933TIP3    H227359   1.468   2.040   8.142 -0.0887  0.2617 -0.4804
 1934TIP3   OH227360   5.588   5.713   8.250 -0.7210  0.5817  0.6813
 1934TIP3    H127361   5.612   5.778   8.316 -1.4822 -1.0906  2.7118
 1934TIP3    H227362   5.507   5.675   8.282  0.2099 -2.0617  0.1034
 1935TIP3   OH227363   6.586   5.467   1.265 -0.0517 -0.2687 -0.2193
 1935TIP3    H127364   6.636   5.410   1.207  1.2157  0.6962 -0.1245
 1935TIP3    H227365   6.586   5.552   1.220 -2.2864 -0.4094 -0.5775
 1936TIP3   OH227366   0.102   2.542   7.707 -0.1656 -0.5609  0.1224
 1936TIP3    H127367   0.124   2.452   7.684 -0.0052 -0.6785  0.7063
 1936TIP3    H227368   0.009   2.539   7.730  0.0476 -0.7627  0.9966
 1937TIP3   OH227369   5.905   4.491   1.856  0.2297  0.3233  0.1469
 1937TIP3    H127370   5.906   4.400   1.827 -0.4576  1.2646 -3.3006
 1937TIP3    H227371   5.941   4.489   1.945  1.9587 -3.0727 -0.4772
 1938TIP3   OH227372   2.775   0.170   8.126 -0.6149  0.1991 -0.0857
 1938TIP3    H127373   2.746   0.103   8.064  0.6038 -1.1622  0.7403
 1938TIP3    H227374   2.736   0.144   8.209  0.8606 -0.2460  0.5098
 1939TIP3   OH227375   0.380   4.983   0.550 -0.3257  0.0703  0.3140
 1939TIP3    H127376   0.463   5.026   0.527 -1.1730  1.6842  0.0880
 1939TIP3    H227377   0.346   5.034   0.623 -1.5519  0.0297 -0.1988
 1940TIP3   OH227378   4.482   2.006   1.195 -0.1124  0.5187 -0.1685
 1940TIP3    H127379   4.535   1.950   1.139 -1.1248 -1.9725  1.2057
 1940TIP3    H227380   4.544   2.069   1.232  1.6806 -1.4120  0.2896
 1941TIP3   OH227381   4.273   3.929   0.329  0.1744  0.2197 -0.0341
 1941TIP3    H127382   4.334   3.921   0.256 -2.8429 -0.4339 -2.7256
 1941TIP3    H227383   4.258   4.024   0.338 -0.6306  0.2406 -1.4144
 1942TIP3   OH227384   3.634   2.959   1.655 -0.9529  0.2902 -0.2809
 1942TIP3    H127385   3.622   2.873   1.695 -1.4110  0.5968  0.2518
 1942TIP3    H227386   3.729   2.969   1.647 -0.8537  0.2047  0.6929
 1943TIP3   OH227387   5.181   0.975   3.119  0.5501 -0.3595 -0.2382
 1943TIP3    H127388   5.206   1.064   3.143  0.6973 -0.5388  0.2979
 1943TIP3    H227389   5.136   0.984   3.035 -0.0263  0.3063  0.1322
 1944TIP3   OH227390   2.426   5.843   6.811  0.8209  0.3319  0.1643
 1944TIP3    H127391   2.377   5.771   6.772 -0.1191  0.5564  0.9009
 1944TIP3    H227392   2.504   5.851   6.756  1.3867 -1.7945  0.5305
 1945TIP3   OH227393   0.500   2.740   6.514 -0.6737 -0.0245 -0.3637
 1945TIP3    H127394   0.567   2.712   6.452 -0.7679  0.3823 -0.6569
 1945TIP3    H227395   0.547   2.752   6.596  0.0218  2.0460 -0.9806
 1946TIP3   OH227396   4.263   2.901   6.467 -0.1043  0.5035 -0.1451
 1946TIP3    H127397   4.299   2.947   6.543  1.2191  1.4747 -1.2973
 1946TIP3    H227398   4.236   2.971   6.407  0.9890 -0.1680 -1.5006
 1947TIP3   OH227399   3.412   0.911   1.922  0.2583 -0.4022  0.2647
 1947TIP3    H127400   3.477   0.884   1.987 -0.7771 -0.0851  1.4759
 1947TIP3    H227401   3.328   0.886   1.961 -0.3520 -1.2156 -1.4632
 1948TIP3   OH227402   2.209   5.968   8.645  0.1673 -0.0882 -0.4290
 1948TIP3    H127403   2.135   5.977   8.585 -0.0469  2.5517  0.0780
 1948TIP3    H227404   2.280   6.016   8.602  0.3488  0.8425  0.8653
 1949TIP3   OH227405   5.105   1.741   7.887  0.1306 -0.6099 -0.0358
 1949TIP3    H127406   5.128   1.679   7.818  1.6199  0.0358 -0.1444
 1949TIP3    H227407   5.171   1.809   7.882 -1.3850  0.9440  0.1798
 1950TIP3   OH227408   5.456   0.401   0.381 -0.2512 -0.1138 -0.1719
 1950TIP3    H127409   5.486   0.322   0.335  0.1284  1.3371 -2.6008
 1950TIP3    H227410   5.366   0.414   0.352  0.0813  0.9750 -0.8067
 1951TIP3   OH227411   4.231   2.872   2.179 -0.0686  0.2145 -0.0208
 1951TIP3    H127412   4.311   2.917   2.204  0.7047 -1.1005 -0.0201
 1951TIP3    H227413   4.171   2.886   2.253  0.2263  1.0291  0.0716
 1952TIP3   OH227414   1.467   5.191   1.319 -0.2304 -0.3644  0.1160
 1952TIP3    H127415   1.396   5.247   1.288 -1.1196  0.5702  3.4171
 1952TIP3    H227416   1.546   5.227   1.279 -0.8346  3.0516  1.6666
 1953TIP3   OH227417   4.056   6.749   6.976  0.0678 -0.0178  0.3291
 1953TIP3    H127418   4.074   6.802   7.054 -0.5906  2.7679 -1.2922
 1953TIP3    H227419   4.136   6.698   6.964  0.2677 -0.3867  2.6574
 1954TIP3   OH227420   4.728   4.269   0.854  0.5795 -0.0304  0.0610
 1954TIP3    H127421   4.645   4.316   0.843  1.3697  1.6417  0.8460
 1954TIP3    H227422   4.791   4.319   0.802  0.7122 -2.7317 -2.6754
 1955TIP3   OH227423   4.241   2.255   1.615  0.0237 -0.2986 -0.0697
 1955TIP3    H127424   4.203   2.263   1.702  0.3516 -0.9125  0.1354
 1955TIP3    H227425   4.226   2.341   1.574  0.3624  0.1718  0.7826
 1956TIP3   OH227426   6.194   1.215   0.328  0.3490  0.1543 -0.0868
 1956TIP3    H127427   6.160   1.161   0.257  0.2498  0.7682 -0.5043
 1956TIP3    H227428   6.159   1.302   0.312 -0.3858  0.1227  1.1974
 1957TIP3   OH227429   2.519   2.216   8.588 -0.2940 -0.2928 -0.2029
 1957TIP3    H127430   2.444   2.169   8.625 -0.6721 -0.3449 -1.0183
 1957TIP3    H227431   2.524   2.297   8.639 -1.3359  0.0275 -0.5689
 1958TIP3   OH227432   3.770   0.402   7.254  0.0228 -0.8181  0.4250
 1958TIP3    H127433   3.785   0.450   7.336 -1.1660  1.9630 -0.8608
 1958TIP3    H227434   3.806   0.458   7.186 -1.2496 -1.8542 -1.1932
 1959TIP3   OH227435   3.944   0.830   2.306 -0.0285  0.3536  0.3472
 1959TIP3    H127436   3.869   0.804   2.359 -1.5675  2.3103 -0.7362
 1959TIP3    H227437   4.006   0.757   2.314 -0.9541 -0.2663  3.2535
 1960TIP3   OH227438   1.261   5.867   8.514  0.2318  0.1432 -0.0948
 1960TIP3    H127439   1.222   5.783   8.540 -2.5876  1.8129  1.6405
 1960TIP3    H227440   1.345   5.869   8.559  0.4913 -1.8607 -0.4153
 1961TIP3   OH227441   3.210   0.245   8.192 -0.3420 -0.5838  0.1177
 1961TIP3    H127442   3.301   0.263   8.169 -0.4141 -0.9830 -0.5303
 1961TIP3    H227443   3.159   0.303   8.135 -0.5060 -0.8909 -0.0529
 1962TIP3   OH227444   5.275   0.217   8.139 -0.4066 -0.6926 -0.0460
 1962TIP3    H127445   5.360   0.196   8.100 -0.0731  2.8226 -1.6229
 1962TIP3    H227446   5.297   0.258   8.223 -0.6794 -1.2119  0.2870
 1963TIP3   OH227447   0.036   4.785   0.067 -0.3434 -0.3181 -0.6330
 1963TIP3    H127448   0.120   4.756   0.030 -0.2277 -1.0153  0.1418
 1963TIP3    H227449  -0.025   4.783  -0.007  0.2162 -0.2620 -1.0990
 1964TIP3   OH227450   4.989   1.322   7.587 -0.1312  0.3976  0.2906
 1964TIP3    H127451   4.900   1.351   7.566  0.3899  1.3716 -0.6141
 1964TIP3    H227452   5.043   1.400   7.579  0.8892 -0.2797  0.3875
 1965TIP3   OH227453   0.393   4.000   7.654  0.1160 -0.4605 -0.0259
 1965TIP3    H127454   0.326   3.999   7.585  0.9273 -1.3836 -0.8396
 1965TIP3    H227455   0.455   4.067   7.626  0.3488 -0.7067 -0.1052
 1966TIP3   OH227456   4.045   1.621   7.032  0.7557 -0.0894 -0.1103
 1966TIP3    H127457   3.976   1.661   6.980 -0.5748 -0.7038  1.1179
 1966TIP3    H227458   4.007   1.611   7.119  2.6282  0.1620  0.7977
 1967TIP3   OH227459   3.920   2.470   1.433  0.0054 -0.3339 -0.1558
 1967TIP3    H127460   3.909   2.403   1.365  0.4089 -1.3184  0.7123
 1967TIP3    H227461   3.922   2.420   1.515  2.1933  0.5244  0.3926
 1968TIP3   OH227462   5.745   4.044   1.307 -0.9117 -0.5329 -0.5986
 1968TIP3    H127463   5.701   4.010   1.385 -0.8769  1.4909  0.3510
 1968TIP3    H227464   5.682   4.105   1.269  0.4981  1.3813  0.0103
 1969TIP3   OH227465   0.319   3.105   8.425  0.1975  0.1321 -0.4161
 1969TIP3    H127466   0.339   3.132   8.335  0.0672 -0.0428 -0.4999
 1969TIP3    H227467   0.399   3.062   8.455 -0.5910 -2.1452 -1.3680
 1970TIP3   OH227468   0.714   3.564   1.664  0.4009 -0.5516  0.1914
 1970TIP3    H127469   0.637   3.578   1.719 -1.0779  0.9757 -2.0588
 1970TIP3    H227470   0.684   3.504   1.596  0.9966  0.4569 -1.0055
 1971TIP3   OH227471   6.358   1.420   8.089 -0.4615 -0.0149  0.3029
 1971TIP3    H127472   6.377   1.343   8.035 -0.7022  0.0570  0.1106
 1971TIP3    H227473   6.274   1.451   8.056  0.9978  2.1375 -1.7184
 1972TIP3   OH227474   0.746   1.191   2.709  0.1972  0.2706  0.5456
 1972TIP3    H127475   0.653   1.209   2.693  0.0662 -0.3343  0.5864
 1972TIP3    H227476   0.775   1.264   2.764  0.2234  1.4508 -0.9716
 1973TIP3   OH227477   2.926   2.612   1.952 -0.2087 -0.1058  0.5496
 1973TIP3    H127478   2.963   2.534   1.993 -1.1578 -0.7792  0.1584
 1973TIP3    H227479   2.880   2.580   1.874 -2.5682  0.5043  1.5913
 1974TIP3   OH227480   1.952   2.425   0.766 -0.0904  0.3002  0.6574
 1974TIP3    H127481   1.983   2.368   0.836  0.8163  0.1431  0.1384
 1974TIP3    H227482   2.020   2.422   0.699 -0.6872  0.8723 -0.0070
 1975TIP3   OH227483   6.365   5.707   6.639 -0.5242  0.1557 -0.2574
 1975TIP3    H127484   6.371   5.717   6.544 -0.5981 -1.8304 -0.5174
 1975TIP3    H227485   6.417   5.629   6.658  0.2622  1.0522  1.4720
 1976TIP3   OH227486   3.794   1.907   8.663  0.2937  0.1265  0.0326
 1976TIP3    H127487   3.808   1.820   8.700  0.8198  0.4522  0.6112
 1976TIP3    H227488   3.776   1.962   8.739  3.1218  1.1692  0.0628
 1977TIP3   OH227489   5.912   3.961   2.771  0.2132  0.0964 -0.5572
 1977TIP3    H127490   5.969   4.024   2.726 -0.7722  1.1258 -0.4081
 1977TIP3    H227491   5.879   4.008   2.847 -2.5629  0.3379 -1.7899
 1978TIP3   OH227492   0.143   4.050   0.225  0.4380 -0.6185 -0.6031
 1978TIP3    H127493   0.077   4.093   0.278 -0.4462 -0.3543 -1.8741
 1978TIP3    H227494   0.184   4.122   0.175  0.2298 -1.0134 -1.3619
 1979TIP3   OH227495   4.329   0.609   1.574 -0.7368  0.3978 -0.0619
 1979TIP3    H127496   4.401   0.670   1.590 -0.3357 -0.5786  2.3592
 1979TIP3    H227497   4.357   0.558   1.498  0.8506  0.4869  0.4255
 1980TIP3   OH227498   1.555   1.546   8.066 -0.2400  0.2182 -0.4766
 1980TIP3    H127499   1.629   1.606   8.061  1.1074 -1.2660  0.6186
 1980TIP3    H227500   1.512   1.569   8.148 -0.3546  0.3722 -0.5794
 1981TIP3   OH227501   0.490   5.811   0.013  0.3107 -0.3106  1.1417
 1981TIP3    H127502   0.549   5.771  -0.052 -0.5447 -1.6058  1.1192
 1981TIP3    H227503   0.516   5.903   0.015  1.6727 -0.6465  0.4162
 1982TIP3   OH227504   5.766   1.703   2.934  0.4821 -0.2046 -0.9910
 1982TIP3    H127505   5.718   1.760   2.993 -0.0306 -0.6009 -1.0175
 1982TIP3    H227506   5.848   1.749   2.917 -0.8077  1.6294 -2.8158
 1983TIP3   OH227507   5.619   4.387   1.550 -0.4929  0.2769 -0.0693
 1983TIP3    H127508   5.709   4.420   1.548 -0.2901 -0.3101 -1.0105
 1983TIP3    H227509   5.611   4.344   1.635  0.1310  0.2857 -0.0005
 1984TIP3   OH227510   6.701   2.608   2.215 -0.1135  0.0546  0.2220
 1984TIP3    H127511   6.716   2.514   2.224  0.6062  0.0998 -0.3634
 1984TIP3    H227512   6.674   2.637   2.302 -1.5830 -0.8963  0.1354
 1985TIP3   OH227513   2.680   3.646   0.819 -0.2085 -0.6903 -0.5203
 1985TIP3    H127514   2.763   3.679   0.785 -0.1160 -1.4511 -1.0688
 1985TIP3    H227515   2.662   3.568   0.765 -0.7179 -1.1658  0.3171
 1986TIP3   OH227516   2.945   3.320   7.762  0.3647  0.0872 -0.5467
 1986TIP3    H127517   2.990   3.260   7.822 -0.4242  2.2857  2.4932
 1986TIP3    H227518   3.010   3.343   7.696  1.4808 -2.0088 -0.2594
 1987TIP3   OH227519   6.377   3.724   0.090 -0.1008  0.0724 -0.5779
 1987TIP3    H127520   6.287   3.748   0.066  0.0301 -0.4588 -1.6858
 1987TIP3    H227521   6.421   3.713   0.006  1.0797  0.5831 -0.0446
 1988TIP3   OH227522   3.811   5.615   7.673 -0.5484  0.0101  0.5155
 1988TIP3    H127523   3.816   5.699   7.629  0.0796 -1.0007 -1.4542
 1988TIP3    H227524   3.803   5.551   7.603 -2.6110 -1.5040  2.0070
 1989TIP3   OH227525   2.272   3.337   7.933 -0.1526  0.0162  0.1435
 1989TIP3    H127526   2.237   3.258   7.973  0.2691  0.4546  1.4112
 1989TIP3    H227527   2.197   3.376   7.887 -0.2549 -1.3332 -0.9071
 1990TIP3   OH227528   1.405   4.742   0.203  0.4809  0.5348 -0.5707
 1990TIP3    H127529   1.387   4.648   0.204 -2.0232  0.9121 -1.7313
 1990TIP3    H227530   1.399   4.768   0.295 -0.4397 -0.2062 -0.3996
 1991TIP3   OH227531   3.031   1.886   0.392  0.1830  0.5988  0.4198
 1991TIP3    H127532   2.987   1.963   0.427 -0.5018  0.5440 -0.2985
 1991TIP3    H227533   3.101   1.921   0.337  0.4228  0.6937  0.7802
 1992TIP3   OH227534   0.808   5.609   1.805  0.0121 -0.0924  0.5092
 1992TIP3    H127535   0.836   5.700   1.809  2.0411 -0.4898 -2.0013
 1992TIP3    H227536   0.837   5.572   1.888  1.8180  0.9333  0.4040
 1993TIP3   OH227537   6.586   3.314   7.804  0.2552 -0.4067  0.3759
 1993TIP3    H127538   6.553   3.353   7.884 -0.2222 -0.5086  0.2326
 1993TIP3    H227539   6.673   3.281   7.827  1.0077  1.3984  0.3160
 1994TIP3   OH227540   2.733   1.267   6.930  0.1330 -0.7663 -0.6242
 1994TIP3    H127541   2.676   1.272   7.007  0.4343  0.7315 -0.4855
 1994TIP3    H227542   2.673   1.255   6.857 -0.4423  1.4293 -0.5547
 1995TIP3   OH227543   1.675   1.428   0.736 -0.1971 -0.3127  0.0740
 1995TIP3    H127544   1.670   1.357   0.672 -0.1584  0.8378 -1.2570
 1995TIP3    H227545   1.730   1.495   0.693  1.0007 -0.0674  1.8833
 1996TIP3   OH227546   4.369   0.917   1.845 -0.1069 -0.5073  0.0533
 1996TIP3    H127547   4.430   0.885   1.778  1.4983 -0.5564  1.4559
 1996TIP3    H227548   4.402   1.005   1.866 -3.2215  1.4115 -2.2786
 1997TIP3   OH227549   6.841   5.850   8.302 -0.6697 -0.0287 -0.0779
 1997TIP3    H127550   6.893   5.779   8.264  0.1348  0.4209  0.1521
 1997TIP3    H227551   6.760   5.808   8.331 -0.8266 -0.5764 -1.2658
 1998TIP3   OH227552   4.299   1.839   1.287  0.3753 -0.0870 -0.0942
 1998TIP3    H127553   4.351   1.902   1.237  0.2738  1.2123  1.3444
 1998TIP3    H227554   4.246   1.893   1.346 -1.2449 -1.4615 -0.2248
 1999TIP3   OH227555   4.401   6.430   1.702  0.1036 -0.4623 -0.2927
 1999TIP3    H127556   4.388   6.473   1.617 -2.3063  2.1056  1.1820
 1999TIP3    H227557   4.341   6.356   1.700  0.2887 -0.6043 -0.9223
 2000TIP3   OH227558   6.302   5.483   1.929 -0.3487  0.3653 -0.0721
 2000TIP3    H127559   6.278   5.559   1.876  0.4348 -0.4871 -1.7467
 2000TIP3    H227560   6.231   5.421   1.915 -0.7217  0.5722  0.8579
 2001TIP3   OH227561   4.143   2.888   1.175 -0.3101 -0.0630 -0.1773
 2001TIP3    H127562   4.092   2.840   1.241  2.4188 -0.8572  1.5160
 2001TIP3    H227563   4.098   2.870   1.093 -2.2856 -1.3475  1.0762
 2002TIP3   OH227564   5.888   3.422   8.625 -0.2689  0.1686  0.5410
 2002TIP3    H127565   5.960   3.467   8.581 -0.4741  0.8075  0.8427
 2002TIP3    H227566   5.916   3.416   8.717 -0.2296 -0.3549  0.4969
 2003TIP3   OH227567   2.882   0.772   1.783 -0.6605  0.5728 -0.2108
 2003TIP3    H127568   2.970   0.754   1.751 -0.4251 -1.0408  1.2077
 2003TIP3    H227569   2.851   0.844   1.728  0.7275 -0.2167 -2.1512
 2004TIP3   OH227570   2.639   0.309   7.162  0.4043 -0.4455  0.3733
 2004TIP3    H127571   2.645   0.250   7.087  1.1688 -0.4163  0.4054
 2004TIP3    H227572   2.545   0.330   7.169  0.1461 -1.5130  0.2603
 2005TIP3   OH227573   4.636   2.179   1.381  0.0126 -0.1765 -0.1066
 2005TIP3    H127574   4.694   2.222   1.319 -1.2232  0.6859 -0.7079
 2005TIP3    H227575   4.647   2.228   1.462 -0.9601  0.9594 -0.6334
 2006TIP3   OH227576   2.317   5.013   1.714 -0.3374 -0.4470  0.0007
 2006TIP3    H127577   2.318   5.028   1.809  1.4792 -3.3369  0.5527
 2006TIP3    H227578   2.360   5.090   1.677 -0.8140  0.6021  1.5042
 2007TIP3   OH227579   0.249   5.096   7.310  0.1434 -0.2636 -0.2113
 2007TIP3    H127580   0.340   5.122   7.322 -0.0937  0.2962  0.4617
 2007TIP3    H227581   0.247   5.052   7.225  0.5690  1.9123 -1.4178
 2008TIP3   OH227582   0.258   0.942   1.407 -0.3302 -0.0308 -0.2771
 2008TIP3    H127583   0.232   1.030   1.434  2.7485  0.7467  0.4938
 2008TIP3    H227584   0.339   0.954   1.358  0.1025 -2.4332 -0.2863
 2009TIP3   OH227585   4.610   2.039   0.470  0.0895  0.1650  0.0157
 2009TIP3    H127586   4.677   2.106   0.456  0.4064  0.0295  0.8561
 2009TIP3    H227587   4.527   2.087   0.463  0.2114  0.1998 -1.8108
 2010TIP3   OH227588   0.652   2.954   0.609  0.6595  1.0850 -0.0113
 2010TIP3    H127589   0.575   2.989   0.565 -0.9960 -1.3683  0.7140
 2010TIP3    H227590   0.676   3.020   0.674 -0.2318  2.2980 -0.8790
 2011TIP3   OH227591   5.464   5.230   7.158  0.7652 -0.2842  0.0152
 2011TIP3    H127592   5.449   5.255   7.067  1.8207  1.1140  0.1997
 2011TIP3    H227593   5.559   5.231   7.168  0.6479  0.2092  1.3048
 2012TIP3   OH227594   4.560   0.303   1.128  0.9536 -0.2751  0.2971
 2012TIP3    H127595   4.501   0.374   1.151  1.7568  0.3399  0.5291
 2012TIP3    H227596   4.620   0.297   1.203  0.3596 -1.8122  0.7098
 2013TIP3   OH227597   5.692   4.314   2.041 -0.3011 -0.1599 -0.4673
 2013TIP3    H127598   5.722   4.399   2.070 -1.1291 -0.7290  2.3116
 2013TIP3    H227599   5.765   4.255   2.058 -0.5287 -0.3822 -0.2544
 2014TIP3   OH227600   6.759   2.074   0.219 -0.1992  0.1087 -0.2117
 2014TIP3    H127601   6.756   2.164   0.185 -1.1815  0.3291  0.4403
 2014TIP3    H227602   6.723   2.081   0.308  0.7299 -0.7520  0.2466
 2015TIP3   OH227603   5.288   0.357   8.412 -0.8896  0.1895  0.0690
 2015TIP3    H127604   5.371   0.378   8.369 -0.3782  0.1486  1.0023
 2015TIP3    H227605   5.274   0.430   8.474 -0.7631 -0.5556  1.0005
 2016TIP3   OH227606   4.131   0.277   0.438 -0.7133  0.0116  0.4068
 2016TIP3    H127607   4.209   0.305   0.391 -0.9266 -0.1345 -0.0352
 2016TIP3    H227608   4.148   0.303   0.529 -1.2052  2.2674 -0.0805
 2017TIP3   OH227609   5.361   4.328   2.174 -0.3638 -0.0066  0.3171
 2017TIP3    H127610   5.327   4.417   2.177 -1.0256 -0.2793  2.8222
 2017TIP3    H227611   5.322   4.284   2.249  0.3706 -2.2804 -0.5334
 2018TIP3   OH227612   6.697   5.770   6.668 -0.3445  0.1294  0.2053
 2018TIP3    H127613   6.655   5.687   6.645  0.7294 -0.4746  0.3469
 2018TIP3    H227614   6.744   5.751   6.749  1.4095  0.3402 -0.7042
 2019TIP3   OH227615   0.595   3.378   6.761  0.0280 -0.1878  0.4045
 2019TIP3    H127616   0.604   3.450   6.698 -1.2443  0.3611  0.8123
 2019TIP3    H227617   0.507   3.344   6.746 -0.5322  0.3043  2.2000
 2020TIP3   OH227618   1.763   2.672   2.114  0.5070  0.3358 -0.3841
 2020TIP3    H127619   1.820   2.715   2.050  0.9901  0.3935  0.0809
 2020TIP3    H227620   1.810   2.678   2.197 -0.4813  1.0114  0.1573
 2021TIP3   OH227621   5.289   5.648   8.264  0.7237 -0.3753  0.2986
 2021TIP3    H127622   5.304   5.617   8.353 -0.2962  0.1858  0.6801
 2021TIP3    H227623   5.195   5.668   8.261  0.8302  0.0332 -0.7701
 2022TIP3   OH227624   1.893   1.813   8.405 -0.3428 -0.6624 -0.0489
 2022TIP3    H127625   1.887   1.898   8.448 -0.0720 -1.3455  1.3897
 2022TIP3    H227626   1.974   1.816   8.355  0.1392 -0.3848  0.7353
 2023TIP3   OH227627   1.233   0.555   2.642 -0.4281  0.1529 -0.1156
 2023TIP3    H127628   1.198   0.643   2.654  0.0789  0.2461  0.7214
 2023TIP3    H227629   1.201   0.506   2.718 -1.5751 -0.6826 -1.0896
 2024TIP3   OH227630   1.843   5.716   8.677  0.3651  0.0893  0.0854
 2024TIP3    H127631   1.833   5.725   8.583 -0.8718  1.7118  0.3332
 2024TIP3    H227632   1.938   5.720   8.691  0.6010 -0.7821 -1.1161
 2025TIP3   OH227633   6.087   6.432   8.440 -0.2792  0.5966  0.2074
 2025TIP3    H127634   6.132   6.480   8.371  1.9437 -0.5819  0.7218
 2025TIP3    H227635   6.110   6.478   8.520 -0.4244  0.2999  0.4234
 2026TIP3   OH227636   6.795   3.969   8.397 -0.3027 -0.1592  0.1328
 2026TIP3    H127637   6.883   4.002   8.415  0.1943 -1.1890 -0.3157
 2026TIP3    H227638   6.794   3.881   8.435 -0.7220 -0.6201 -0.8989
 2027TIP3   OH227639   6.641   2.137   0.799 -0.3637 -0.1937 -0.0625
 2027TIP3    H127640   6.622   2.080   0.725 -1.3400 -1.8856  1.3923
 2027TIP3    H227641   6.628   2.081   0.876  0.2990  1.5580  1.4066
 2028TIP3   OH227642   4.154   2.783   0.229 -0.0757  0.6062 -0.7679
 2028TIP3    H127643   4.211   2.719   0.272  1.4569  1.8191 -0.8602
 2028TIP3    H227644   4.102   2.820   0.300 -0.1403  0.0662 -0.5304
 2029TIP3   OH227645   0.731   2.361   2.151  0.5084  0.1189 -0.4684
 2029TIP3    H127646   0.816   2.325   2.125  0.3579 -0.1705 -0.5674
 2029TIP3    H227647   0.736   2.370   2.246  0.8816  0.7117 -0.5411
 2030TIP3   OH227648   1.368   2.160   7.196 -0.0826 -0.0506  0.1385
 2030TIP3    H127649   1.364   2.116   7.111  1.0730  1.2357 -0.6117
 2030TIP3    H227650   1.322   2.101   7.256 -2.9745  0.0314 -1.8018
 2031TIP3   OH227651   3.651   2.897   7.778 -0.7227 -0.5204 -0.0571
 2031TIP3    H127652   3.691   2.965   7.832 -1.2503  0.5727 -0.9856
 2031TIP3    H227653   3.652   2.819   7.832  0.4023  0.0954  0.8462
 2032TIP3   OH227654   2.190   1.038   7.737  0.5591  0.7288  0.0817
 2032TIP3    H127655   2.109   1.085   7.716 -0.6385 -1.3450 -0.1751
 2032TIP3    H227656   2.233   1.026   7.653 -1.3806 -2.4785 -0.6035
 2033TIP3   OH227657   5.206   4.605   1.022 -0.0230  0.0348 -0.3196
 2033TIP3    H127658   5.266   4.654   0.967  1.4813 -2.5787 -1.1965
 2033TIP3    H227659   5.211   4.649   1.107  0.8596  1.6392 -1.1491
 2034TIP3   OH227660   0.871   1.511   2.054  0.5202  0.8017  0.2830
 2034TIP3    H127661   0.839   1.446   2.116  0.5239 -1.6973 -2.1339
 2034TIP3    H227662   0.945   1.552   2.098  0.6736 -1.0246  1.8586
 2035TIP3   OH227663   6.519   5.064   8.388 -0.3028 -0.3725 -0.4693
 2035TIP3    H127664   6.449   5.003   8.410 -1.2199  0.2506 -1.5928
 2035TIP3    H227665   6.544   5.041   8.298  2.0736 -1.6302  0.4039
 2036TIP3   OH227666   0.450   3.909   6.915 -0.9110 -0.1136  0.5583
 2036TIP3    H127667   0.387   3.969   6.875 -0.2029  0.3372  0.0921
 2036TIP3    H227668   0.399   3.831   6.937 -1.5972  0.1927  0.0657
 2037TIP3   OH227669   5.385   6.453   0.339 -0.0782  0.0892 -0.3443
 2037TIP3    H127670   5.332   6.513   0.286  0.5206  0.3090 -0.7130
 2037TIP3    H227671   5.343   6.453   0.425 -0.5892  0.3682 -0.5879
 2038TIP3   OH227672   1.706   4.280   3.031  0.4329 -0.0440 -0.2143
 2038TIP3    H127673   1.751   4.296   3.114 -0.9027  0.3736  0.4597
 2038TIP3    H227674   1.776   4.276   2.966  1.5360 -0.6332  0.9553
 2039TIP3   OH227675   4.812   0.267   1.274  0.0527 -0.0149  0.4080
 2039TIP3    H127676   4.826   0.274   1.368 -0.9001  1.0563  0.4996
 2039TIP3    H227677   4.822   0.357   1.242 -0.4264 -0.2337 -0.3867
 2040TIP3   OH227678   1.227   2.903   0.457 -0.4294  0.7586  0.1465
 2040TIP3    H127679   1.232   2.911   0.362 -1.1587  0.3774  0.0703
 2040TIP3    H227680   1.261   2.985   0.490 -0.7335  1.1346 -0.4599
 2041TIP3   OH227681   5.394   3.660   1.477  0.4779 -0.4610 -0.3693
 2041TIP3    H127682   5.393   3.754   1.457  1.0125 -0.4643 -0.4315
 2041TIP3    H227683   5.333   3.621   1.414 -0.8390  0.0078  0.5593
 2042TIP3   OH227684   5.057   6.492   0.364  0.3541  0.2633 -0.1115
 2042TIP3    H127685   5.135   6.502   0.419  0.8020  0.7081 -0.8121
 2042TIP3    H227686   5.085   6.433   0.294 -0.8975 -2.2660  1.3898
 2043TIP3   OH227687   5.573   6.465   7.538 -0.4491  0.1512  0.4455
 2043TIP3    H127688   5.540   6.548   7.504 -4.0753 -0.6104  1.6181
 2043TIP3    H227689   5.528   6.398   7.487  0.4469 -1.0453  1.1753
 2044TIP3   OH227690   1.867   0.296   7.981 -0.6373 -0.7701 -0.3436
 2044TIP3    H127691   1.860   0.208   8.016 -1.0964 -0.7918 -0.4820
 2044TIP3    H227692   1.858   0.285   7.886 -0.7420 -0.5732 -0.3576
 2045TIP3   OH227693   4.768   1.709   2.367  0.3431  0.0640 -0.5905
 2045TIP3    H127694   4.719   1.634   2.401  1.2666 -0.5513 -0.5751
 2045TIP3    H227695   4.859   1.682   2.371  0.7085  1.2361 -0.4956
 2046TIP3   OH227696   3.639   4.709   0.812 -0.2313  0.2653 -0.0233
 2046TIP3    H127697   3.623   4.658   0.892 -0.4561  0.3542 -0.0110
 2046TIP3    H227698   3.734   4.712   0.805 -0.1537 -2.3869 -1.4379
 2047TIP3   OH227699   4.127   1.490   1.437 -0.8069  0.0214 -0.2287
 2047TIP3    H127700   4.172   1.407   1.422 -0.1450  0.7197 -2.5721
 2047TIP3    H227701   4.059   1.469   1.501 -0.5981 -2.2942 -0.6686
 2048TIP3   OH227702   5.319   4.755   6.776  0.2033  0.4991 -0.2500
 2048TIP3    H127703   5.337   4.680   6.718  1.2640  0.5223  0.0198
 2048TIP3    H227704   5.336   4.721   6.864 -0.1285  0.8271 -0.0629
 2049TIP3   OH227705   5.646   0.129   1.017  0.3104  0.0690  0.2500
 2049TIP3    H127706   5.608   0.198   1.072  0.4005  0.9193 -0.7255
 2049TIP3    H227707   5.632   0.048   1.067  1.3535  0.9186  2.0376
 2050TIP3   OH227708   5.723   0.807   1.348  0.1448  0.9341 -0.8470
 2050TIP3    H127709   5.740   0.849   1.432 -1.3861  0.6579 -0.3633
 2050TIP3    H227710   5.681   0.875   1.294  0.6603  0.9649 -1.2163
 2051TIP3   OH227711   6.844   6.765   7.498  0.4376  0.6931 -0.0820
 2051TIP3    H127712   6.859   6.840   7.440  1.8356 -0.2660 -1.0303
 2051TIP3    H227713   6.758   6.732   7.472 -0.0314  1.7302  0.0990
 2052TIP3   OH227714   5.879   1.162   2.260 -0.1632 -0.5372  0.0373
 2052TIP3    H127715   5.943   1.131   2.196  0.7328  0.1460  0.5767
 2052TIP3    H227716   5.932   1.191   2.334 -1.0454  0.8832  0.1474
 2053TIP3   OH227717   4.267   0.355   7.923  0.0889 -0.5222 -0.1115
 2053TIP3    H127718   4.362   0.347   7.928  0.0360 -0.8586  0.4160
 2053TIP3    H227719   4.244   0.418   7.991 -0.0388 -0.2290 -0.4248
 2054TIP3   OH227720   4.615   0.218   8.117  0.3692 -0.1922 -0.1787
 2054TIP3    H127721   4.617   0.243   8.210  2.3691  1.4654 -0.5673
 2054TIP3    H227722   4.566   0.137   8.115  0.6576 -0.5363  2.4115
 2055TIP3   OH227723   2.525   4.522   7.117 -0.0828  0.1354  0.2047
 2055TIP3    H127724   2.495   4.492   7.031  0.1977 -0.0847  0.1852
 2055TIP3    H227725   2.465   4.481   7.179 -1.5979  1.9204  0.0023
 2056TIP3   OH227726   5.928   1.086   8.349 -0.4446  0.1389  0.4239
 2056TIP3    H127727   5.883   1.004   8.373  1.3800 -0.3592  2.5401
 2056TIP3    H227728   6.020   1.060   8.340 -0.2109  1.5072 -1.6123
 2057TIP3   OH227729   0.713   4.690   1.066  0.5722  0.3147  0.1911
 2057TIP3    H127730   0.659   4.616   1.039  2.7995 -1.7021  0.9295
 2057TIP3    H227731   0.718   4.683   1.161  1.3486  1.0212  0.2172
 2058TIP3   OH227732   6.767   3.445   0.752 -0.0972 -0.9531 -0.4541
 2058TIP3    H127733   6.790   3.355   0.731  0.2291 -0.9423 -0.1464
 2058TIP3    H227734   6.812   3.463   0.834 -1.2828 -0.9611  0.2182
 2059TIP3   OH227735   4.249   2.550   7.463  0.3020 -0.2633  0.6069
 2059TIP3    H127736   4.224   2.582   7.549 -2.0314  2.2082 -0.8139
 2059TIP3    H227737   4.183   2.483   7.442  2.3721 -2.7904  1.6424
 2060TIP3   OH227738   2.970   3.693   8.178  0.2481 -0.2423  0.1869
 2060TIP3    H127739   2.890   3.650   8.148 -0.1003  0.4928  0.0375
 2060TIP3    H227740   2.983   3.660   8.267  0.1578 -0.8750 -0.0265
 2061TIP3   OH227741   6.496   5.143   0.485 -0.3515  0.0188 -0.7317
 2061TIP3    H127742   6.477   5.050   0.497 -0.0521 -0.1906 -1.7925
 2061TIP3    H227743   6.558   5.145   0.413  0.5592  0.9696  0.0546
 2062TIP3   OH227744   3.005   0.386   1.556  0.0412 -0.7468  0.6203
 2062TIP3    H127745   3.050   0.415   1.477  1.2090 -1.6779  0.9220
 2062TIP3    H227746   2.945   0.458   1.576  0.5756  0.0298 -0.4362
 2063TIP3   OH227747   6.853   0.369   0.140 -0.1882  0.0087 -0.1141
 2063TIP3    H127748   6.807   0.439   0.094 -0.2726 -0.2535 -0.4295
 2063TIP3    H227749   6.826   0.380   0.232 -0.7063 -0.0013 -0.2599
 2064TIP3   OH227750   0.547   0.706   2.236 -0.3169 -0.2477  0.0117
 2064TIP3    H127751   0.547   0.693   2.331  1.1290  0.2624  0.1120
 2064TIP3    H227752   0.504   0.790   2.223  2.8034  1.6151  0.6184
 2065TIP3   OH227753   1.742   1.572   7.389 -0.7720  0.0497 -0.3822
 2065TIP3    H127754   1.677   1.542   7.452 -0.2873 -1.9285 -0.7700
 2065TIP3    H227755   1.757   1.664   7.412 -1.0177 -0.4573  2.0238
 2066TIP3   OH227756   6.535   1.723   0.403 -0.0065 -0.2536 -0.0067
 2066TIP3    H127757   6.458   1.678   0.437 -0.3927 -0.2165 -0.8017
 2066TIP3    H227758   6.581   1.658   0.351 -0.3870  0.1663 -0.8825
 2067TIP3   OH227759   3.297   4.312   8.172 -0.2305  0.5178  0.1118
 2067TIP3    H127760   3.393   4.306   8.167 -0.0729  1.5326  1.4706
 2067TIP3    H227761   3.276   4.291   8.263 -1.1414  1.9231  0.2464
 2068TIP3   OH227762   6.007   3.589   1.681  0.1646 -0.3389  0.9589
 2068TIP3    H127763   5.969   3.526   1.743  1.8433 -1.7871  0.5993
 2068TIP3    H227764   6.063   3.645   1.735  2.1913 -2.0466  0.7817
 2069TIP3   OH227765   4.502   5.550   1.685 -0.0146 -0.6100  0.3009
 2069TIP3    H127766   4.526   5.558   1.777  0.3510 -0.6117  0.2075
 2069TIP3    H227767   4.476   5.638   1.659  0.0681 -0.5689  0.3556
 2070TIP3   OH227768   2.882   5.823   2.644  0.2525 -0.5093 -0.0880
 2070TIP3    H127769   2.941   5.884   2.600 -0.3992  0.2707  0.0890
 2070TIP3    H227770   2.940   5.755   2.678  1.1245  0.4898  0.5141
 2071TIP3   OH227771   2.613   1.059   2.418 -0.3179 -0.3637 -0.6315
 2071TIP3    H127772   2.688   1.038   2.473 -0.9049  0.2357  0.4391
 2071TIP3    H227773   2.537   1.030   2.469 -0.8096 -1.5276 -1.9541
 2072TIP3   OH227774   1.120   0.385   8.430  0.1159  0.6436  0.0987
 2072TIP3    H127775   1.200   0.387   8.483  0.6452  0.7606 -0.6859
 2072TIP3    H227776   1.144   0.429   8.349 -0.5074 -0.0555 -0.4758
 2073TIP3   OH227777   1.771   6.660   0.377 -0.6620  0.3430  0.3514
 2073TIP3    H127778   1.763   6.698   0.290 -1.8851  2.4401  1.2979
 2073TIP3    H227779   1.753   6.733   0.437  0.2464 -0.9958  2.3659
 2074TIP3   OH227780   2.957   6.224   7.443 -0.0101 -0.0184  0.0723
 2074TIP3    H127781   2.863   6.241   7.439 -0.2405 -0.9265  1.0450
 2074TIP3    H227782   2.997   6.310   7.430 -1.0439  0.8413  2.1036
 2075TIP3   OH227783   3.495   4.059   2.191 -0.0578  0.2814  0.0548
 2075TIP3    H127784   3.448   4.049   2.108  2.2236 -0.2435 -1.2548
 2075TIP3    H227785   3.426   4.074   2.256 -1.9197  0.7695 -1.9223
 2076TIP3   OH227786   2.695   1.390   1.576 -1.0163 -0.4319 -0.3089
 2076TIP3    H127787   2.791   1.395   1.569 -0.5475 -3.4465  2.2620
 2076TIP3    H227788   2.674   1.440   1.655 -1.4565 -0.7746 -0.2103
 2077TIP3   OH227789   3.735   1.630   0.676  0.1071 -0.1685  0.7790
 2077TIP3    H127790   3.661   1.585   0.635  1.8911 -1.5603 -1.1331
 2077TIP3    H227791   3.806   1.565   0.674  2.3287  2.1355 -0.5825
 2078TIP3   OH227792   5.701   5.666   2.391  0.0280  0.1677 -0.1989
 2078TIP3    H127793   5.672   5.585   2.432 -0.4617 -0.0399 -0.9536
 2078TIP3    H227794   5.757   5.707   2.457  0.5884 -0.9563  0.0477
 2079TIP3   OH227795   6.528   6.184   0.438 -0.2595  0.1853  0.1176
 2079TIP3    H127796   6.600   6.241   0.464 -0.4001 -0.1593  1.3242
 2079TIP3    H227797   6.451   6.239   0.444 -0.0871  0.6114 -1.3743
 2080TIP3   OH227798   4.758   1.044   7.458  0.1228 -0.1625 -0.0100
 2080TIP3    H127799   4.725   0.978   7.520 -0.5964 -1.1728 -1.4113
 2080TIP3    H227800   4.789   0.994   7.383 -0.0275  1.0696 -0.9380
 2081TIP3   OH227801   0.652   0.316   0.030  0.1280 -0.2011  0.2796
 2081TIP3    H127802   0.589   0.254   0.065  1.9179 -1.8446  0.7678
 2081TIP3    H227803   0.723   0.316   0.094  1.6047 -0.0844 -1.2913
 2082TIP3   OH227804   4.691   4.046   2.569 -0.4927 -0.5334  0.2146
 2082TIP3    H127805   4.597   4.028   2.562 -0.2564 -1.7451 -0.1846
 2082TIP3    H227806   4.731   3.989   2.503  0.3455  1.9200 -1.5373
 2083TIP3   OH227807   3.429   3.596   7.047 -0.1193  0.5497 -0.2897
 2083TIP3    H127808   3.489   3.646   7.104  0.6592 -0.2234 -0.4134
 2083TIP3    H227809   3.484   3.531   7.006 -1.2552 -0.9839  0.5117
 2084TIP3   OH227810   0.797   2.060   0.204 -0.5142  0.1507  0.3135
 2084TIP3    H127811   0.789   1.984   0.146 -0.4458  0.3748  0.0119
 2084TIP3    H227812   0.707   2.094   0.212 -0.5956 -0.1449  0.6983
 2085TIP3   OH227813   1.113   3.115   7.836 -0.0149  0.2679 -0.0531
 2085TIP3    H127814   1.154   3.029   7.848 -1.6212 -0.4740  0.3886
 2085TIP3    H227815   1.176   3.164   7.783  2.0106 -0.3557  1.6281
 2086TIP3   OH227816   3.131   0.917   1.212 -0.5057  0.3923  0.2696
 2086TIP3    H127817   3.163   0.844   1.161  0.2614 -0.4256  1.8426
 2086TIP3    H227818   3.208   0.972   1.228 -0.7551  0.7038  0.4235
 2087TIP3   OH227819   1.554   6.217   7.996 -0.2143  0.8775 -0.1440
 2087TIP3    H127820   1.618   6.149   7.974  0.6794  1.4611  0.5757
 2087TIP3    H227821   1.497   6.176   8.061  0.0674  0.6819 -0.0177
 2088TIP3   OH227822   4.988   0.646   0.614  0.3273 -0.4362  0.4498
 2088TIP3    H127823   4.974   0.552   0.628 -1.4752 -0.0922  1.0901
 2088TIP3    H227824   5.081   0.659   0.633  0.2903 -1.8521  1.7754
 2089TIP3   OH227825   2.259   5.884   2.429  0.1633  0.2707  0.1264
 2089TIP3    H127826   2.320   5.957   2.434 -0.2247  0.5180  2.0858
 2089TIP3    H227827   2.190   5.906   2.491 -1.3403 -0.5494 -1.1893
 2090TIP3   OH227828   3.310   5.557   0.861  0.4929 -0.0381 -0.4902
 2090TIP3    H127829   3.303   5.471   0.821 -1.5437 -0.5832  0.8719
 2090TIP3    H227830   3.369   5.545   0.935  1.2741  0.0833 -1.0809
 2091TIP3   OH227831   0.938   1.913   7.380 -0.5397  0.2830  0.0328
 2091TIP3    H127832   0.880   1.949   7.447 -0.6085 -0.3908  0.3389
 2091TIP3    H227833   1.025   1.944   7.404 -0.5334 -0.1271  0.5589
 2092TIP3   OH227834   0.840   4.393   6.949 -0.5319  0.5111 -0.0647
 2092TIP3    H127835   0.802   4.481   6.956  1.4373  1.3963  0.2778
 2092TIP3    H227836   0.845   4.361   7.039  2.3756  1.7673  0.3380
 2093TIP3   OH227837   6.726   1.054   7.892  0.0648  0.2902  0.0959
 2093TIP3    H127838   6.808   1.009   7.911 -0.0002  0.3987  0.6601
 2093TIP3    H227839   6.679   0.995   7.834  0.6706  0.3649 -0.4841
 2094TIP3   OH227840   6.749   5.047   1.383  0.3914 -0.6805 -0.4327
 2094TIP3    H127841   6.665   5.044   1.336 -0.9270  0.3767  1.7317
 2094TIP3    H227842   6.815   5.041   1.313 -1.4317  1.7731 -2.5474
 2095TIP3   OH227843   2.337   3.587   1.536 -0.2025 -0.2724  0.0569
 2095TIP3    H127844   2.248   3.564   1.510 -0.1033  0.4024 -0.9428
 2095TIP3    H227845   2.366   3.516   1.593 -1.1304 -0.8315 -0.1669
 2096TIP3   OH227846   6.569   1.364   1.107  0.3052  0.3884 -0.4003
 2096TIP3    H127847   6.617   1.383   1.026  0.3059  1.1558 -0.2208
 2096TIP3    H227848   6.562   1.268   1.108 -3.2628  0.3873 -3.4288
 2097TIP3   OH227849   4.937   4.427   0.339 -0.6609  0.0718  0.1071
 2097TIP3    H127850   4.919   4.336   0.313  0.7997  0.0533 -0.9548
 2097TIP3    H227851   5.014   4.420   0.396  0.6692  0.7753 -1.5263
 2098TIP3   OH227852   3.881   3.087   2.557  0.0671 -0.0997 -0.0893
 2098TIP3    H127853   3.838   3.127   2.482 -1.7194  1.8268  1.8331
 2098TIP3    H227854   3.839   3.126   2.633  2.6139 -1.0458  1.9627
 2099TIP3   OH227855   1.719   2.712   7.848  0.6368  0.2741  0.6158
 2099TIP3    H127856   1.720   2.617   7.833  0.9833  0.5137 -1.1558
 2099TIP3    H227857   1.723   2.750   7.760  1.9386  1.9439  1.3446
 2100TIP3   OH227858   3.042   4.381   0.760 -0.1480 -0.1677 -0.6686
 2100TIP3    H127859   3.067   4.461   0.715  1.3081 -0.4111 -0.3266
 2100TIP3    H227860   3.058   4.398   0.853 -2.5667  0.1213 -0.2391
 2101TIP3   OH227861   1.833   4.617   2.145 -0.5216  0.3692  0.7520
 2101TIP3    H127862   1.851   4.581   2.058 -1.2922 -1.4697  1.2877
 2101TIP3    H227863   1.898   4.686   2.157  2.6532 -2.2566  0.4508
 2102TIP3   OH227864   0.890   5.954   8.135 -0.2946  0.6168  0.3704
 2102TIP3    H127865   0.889   6.009   8.057 -1.9909 -0.3103 -0.3192
 2102TIP3    H227866   0.868   5.867   8.103  2.0838 -0.4820  1.4544
 2103TIP3   OH227867   5.545   5.739   6.469  0.3269 -0.3325 -0.0585
 2103TIP3    H127868   5.474   5.764   6.410  0.9236 -0.6879 -0.9501
 2103TIP3    H227869   5.624   5.774   6.427  0.7725 -0.6854  0.4729
 2104TIP3   OH227870   5.676   3.484   6.967  0.4786  0.3617  0.8859
 2104TIP3    H127871   5.647   3.560   6.917  1.2775  0.2559  0.2360
 2104TIP3    H227872   5.602   3.423   6.965  0.1541  0.7616  0.6661
 2105TIP3   OH227873   4.970   1.272   0.155  0.7968 -0.2866  0.4463
 2105TIP3    H127874   4.929   1.280   0.241 -0.0344 -3.2778  0.4270
 2105TIP3    H227875   4.908   1.315   0.095 -0.2219 -1.0176  0.9584
 2106TIP3   OH227876   6.234   0.804   6.466  0.3392  0.0838 -0.0095
 2106TIP3    H127877   6.181   0.883   6.460  2.2279  1.4333  0.2248
 2106TIP3    H227878   6.176   0.734   6.437 -1.4422  1.5121 -0.0752
 2107TIP3   OH227879   1.141   0.130   7.331  0.3836  0.0598 -0.1692
 2107TIP3    H127880   1.114   0.054   7.279 -1.9634  1.2173 -0.7856
 2107TIP3    H227881   1.236   0.122   7.338  0.3482 -2.1522 -1.4205
 2108TIP3   OH227882   0.707   0.737   0.705 -0.3361  0.2911 -0.4628
 2108TIP3    H127883   0.782   0.737   0.764  0.2944  0.4156 -1.2466
 2108TIP3    H227884   0.699   0.827   0.675 -1.0595  0.3641 -0.0692
 2109TIP3   OH227885   1.814   2.042   8.062 -0.1525 -0.2164 -0.1397
 2109TIP3    H127886   1.783   2.122   8.104  0.2832  0.1201 -0.4570
 2109TIP3    H227887   1.804   2.059   7.968  1.0169 -0.0896 -0.2540
 2110TIP3   OH227888   4.920   0.948   7.178  0.0838  0.2479 -0.1601
 2110TIP3    H127889   4.842   0.998   7.155 -0.9645 -0.7373  1.1403
 2110TIP3    H227890   4.976   0.955   7.100 -2.3124 -1.0126 -2.1333
 2111TIP3   OH227891   0.540   6.422   8.064 -0.3185  1.0140  0.4422
 2111TIP3    H127892   0.530   6.497   8.122 -0.5408  2.6135 -1.5632
 2111TIP3    H227893   0.613   6.446   8.006 -0.9469  0.0755 -0.7843
 2112TIP3   OH227894   6.141   2.967   1.636  0.5562  0.0617 -0.0950
 2112TIP3    H127895   6.137   3.055   1.674  2.6406  1.1751 -2.2119
 2112TIP3    H227896   6.148   2.909   1.712 -1.7122  1.5811  1.3945
 2113TIP3   OH227897   5.583   0.160   6.835  0.5401  0.4153 -0.1198
 2113TIP3    H127898   5.494   0.160   6.800  0.4034 -2.0454 -0.0071
 2113TIP3    H227899   5.578   0.105   6.913  2.2439 -0.2338 -0.4148
 2114TIP3   OH227900   3.101   1.235   1.940  0.0279  1.0874  0.3640
 2114TIP3    H127901   3.148   1.251   2.022  1.2954 -0.4194 -0.0149
 2114TIP3    H227902   3.036   1.167   1.961  1.3563 -0.4098 -0.1402
 2115TIP3   OH227903   2.499   2.733   6.357 -0.0094 -0.8596 -0.2324
 2115TIP3    H127904   2.587   2.742   6.320  0.4239  0.1854  0.9591
 2115TIP3    H227905   2.486   2.639   6.366  1.4358 -1.0140  0.5551
 2116TIP3   OH227906   6.718   0.049   2.823  0.1787 -0.2676 -0.0931
 2116TIP3    H127907   6.631   0.084   2.843 -0.3669 -1.4013 -0.3486
 2116TIP3    H227908   6.731  -0.020   2.888  0.8982 -0.1079 -0.0613
 2117TIP3   OH227909   5.865   0.715   8.386  0.1124 -0.4570 -0.2710
 2117TIP3    H127910   5.834   0.665   8.311 -0.6180 -1.1718  0.4837
 2117TIP3    H227911   5.945   0.758   8.355  0.0624 -1.0844 -1.3145
 2118TIP3   OH227912   5.916   5.048   0.743 -0.0071  0.0226 -0.0540
 2118TIP3    H127913   5.912   5.028   0.649 -1.3257  1.3271 -0.3134
 2118TIP3    H227914   5.878   5.135   0.750 -0.4335 -0.2823  1.7729
 2119TIP3   OH227915   6.212   1.386   7.198  0.1450 -0.1136 -0.0985
 2119TIP3    H127916   6.257   1.304   7.176  2.3582  1.1269 -0.5078
 2119TIP3    H227917   6.120   1.369   7.179  0.4727 -2.6143  0.2181
 2120TIP3   OH227918   4.407   0.099   6.965 -0.4116  0.0081 -0.5213
 2120TIP3    H127919   4.501   0.114   6.956 -0.0842 -0.6776  1.2430
 2120TIP3    H227920   4.396   0.077   7.058 -2.2171 -0.5668 -0.8434
 2121TIP3   OH227921   2.665   4.682   8.504  0.1599  0.4920  0.4602
 2121TIP3    H127922   2.745   4.681   8.452  0.4149 -1.1370  0.8389
 2121TIP3    H227923   2.652   4.774   8.526  1.8531  0.8005  0.2838
 2122TIP3   OH227924   0.301   4.814   8.403  0.1327 -0.1152 -0.2365
 2122TIP3    H127925   0.370   4.752   8.424 -0.5424 -1.5077 -1.8572
 2122TIP3    H227926   0.301   4.876   8.476  3.0064 -0.0971 -0.1678
 2123TIP3   OH227927   3.853   3.625   7.475  1.1415 -0.6185  0.4637
 2123TIP3    H127928   3.895   3.630   7.389  0.7293  0.4173  0.3108
 2123TIP3    H227929   3.768   3.585   7.457 -0.5020  2.8278 -0.2735
 2124TIP3   OH227930   5.239   0.703   0.700 -0.1867  0.2821 -0.5351
 2124TIP3    H127931   5.246   0.608   0.694 -2.7461 -0.1776  1.7252
 2124TIP3    H227932   5.313   0.729   0.754  1.6476 -0.0738 -2.7172
 2125TIP3   OH227933   6.063   6.705   6.743 -0.8696 -0.2654 -1.3404
 2125TIP3    H127934   6.111   6.731   6.822  0.4673 -0.5082 -2.0437
 2125TIP3    H227935   6.088   6.770   6.678 -0.2933 -1.2561 -2.1307
 2126TIP3   OH227936   3.734   3.465   8.258  0.1834 -0.3044 -0.4402
 2126TIP3    H127937   3.800   3.534   8.250 -0.2406  0.0393 -1.0460
 2126TIP3    H227938   3.657   3.500   8.214 -0.0638 -1.1356 -0.6884
 2127TIP3   OH227939   6.728   6.098   8.473  0.1138  0.1876  0.4611
 2127TIP3    H127940   6.633   6.086   8.478 -0.0871  0.9973 -0.8753
 2127TIP3    H227941   6.757   6.098   8.564 -1.5038  2.3693  1.0664
 2128TIP3   OH227942   3.065   6.008   0.704 -0.0461 -0.2500  0.0691
 2128TIP3    H127943   3.013   5.931   0.683 -1.4545 -0.1405  2.6734
 2128TIP3    H227944   3.040   6.030   0.794  1.4572  2.3238 -0.0290
 2129TIP3   OH227945   0.826   5.941   0.455  0.5783 -0.0928  0.4769
 2129TIP3    H127946   0.891   5.948   0.386 -0.4209 -1.0681 -0.5980
 2129TIP3    H227947   0.766   5.872   0.426 -0.5004  0.2328  1.7891
 2130TIP3   OH227948   3.177   2.310   1.613 -0.2471  0.2597  0.3404
 2130TIP3    H127949   3.207   2.305   1.703  1.4154  0.0701 -0.2009
 2130TIP3    H227950   3.100   2.253   1.610  0.4833 -0.8097  1.3216
 2131TIP3   OH227951   1.920   6.374   2.832  0.2185 -0.0268 -0.8973
 2131TIP3    H127952   1.929   6.296   2.887  1.4998  1.4656  1.1700
 2131TIP3    H227953   1.904   6.445   2.895  0.2812  1.5586 -2.6034
 2132TIP3   OH227954   3.804   3.320   7.641 -0.0578  0.7905 -0.4878
 2132TIP3    H127955   3.858   3.262   7.695  0.1394  0.8370 -0.6367
 2132TIP3    H227956   3.812   3.285   7.552 -0.3521  0.7368 -0.4968
 2133TIP3   OH227957   6.453   0.486   1.660  0.4479 -0.1283 -0.2020
 2133TIP3    H127958   6.475   0.409   1.712 -0.5258  0.3354  0.9617
 2133TIP3    H227959   6.361   0.475   1.638  0.2126  0.8141  0.2288
 2134TIP3   OH227960   5.587   4.265   1.795 -0.4247 -0.1529  0.5663
 2134TIP3    H127961   5.611   4.271   1.887  2.1254 -0.3500  0.0001
 2134TIP3    H227962   5.555   4.176   1.784  1.8371 -1.0512  0.7931
 2135TIP3   OH227963   3.069   5.312   2.071  0.4392  0.3986  0.9665
 2135TIP3    H127964   3.153   5.341   2.035 -0.0766  0.6518 -0.0747
 2135TIP3    H227965   3.052   5.373   2.144  0.5058  1.2178  0.3100
 2136TIP3   OH227966   2.544   4.131   6.967 -0.7846  0.2164  0.0979
 2136TIP3    H127967   2.624   4.109   7.014 -1.4362  0.7968  1.5577
 2136TIP3    H227968   2.524   4.052   6.916  1.5568  0.6356 -1.6377
 2137TIP3   OH227969   5.575   5.207   1.984 -0.1221  0.2364  0.3373
 2137TIP3    H127970   5.623   5.124   1.982 -1.3388 -0.4855 -0.0043
 2137TIP3    H227971   5.612   5.257   1.911 -0.7377 -0.8119 -0.7223
 2138TIP3   OH227972   5.727   0.892   0.970  0.8221 -0.0238 -0.8317
 2138TIP3    H127973   5.718   0.797   0.981  0.7936 -0.1406 -1.7576
 2138TIP3    H227974   5.658   0.929   1.026  1.3325 -0.5056  0.1466
 2139TIP3   OH227975   3.527   2.763   0.227 -0.4513 -0.2221 -0.5715
 2139TIP3    H127976   3.554   2.743   0.137 -1.8798 -2.1837 -0.6270
 2139TIP3    H227977   3.500   2.855   0.223  2.2048  0.6278 -1.4082
 2140TIP3   OH227978   2.179   4.958   0.517  0.5902 -0.6015  0.2009
 2140TIP3    H127979   2.216   4.872   0.533  2.0374 -0.0031  0.2199
 2140TIP3    H227980   2.203   4.978   0.427  0.3934 -0.1448  0.2455
 2141TIP3   OH227981   0.125   6.012   8.054 -0.2371  0.9470  0.2362
 2141TIP3    H127982   0.088   5.945   7.997  0.1341  0.8700  0.0882
 2141TIP3    H227983   0.191   6.057   8.001  1.6367 -0.5017  1.2147
 2142TIP3   OH227984   4.555   0.938   0.747 -0.6536 -0.3573  0.5269
 2142TIP3    H127985   4.526   0.883   0.674 -0.3113 -0.9870  0.8526
 2142TIP3    H227986   4.541   1.028   0.717 -2.0428 -0.6209  0.3072
 2143TIP3   OH227987   0.648   3.222   2.415 -0.2532 -0.0316  0.4031
 2143TIP3    H127988   0.615   3.310   2.431 -0.6613 -0.2992  1.0860
 2143TIP3    H227989   0.724   3.215   2.473 -0.6121 -0.3493  0.8453
 2144TIP3   OH227990   6.260   0.719   7.402 -0.1288 -0.6486 -0.6840
 2144TIP3    H127991   6.214   0.791   7.446  1.9949  0.9915 -1.0159
 2144TIP3    H227992   6.190   0.658   7.378 -2.0487  1.3382 -0.4989
 2145TIP3   OH227993   1.799   1.449   0.301  0.1119  0.0904 -0.6418
 2145TIP3    H127994   1.875   1.489   0.343  1.1903 -0.2067 -2.2415
 2145TIP3    H227995   1.724   1.498   0.336  0.8643 -0.3849  1.8864
 2146TIP3   OH227996   0.513   2.639   2.376 -0.1453 -0.1340 -0.3244
 2146TIP3    H127997   0.608   2.643   2.377 -0.1807  1.1982 -0.1397
 2146TIP3    H227998   0.492   2.548   2.357  1.1942 -0.0192 -2.7836
 2147TIP3   OH227999   4.755   5.119   0.070  0.2414  0.2642  0.5045
 2147TIP3    H128000   4.760   5.026   0.047 -0.2261  0.3010  0.2517
 2147TIP3    H228001   4.678   5.151   0.024  1.3690  1.1863 -0.8266
 2148TIP3   OH228002   2.808   0.816   7.444  0.6950 -0.3533  0.6096
 2148TIP3    H128003   2.876   0.757   7.413  0.1096 -0.4937 -0.4431
 2148TIP3    H228004   2.732   0.798   7.388 -0.2562 -0.2792  1.8241
 2149TIP3   OH228005   3.942   2.465   8.047 -0.2006  0.1430  0.2373
 2149TIP3    H128006   4.003   2.396   8.072  1.6353  1.6018 -0.0497
 2149TIP3    H228007   3.856   2.431   8.073  0.6942 -1.9816  0.6214
 2150TIP3   OH228008   6.405   0.995   8.137 -0.3543 -0.1798  0.3832
 2150TIP3    H128009   6.463   0.919   8.140 -1.5594 -1.1111  1.1202
 2150TIP3    H228010   6.424   1.043   8.218  0.0785  0.0481  0.1450
 2151TIP3   OH228011   6.789   3.448   2.541  0.0234  0.0550  0.7965
 2151TIP3    H128012   6.859   3.510   2.524 -0.5662  0.4715 -0.1891
 2151TIP3    H228013   6.715   3.502   2.568 -0.3468 -0.2526  0.4104
 2152TIP3   OH228014   3.203   5.783   7.632  0.6112 -0.9916 -0.1459
 2152TIP3    H128015   3.175   5.845   7.565  0.7035 -0.3348  0.4148
 2152TIP3    H228016   3.275   5.735   7.590  1.7605  0.5222  0.0164
 2153TIP3   OH228017   5.897   5.143   1.300 -0.7623 -0.5849 -0.1714
 2153TIP3    H128018   5.848   5.202   1.243 -0.0408 -0.5254 -0.7391
 2153TIP3    H228019   5.986   5.143   1.265  0.3917  1.4656  2.4684
 2154TIP3   OH228020   1.679   2.207   6.341  0.4317  0.1587  0.1394
 2154TIP3    H128021   1.644   2.290   6.308 -0.6266 -0.0720  0.6197
 2154TIP3    H228022   1.752   2.187   6.283  0.2290  1.0523 -0.4492
 2155TIP3   OH228023   6.805   2.332   8.250 -0.7180  0.1788 -0.0190
 2155TIP3    H128024   6.734   2.284   8.207 -0.5305 -0.8477  0.7786
 2155TIP3    H228025   6.879   2.271   8.247 -0.8386 -0.1479  2.2108
 2156TIP3   OH228026   1.518   0.273   7.013 -0.6507 -0.4886 -0.2577
 2156TIP3    H128027   1.472   0.356   7.012 -1.0488 -0.7025 -0.0623
 2156TIP3    H228028   1.589   0.285   7.077  0.3800  0.2617 -1.5148
 2157TIP3   OH228029   6.039   3.466   1.289  0.3932 -0.0733  0.3072
 2157TIP3    H128030   6.117   3.474   1.234  1.0468  0.2135  1.2451
 2157TIP3    H228031   5.971   3.433   1.230  0.3391  2.6490 -1.3236
 2158TIP3   OH228032   2.948   1.084   7.290 -0.1908  0.2751 -0.0530
 2158TIP3    H128033   2.953   1.058   7.382  0.0499 -0.3175 -0.2287
 2158TIP3    H228034   3.036   1.068   7.256 -0.0737  1.1901 -0.2111
 2159TIP3   OH228035   5.781   2.345   2.705 -0.1004 -0.3518  0.5009
 2159TIP3    H128036   5.840   2.294   2.760  0.3812 -0.0667  0.2581
 2159TIP3    H228037   5.765   2.290   2.629  1.1803  0.2211 -0.2121
 2160TIP3   OH228038   5.762   5.018   7.305 -0.3981  0.3056  0.9332
 2160TIP3    H128039   5.793   5.019   7.214  0.8866  2.1400  1.3253
 2160TIP3    H228040   5.667   5.027   7.298 -0.1588  2.7943 -0.2630
 2161TIP3   OH228041   2.056   5.400   1.737 -0.1635 -0.1175  0.2494
 2161TIP3    H128042   2.056   5.439   1.824 -1.3637 -2.7451  1.5597
 2161TIP3    H228043   2.017   5.313   1.750  1.0304 -1.2139 -2.6492
 2162TIP3   OH228044   5.028   6.742   7.622  0.8607 -0.2608  0.2786
 2162TIP3    H128045   4.939   6.719   7.649  0.7037 -0.4424 -0.3669
 2162TIP3    H228046   5.063   6.794   7.695  0.4435 -0.6988  0.7992
 2163TIP3   OH228047   4.106   5.287   0.103  0.1580  0.4301  0.0226
 2163TIP3    H128048   4.079   5.199   0.129  0.9891  0.3663  0.7125
 2163TIP3    H228049   4.125   5.279   0.010  1.1716 -0.3739  0.2815
 2164TIP3   OH228050   5.410   6.107   7.708  0.2911 -0.3577 -0.8135
 2164TIP3    H128051   5.465   6.158   7.767  0.3963 -0.3774 -0.8946
 2164TIP3    H228052   5.322   6.118   7.743  0.3591 -0.4087 -0.6243
 2165TIP3   OH228053   2.829   2.819   8.080 -0.3668  0.0879  0.5853
 2165TIP3    H128054   2.907   2.773   8.112  0.2194 -1.1601 -2.2809
 2165TIP3    H228055   2.756   2.766   8.113 -0.0416  0.9144  2.7787
 2166TIP3   OH228056   2.754   1.201   1.236  0.8900  0.2045 -0.9988
 2166TIP3    H128057   2.824   1.167   1.292  0.6646  1.7930  0.3454
 2166TIP3    H228058   2.710   1.124   1.202  1.4489 -0.8360  0.5273
 2167TIP3   OH228059   6.655   3.703   0.150  0.5743  0.7236  0.3042
 2167TIP3    H128060   6.713   3.637   0.189 -0.2028  0.2490  0.6730
 2167TIP3    H228061   6.572   3.657   0.137 -0.5222  2.0614  2.1014
 2168TIP3   OH228062   0.930   6.424   8.244  0.6287 -0.0349  0.5335
 2168TIP3    H128063   0.984   6.485   8.194  0.3767 -0.6360 -0.4986
 2168TIP3    H228064   0.853   6.474   8.270  1.7191  0.8899  2.1814
 2169TIP3   OH228065   1.085   5.475   8.265 -0.7098 -0.1832  0.0192
 2169TIP3    H128066   1.109   5.446   8.353 -0.4578  0.3935  0.1457
 2169TIP3    H228067   1.002   5.431   8.247 -0.7464 -0.3334  0.5313
 2170TIP3   OH228068   3.256   3.032   7.599  0.4946  0.4078 -0.2037
 2170TIP3    H128069   3.299   3.045   7.684 -0.4639  1.6714  0.1207
 2170TIP3    H228070   3.269   3.115   7.553 -1.9335  1.0013  0.0861
 2171TIP3   OH228071   1.535   4.065   0.278 -0.5114 -0.0539 -0.4559
 2171TIP3    H128072   1.561   4.148   0.238 -0.3913 -0.3073 -0.9038
 2171TIP3    H228073   1.607   4.005   0.259 -0.9962 -0.5068 -0.8982
 2172TIP3   OH228074   1.179   5.260   1.564  0.0796 -0.5786  0.1622
 2172TIP3    H128075   1.259   5.244   1.615 -0.3703  0.1248  1.1184
 2172TIP3    H228076   1.155   5.174   1.530  0.6103 -1.0034  0.8321
 2173TIP3   OH228077   6.212   5.957   8.674  0.5447 -0.3354  0.8038
 2173TIP3    H128078   6.143   6.013   8.711  0.4388  0.8821 -1.1322
 2173TIP3    H228079   6.277   5.950   8.744 -0.8415 -0.3063  2.1504
 2174TIP3   OH228080   2.253   5.681   7.909  0.3021 -0.5276  0.7632
 2174TIP3    H128081   2.344   5.663   7.887 -0.2564 -0.6072 -1.7817
 2174TIP3    H228082   2.211   5.594   7.911 -0.3984 -0.3387 -1.7989
 2175TIP3   OH228083   5.239   0.796   0.112 -0.0897 -0.4074 -0.2823
 2175TIP3    H128084   5.196   0.877   0.083 -1.1833 -0.4997  0.9741
 2175TIP3    H228085   5.327   0.823   0.137 -0.2098  0.2608 -0.5556
 2176TIP3   OH228086   3.329   4.941   8.548 -0.1276  0.1243 -0.6504
 2176TIP3    H128087   3.353   4.945   8.641 -0.7004  0.5547 -0.5177
 2176TIP3    H228088   3.237   4.912   8.548 -0.2080  0.3714 -1.0727
 2177TIP3   OH228089   2.005   6.775   0.044 -0.2384  0.5160  0.6610
 2177TIP3    H128090   2.049   6.692   0.027 -0.5375  0.3059  0.9076
 2177TIP3    H228091   1.928   6.752   0.096  0.1863  1.0532  1.5407
 2178TIP3   OH228092   2.419   5.325   7.242  1.0451  0.3109  0.0026
 2178TIP3    H128093   2.486   5.290   7.183 -0.9398 -1.4354 -1.4049
 2178TIP3    H228094   2.413   5.260   7.312  0.3479  0.0504 -0.2853
 2179TIP3   OH228095   4.438   6.568   7.892  0.1235  0.5036  0.4477
 2179TIP3    H128096   4.406   6.482   7.865  2.8760 -0.7119  0.6785
 2179TIP3    H228097   4.425   6.624   7.816 -0.0416 -0.6294 -0.3768
 2180TIP3   OH228098   4.378   6.562   0.287  0.0871  0.7094 -0.2941
 2180TIP3    H128099   4.447   6.616   0.324 -1.5057  1.4282  1.8337
 2180TIP3    H228100   4.407   6.472   0.301  0.1815  0.9924  1.4831
 2181TIP3   OH228101   0.026   6.833   0.497  0.2853  0.1969 -0.2414
 2181TIP3    H128102   0.080   6.799   0.568 -1.8134 -0.3290  1.1865
 2181TIP3    H228103   0.007   6.756   0.443 -1.4760 -0.2569  0.9624
 2182TIP3   OH228104   0.546   0.429   1.055  0.2987 -0.2553 -0.3788
 2182TIP3    H128105   0.601   0.416   1.133  0.3888 -2.1958 -0.7333
 2182TIP3    H228106   0.606   0.419   0.981  0.0331  0.6562 -0.7348
 2183TIP3   OH228107   6.622   1.016   8.689 -0.2441  0.3333 -0.2744
 2183TIP3    H128108   6.717   1.027   8.695 -0.2207 -0.1302  0.3093
 2183TIP3    H228109   6.610   0.939   8.634 -0.3311  1.3469 -1.7196
 2184TIP3   OH228110   1.268   3.262   2.375  0.7629 -0.0518 -0.2191
 2184TIP3    H128111   1.339   3.275   2.313 -0.2809 -0.3780 -1.5369
 2184TIP3    H228112   1.311   3.235   2.456  2.0741 -1.4094 -1.3064
 2185TIP3   OH228113   4.558   0.794   1.474 -1.0766 -0.2307 -0.2107
 2185TIP3    H128114   4.490   0.854   1.441 -2.8028 -1.9256  0.1326
 2185TIP3    H228115   4.601   0.762   1.395 -0.3088  1.2247 -0.4108
 2186TIP3   OH228116   1.423   2.023   6.373  0.8272 -0.2894 -0.3286
 2186TIP3    H128117   1.498   2.062   6.328  0.7102 -0.4920 -0.7080
 2186TIP3    H228118   1.444   1.930   6.379  0.3862 -0.4371 -0.9012
 2187TIP3   OH228119   1.900   0.147   7.121  0.4110 -0.4444 -0.3141
 2187TIP3    H128120   1.827   0.201   7.150  0.0051 -1.8119  1.4504
 2187TIP3    H228121   1.929   0.102   7.201  1.6829 -1.6627 -1.4083
 2188TIP3   OH228122   5.132   4.982   1.480  0.2470  0.0687  0.1838
 2188TIP3    H128123   5.221   5.000   1.510  0.1505  2.9064 -0.9161
 2188TIP3    H228124   5.076   5.025   1.544 -0.1879  0.8329 -0.6894
 2189TIP3   OH228125   6.461   2.462   1.847  0.1703 -0.1825 -0.0870
 2189TIP3    H128126   6.444   2.372   1.874  0.9342 -0.0627  0.8524
 2189TIP3    H228127   6.374   2.502   1.842 -0.0723 -0.3516  1.7829
 2190TIP3   OH228128   6.562   1.637   2.376  0.0763 -0.4246 -0.5281
 2190TIP3    H128129   6.536   1.583   2.451 -0.5614  0.7376  0.1132
 2190TIP3    H228130   6.652   1.663   2.395 -0.7735  1.7282  1.0409
 2191TIP3   OH228131   1.996   0.882   2.337  0.0431  0.0684  0.4730
 2191TIP3    H128132   2.063   0.883   2.269  0.5661  1.3497  0.9798
 2191TIP3    H228133   2.039   0.844   2.413  0.0066  0.3132  0.6168
 2192TIP3   OH228134   2.497   6.056   2.209 -0.2573  0.1954 -0.4494
 2192TIP3    H128135   2.409   6.059   2.172 -1.0317  0.1874  1.2986
 2192TIP3    H228136   2.484   6.029   2.300  1.7344 -1.9031 -0.6893
 2193TIP3   OH228137   6.404   4.107   0.585  0.2141 -0.1774  0.0870
 2193TIP3    H128138   6.324   4.060   0.607  0.7101 -1.9290 -1.6217
 2193TIP3    H228139   6.410   4.102   0.489  1.3181  1.7091 -0.0004
 2194TIP3   OH228140   4.537   0.866   7.431 -0.1389 -0.2469 -0.4301
 2194TIP3    H128141   4.522   0.933   7.365 -1.4743 -0.8356 -0.7455
 2194TIP3    H228142   4.500   0.902   7.512  2.0017  0.7194  0.2004
 2195TIP3   OH228143   4.005   4.241   6.886  0.4655  0.1459  0.8081
 2195TIP3    H128144   3.950   4.318   6.899  0.4562  0.4327 -0.7298
 2195TIP3    H228145   4.065   4.267   6.815 -1.3588 -2.1474 -1.7656
 2196TIP3   OH228146   5.315   6.106   7.412 -0.5185  0.0851  0.2845
 2196TIP3    H128147   5.397   6.136   7.374 -0.4828 -1.5492 -1.0097
 2196TIP3    H228148   5.331   6.104   7.506  0.9523 -0.3230  0.0369
 2197TIP3   OH228149   0.484   6.646   7.157 -0.1482 -0.5487  0.0901
 2197TIP3    H128150   0.490   6.561   7.112 -0.8036 -0.4002 -0.2894
 2197TIP3    H228151   0.417   6.694   7.108 -0.8044 -0.3384  1.1483
 2198TIP3   OH228152   5.948   4.785   8.314 -0.3495 -0.0579  0.2667
 2198TIP3    H128153   5.866   4.830   8.293 -0.4796  0.6632  2.0764
 2198TIP3    H228154   5.984   4.759   8.230 -1.9348  0.5189 -0.6304
 2199TIP3   OH228155   4.268   0.428   8.443 -0.2621  0.4919 -0.1771
 2199TIP3    H128156   4.334   0.364   8.470  0.0562  1.1743  0.7164
 2199TIP3    H228157   4.307   0.512   8.464 -1.5787  0.9007  0.7756
 2200TIP3   OH228158   0.961   5.623   2.078 -0.3211  0.5342 -0.1176
 2200TIP3    H128159   0.945   5.691   2.144  1.5820  1.1980 -0.2667
 2200TIP3    H228160   1.056   5.617   2.073 -0.4401 -0.8349 -1.4775
 2201TIP3   OH228161   0.690   6.236   2.440  0.2827 -0.2604 -0.0323
 2201TIP3    H128162   0.714   6.272   2.355  1.5419 -0.2132  0.3099
 2201TIP3    H228163   0.684   6.313   2.498  1.2765 -0.4299  0.3181
 2202TIP3   OH228164   6.558   1.507   2.818  0.1171 -0.0552  0.0920
 2202TIP3    H128165   6.489   1.445   2.842  0.1807 -0.6083 -1.1059
 2202TIP3    H228166   6.526   1.591   2.850 -0.4938 -0.5123  0.7233
 2203TIP3   OH228167   1.679   2.310   1.998  0.2099 -0.1370  0.4090
 2203TIP3    H128168   1.722   2.261   1.928  0.1240  1.8472 -1.0889
 2203TIP3    H228169   1.749   2.330   2.060  0.3419 -1.6141  0.7959
 2204TIP3   OH228170   3.375   1.721   8.435  0.1127  0.1979 -0.2121
 2204TIP3    H128171   3.454   1.721   8.489 -0.6475  0.9893  0.9635
 2204TIP3    H228172   3.349   1.813   8.432 -1.3826 -0.1748  0.3968
 2205TIP3   OH228173   3.162   5.493   1.149  0.2089 -0.2783  0.6537
 2205TIP3    H128174   3.123   5.580   1.138 -3.5586 -1.6127  1.9024
 2205TIP3    H228175   3.226   5.504   1.219 -1.0625  1.3126  1.6274
 2206TIP3   OH228176   4.453   2.050   1.523  0.3492 -0.0879 -0.1250
 2206TIP3    H128177   4.372   2.100   1.509  0.6184  0.2326 -0.5328
 2206TIP3    H228178   4.514   2.085   1.459  0.2245 -1.6536 -1.1439
 2207TIP3   OH228179   2.182   5.811   2.059  0.5884  0.4220  0.2674
 2207TIP3    H128180   2.131   5.790   1.981 -0.0903  1.7264  0.3376
 2207TIP3    H228181   2.233   5.731   2.077 -0.3000 -0.3784 -0.6715
 2208TIP3   OH228182   4.468   5.283   8.384 -0.4809  0.8648  0.2723
 2208TIP3    H128183   4.556   5.320   8.390 -1.2715  2.7298  1.2839
 2208TIP3    H228184   4.461   5.250   8.294  1.3749  0.2445  0.3160
 2209TIP3   OH228185   2.754   6.225   8.522  0.2131 -0.1019  0.4748
 2209TIP3    H128186   2.748   6.310   8.479 -1.7530  0.9960  2.6701
 2209TIP3    H228187   2.671   6.182   8.503  1.5877 -2.0884 -1.4896
 2210TIP3   OH228188   3.950   1.058   0.741 -0.2027  0.1496  0.1844
 2210TIP3    H128189   3.923   0.989   0.681  1.3869  0.6431 -1.1611
 2210TIP3    H228190   3.871   1.110   0.755 -0.7649 -0.3803 -0.9372
 2211TIP3   OH228191   0.661   0.045   0.550 -0.0681 -0.0221 -0.2495
 2211TIP3    H128192   0.674  -0.048   0.567  2.4763  0.3963  0.5321
 2211TIP3    H228193   0.648   0.050   0.455  2.1302 -1.0282 -0.6659
 2212TIP3   OH228194   6.684   1.025   1.960 -0.3364 -0.0167 -0.0562
 2212TIP3    H128195   6.764   1.077   1.971 -0.4557  0.2688 -0.4946
 2212TIP3    H228196   6.679   1.010   1.866 -0.0315 -1.2688  0.1032
 2213TIP3   OH228197   4.484   1.458   2.118 -0.1312  0.1965 -0.2450
 2213TIP3    H128198   4.446   1.532   2.164  0.7488 -1.0236  2.7273
 2213TIP3    H228199   4.571   1.489   2.090 -0.6494  0.9376 -1.0776
 2214TIP3   OH228200   6.341   4.659   8.551 -0.3221 -0.0171 -0.2204
 2214TIP3    H128201   6.251   4.629   8.537  0.0742 -0.7721 -1.2756
 2214TIP3    H228202   6.333   4.754   8.560 -1.1931 -0.0398 -0.6173
 2215TIP3   OH228203   2.148   3.089   7.943  0.3464 -0.1697 -0.5792
 2215TIP3    H128204   2.227   3.048   7.909  0.6341  0.0281 -0.1557
 2215TIP3    H228205   2.110   3.022   8.001  0.7053  0.0773 -0.0507
 2216TIP3   OH228206   1.091   4.405   0.402  0.3677  0.0127 -0.7412
 2216TIP3    H128207   1.038   4.405   0.481 -0.1205 -1.2582 -1.0478
 2216TIP3    H228208   1.105   4.312   0.382  1.6113  0.3122 -1.4025
 2217TIP3   OH228209   5.921   5.468   0.438 -0.1645  0.6127 -0.3773
 2217TIP3    H128210   5.973   5.525   0.381  0.6100 -0.0093 -0.3201
 2217TIP3    H228211   5.928   5.382   0.397  1.6268 -0.1715  1.3911
 2218TIP3   OH228212   3.477   3.452   0.276  0.1638  0.2750 -0.0566
 2218TIP3    H128213   3.539   3.507   0.227  0.6121  0.1102  0.3141
 2218TIP3    H228214   3.530   3.413   0.345  0.0848 -1.4082 -0.8889
 2219TIP3   OH228215   2.573   1.010   1.171  0.3786  0.0393 -0.1288
 2219TIP3    H128216   2.483   0.996   1.201  0.3037  0.4640 -0.1537
 2219TIP3    H228217   2.619   0.928   1.193  0.0180 -0.1309 -0.0074
 2220TIP3   OH228218   3.511   2.859   1.459 -0.4050  1.0697 -0.3751
 2220TIP3    H128219   3.589   2.879   1.509  0.5015 -0.7253 -0.9833
 2220TIP3    H228220   3.489   2.941   1.414  1.7998  1.3230 -1.0763
 2221TIP3   OH228221   2.077   1.632   7.928 -0.2803  0.0112 -0.3546
 2221TIP3    H128222   2.145   1.643   7.861  1.7188 -0.3290  1.5159
 2221TIP3    H228223   2.082   1.711   7.981 -0.7576 -0.3895  0.3043
 2222TIP3   OH228224   5.187   2.153   1.813 -0.0944 -0.7758 -0.4772
 2222TIP3    H128225   5.133   2.090   1.765  1.1596 -1.9030 -0.4872
 2222TIP3    H228226   5.235   2.200   1.744  0.8197 -1.5655 -0.3963
 2223TIP3   OH228227   1.045   2.711   7.753 -0.1755 -0.1038  0.3301
 2223TIP3    H128228   1.129   2.740   7.787  1.0679 -2.5713 -0.3974
 2223TIP3    H228229   1.054   2.720   7.658 -0.6087 -0.6556  0.2331
 2224TIP3   OH228230   4.732   4.626   6.376 -0.1253  0.9321 -0.9840
 2224TIP3    H128231   4.767   4.573   6.304  0.0585  1.4365 -1.2668
 2224TIP3    H228232   4.773   4.589   6.454  1.4780  1.8484 -1.3510
 2225TIP3   OH228233   6.574   2.891   0.561  0.1207 -0.4393  0.8054
 2225TIP3    H128234   6.609   2.934   0.483  0.5818 -2.7609 -0.3662
 2225TIP3    H228235   6.498   2.944   0.585  0.6928  1.0441 -0.4667
 2226TIP3   OH228236   0.407   1.614   0.765  0.0077 -0.0000  0.1922
 2226TIP3    H128237   0.327   1.666   0.760  0.7117  1.0961  0.0575
 2226TIP3    H228238   0.474   1.675   0.795  1.3737 -0.2330 -2.1424
 2227TIP3   OH228239   4.169   0.134   7.550 -0.2844  0.4384  0.1283
 2227TIP3    H128240   4.246   0.111   7.602 -1.4006 -1.6384  0.9980
 2227TIP3    H228241   4.103   0.070   7.576 -2.8756  3.1224  0.6866
 2228TIP3   OH228242   3.828   4.522   1.549  0.2327 -0.1138  0.0024
 2228TIP3    H128243   3.880   4.484   1.620  0.0279  0.7388  0.6242
 2228TIP3    H228244   3.801   4.607   1.582  0.3650  0.4210 -1.2133
 2229TIP3   OH228245   4.583   2.151   8.131  0.3734  0.2074  0.1687
 2229TIP3    H128246   4.536   2.190   8.204 -0.8685  0.7796 -0.8976
 2229TIP3    H228247   4.527   2.080   8.101 -0.7321  1.9048 -2.1351
 2230TIP3   OH228248   4.888   0.906   6.776  0.1360 -0.7844 -0.1611
 2230TIP3    H128249   4.885   0.811   6.760  4.1116 -0.9471 -1.0686
 2230TIP3    H228250   4.960   0.917   6.838 -2.0868  1.5381  2.2382
 2231TIP3   OH228251   0.725   1.439   1.241  1.0437  0.2456  0.1679
 2231TIP3    H128252   0.682   1.357   1.264 -1.5311  1.3321 -0.4124
 2231TIP3    H228253   0.779   1.461   1.317  1.2717 -1.6244  0.5900
 2232TIP3   OH228254   5.666   5.470   8.626 -0.5842 -0.1716 -0.3552
 2232TIP3    H128255   5.578   5.494   8.596 -1.9310 -1.2647  2.3029
 2232TIP3    H228256   5.725   5.510   8.563 -2.9471  1.4670 -1.6959
 2233TIP3   OH228257   5.683   3.041   0.988 -0.1622 -0.4355 -0.0926
 2233TIP3    H128258   5.632   3.116   0.955  0.3234 -0.5307 -1.0971
 2233TIP3    H228259   5.620   2.991   1.039 -0.5900  0.4666  0.2914
 2234TIP3   OH228260   2.806   0.842   1.226  0.9315  0.7934  0.2591
 2234TIP3    H128261   2.869   0.851   1.297  1.5844 -1.8634  0.1193
 2234TIP3    H228262   2.859   0.851   1.146  0.8591  0.1321  0.1332
 2235TIP3   OH228263   4.373   6.680   2.438  0.3471  0.2629 -0.5599
 2235TIP3    H128264   4.303   6.743   2.424 -0.2282  0.1119  1.4353
 2235TIP3    H228265   4.451   6.733   2.456  0.2163  0.4128 -0.4415
 2236TIP3   OH228266   2.559   4.207   7.415 -0.0784 -0.4365 -0.2789
 2236TIP3    H128267   2.625   4.277   7.421 -0.4658 -0.0770 -0.1358
 2236TIP3    H228268   2.520   4.203   7.503 -0.5043 -0.3880 -0.4627
 2237TIP3   OH228269   2.134   5.698   8.662  1.0830 -0.0237 -0.0187
 2237TIP3    H128270   2.221   5.658   8.658  1.5951  0.9906  0.4830
 2237TIP3    H228271   2.151   5.792   8.659  0.1316  0.2614  1.8756
 2238TIP3   OH228272   0.333   5.777   0.825  0.5475  0.6422  0.4505
 2238TIP3    H128273   0.422   5.786   0.859  0.8970  1.4411 -0.6226
 2238TIP3    H228274   0.306   5.867   0.803 -0.0375  0.2672 -0.4262
 2239TIP3   OH228275   2.606   0.608   1.926 -0.4456  0.3194  0.5393
 2239TIP3    H128276   2.595   0.637   2.017 -2.3380  1.2166  0.0692
 2239TIP3    H228277   2.616   0.689   1.877 -0.6922 -0.0943 -0.1984
 2240TIP3   OH228278   1.237   2.279   0.885  0.4806  0.2484  0.1433
 2240TIP3    H128279   1.155   2.327   0.892 -0.0879 -0.7946  0.8231
 2240TIP3    H228280   1.249   2.239   0.972  0.6244 -1.3082 -0.5603
 2241TIP3   OH228281   3.464   6.748   7.823 -0.0809 -0.5947 -0.1518
 2241TIP3    H128282   3.529   6.817   7.836 -1.9110  1.0559  0.8594
 2241TIP3    H228283   3.498   6.673   7.872  1.5537 -0.1706 -0.5711
 2242TIP3   OH228284   2.238   6.804   6.982 -0.4603  0.3140 -0.4376
 2242TIP3    H128285   2.315   6.822   7.036 -2.2750 -2.0993  3.3443
 2242TIP3    H228286   2.264   6.730   6.928 -0.1348 -0.6006  0.9357
 2243TIP3   OH228287   5.966   5.336   8.201 -0.5958 -0.3475 -0.6873
 2243TIP3    H128288   5.878   5.347   8.164 -0.4174  0.5703 -0.8700
 2243TIP3    H228289   6.017   5.407   8.162 -0.4409  0.8150  1.4590
 2244TIP3   OH228290   3.950   6.055   1.832 -0.3574  0.0347  0.3761
 2244TIP3    H128291   3.942   6.076   1.925 -0.8806 -0.0739  0.3583
 2244TIP3    H228292   4.014   5.984   1.829 -1.5101 -1.0528  0.8115
 2245TIP3   OH228293   4.268   5.794   7.208 -0.2794  0.1968 -0.1184
 2245TIP3    H128294   4.200   5.823   7.148 -0.8314  0.9012  0.8166
 2245TIP3    H228295   4.221   5.743   7.274  0.6267 -2.8227 -1.6005
 2246TIP3   OH228296   6.625   1.689   1.131 -0.5926  0.2015  0.0580
 2246TIP3    H128297   6.677   1.656   1.058 -1.7737  0.4040 -0.9008
 2246TIP3    H228298   6.575   1.613   1.161 -0.3590  0.1978  0.4415
 2247TIP3   OH228299   5.730   1.611   8.516  0.3380  0.1349 -0.1437
 2247TIP3    H128300   5.713   1.532   8.567  1.0845  0.7492  1.0950
 2247TIP3    H228301   5.824   1.606   8.495  0.4004  0.7274 -0.0061
 2248TIP3   OH228302   5.014   2.895   7.735  0.1634  0.4390  0.0358
 2248TIP3    H128303   5.011   2.802   7.714 -1.0180  0.3126  0.6659
 2248TIP3    H228304   4.950   2.935   7.676  0.5504  0.8276 -0.1218
 2249TIP3   OH228305   2.889   5.936   8.425 -0.4799  0.0603  0.1301
 2249TIP3    H128306   2.909   5.946   8.332 -0.9523  0.8030  0.1022
 2249TIP3    H228307   2.868   6.024   8.456 -0.0586 -0.1338  1.0103
 2250TIP3   OH228308   2.578   0.168   1.866  0.1134  0.2216 -0.3136
 2250TIP3    H128309   2.500   0.223   1.873  0.6242  0.7610  1.6352
 2250TIP3    H228310   2.637   0.201   1.933  1.7522 -0.6469 -1.2616
 2251TIP3   OH228311   6.068   6.056   7.305  0.6621 -0.0209 -0.2482
 2251TIP3    H128312   6.131   6.006   7.253  0.3868  1.0741 -1.6851
 2251TIP3    H228313   5.988   6.056   7.253 -0.2868 -0.6301  1.1475
 2252TIP3   OH228314   2.438   6.071   2.487 -0.4525 -0.6371  0.5056
 2252TIP3    H128315   2.509   6.033   2.540  0.8099  0.1764 -0.5321
 2252TIP3    H228316   2.438   6.163   2.511 -0.6567 -0.4904 -0.0556
 2253TIP3   OH228317   2.012   2.106   7.156 -0.5151  0.1030 -0.0014
 2253TIP3    H128318   2.090   2.088   7.209  0.4743  0.4799 -1.2755
 2253TIP3    H228319   2.039   2.178   7.098 -2.9952  3.0282  2.1053
 2254TIP3   OH228320   5.039   1.730   1.167  0.5524  0.1024  0.4495
 2254TIP3    H128321   5.113   1.787   1.146  0.2396  0.5261  0.5000
 2254TIP3    H228322   5.044   1.659   1.103  0.3323  0.7301 -0.2692
 2255TIP3   OH228323   2.070   5.705   8.369  0.3567  0.2199  0.7267
 2255TIP3    H128324   2.106   5.642   8.431  1.0794 -0.8091 -0.6717
 2255TIP3    H228325   1.983   5.726   8.403  1.1497  0.5904  2.6779
 2256TIP3   OH228326   3.378   4.837   7.666  0.3309  0.3089  0.3386
 2256TIP3    H128327   3.392   4.808   7.576  3.3591  0.8511  0.5109
 2256TIP3    H228328   3.283   4.839   7.677 -0.1170 -0.1735 -2.6918
 2257TIP3   OH228329   0.201   0.835   0.208  0.4719  0.3412 -0.8443
 2257TIP3    H128330   0.281   0.836   0.156  2.2563  1.7898  1.7161
 2257TIP3    H228331   0.205   0.916   0.259 -1.3838 -0.7365  1.1556
 2258TIP3   OH228332   5.610   1.173   7.862 -0.2802 -0.0692  0.3332
 2258TIP3    H128333   5.550   1.132   7.925 -0.2621  0.9737  1.0467
 2258TIP3    H228334   5.623   1.262   7.895  2.1183 -0.4314  0.5083
 2259TIP3   OH228335   4.411   2.566   1.292 -0.1646  0.9498 -0.1139
 2259TIP3    H128336   4.365   2.499   1.342  2.1997 -0.2333  0.6505
 2259TIP3    H228337   4.395   2.647   1.341  0.2578  0.1994  1.3354
 2260TIP3   OH228338   2.959   0.733   0.319  0.2078 -0.2086  0.6018
 2260TIP3    H128339   2.984   0.804   0.259 -0.5599  0.2265  0.7925
 2260TIP3    H228340   2.920   0.667   0.263 -1.2519  0.5442  0.7034
 2261TIP3   OH228341   2.682   6.809   0.278  0.1378  0.0292 -0.5069
 2261TIP3    H128342   2.752   6.849   0.226  0.2822  0.0959 -0.2632
 2261TIP3    H228343   2.728   6.753   0.340 -0.0823 -0.9239 -1.1860
 2262TIP3   OH228344   0.869   3.004   7.687  0.6212 -0.3468  0.1868
 2262TIP3    H128345   0.844   3.088   7.648  0.2238 -0.5769 -0.0635
 2262TIP3    H228346   0.958   3.017   7.718  1.1168 -0.2796 -1.1986
 2263TIP3   OH228347   4.352   4.508   1.913  0.2600  0.3036 -0.0736
 2263TIP3    H128348   4.313   4.596   1.913  0.8611  0.5856  1.1141
 2263TIP3    H228349   4.299   4.459   1.975  0.5393  0.0973  0.0014
 2264TIP3   OH228350   4.835   0.934   0.149  0.0006 -0.0783 -0.1978
 2264TIP3    H128351   4.786   1.015   0.162  1.0811  0.4045  1.0854
 2264TIP3    H228352   4.828   0.888   0.232 -0.0223 -0.9801 -0.6932
 2265TIP3   OH228353   1.747   6.245   1.095  0.6767 -0.3070 -0.8685
 2265TIP3    H128354   1.805   6.215   1.025 -0.5027 -0.7955 -1.6784
 2265TIP3    H228355   1.743   6.340   1.083  1.9441 -0.1541 -0.2672
 2266TIP3   OH228356   2.925   4.665   8.443 -0.3577  0.0142  0.0350
 2266TIP3    H128357   2.961   4.631   8.361  1.0223 -0.1795  0.6887
 2266TIP3    H228358   2.974   4.620   8.511  0.7438  2.4408  0.9661
 2267TIP3   OH228359   6.835   4.624   0.878 -0.8869  0.7110 -0.1464
 2267TIP3    H128360   6.856   4.531   0.876  2.0604  1.2732  0.5781
 2267TIP3    H228361   6.811   4.645   0.787 -0.6258 -0.5520 -0.5267
 2268TIP3   OH228362   4.802   0.851   2.295 -0.0129  0.0880 -0.1110
 2268TIP3    H128363   4.746   0.828   2.369  0.2682 -0.5942 -0.1025
 2268TIP3    H228364   4.743   0.850   2.219  0.1946 -1.8147 -0.2847
 2269TIP3   OH228365   2.445   5.500   2.010 -0.0314 -0.4434  0.5807
 2269TIP3    H128366   2.415   5.550   2.086  0.7051 -0.0658  0.6406
 2269TIP3    H228367   2.498   5.430   2.046  1.0669  0.2595  0.4078
 2270TIP3   OH228368   1.569   0.722   7.632  0.5051 -0.4435 -0.1928
 2270TIP3    H128369   1.522   0.669   7.697 -0.2848 -0.4005 -0.7153
 2270TIP3    H228370   1.501   0.774   7.590  1.2918  1.2173  0.4837
 2271TIP3   OH228371   1.929   2.429   2.744 -0.3857  0.7027  0.0448
 2271TIP3    H128372   1.909   2.343   2.707  0.3954  1.2826 -1.8469
 2271TIP3    H228373   2.010   2.416   2.793 -0.9306  0.1245  0.8221
 2272TIP3   OH228374   4.526   4.947   1.639  0.6497  0.4900 -0.1194
 2272TIP3    H128375   4.512   4.853   1.644  2.6092  0.1390 -0.4673
 2272TIP3    H228376   4.444   4.985   1.670 -0.3267 -1.3089 -0.3588
 2273TIP3   OH228377   6.119   4.364   1.269 -0.2308 -0.0522 -0.5522
 2273TIP3    H128378   6.068   4.407   1.337  0.3406 -1.6194  0.9440
 2273TIP3    H228379   6.210   4.384   1.291 -0.0566 -0.1569 -1.1615
 2274TIP3   OH228380   2.932   2.025   0.774 -0.2324  0.3987  0.1902
 2274TIP3    H128381   2.850   1.979   0.793  0.2091 -0.0739  0.9987
 2274TIP3    H228382   2.935   2.029   0.678 -1.0442  0.1442  0.1428
 2275TIP3   OH228383   1.250   5.581   1.088 -0.6417 -0.0967  0.1478
 2275TIP3    H128384   1.280   5.628   1.011 -0.1804  1.8050  1.4416
 2275TIP3    H228385   1.188   5.640   1.130 -0.9561 -1.1336  1.1979
 2276TIP3   OH228386   0.698   3.591   8.167  0.1962  0.7054  0.0129
 2276TIP3    H128387   0.786   3.557   8.150  0.6018  1.3865  0.6680
 2276TIP3    H228388   0.712   3.668   8.222 -0.7984  0.9797 -0.0891
 2277TIP3   OH228389   1.951   4.895   7.567  0.2979 -0.4636  0.4212
 2277TIP3    H128390   1.971   4.981   7.530  1.6962 -0.3961  1.2665
 2277TIP3    H228391   1.856   4.895   7.578 -0.0837 -0.1458 -2.2321
 2278TIP3   OH228392   1.763   6.264   1.369 -0.2334 -0.3867  0.4610
 2278TIP3    H128393   1.724   6.196   1.423 -2.0792  0.6942  0.5610
 2278TIP3    H228394   1.723   6.252   1.283  0.6566 -0.4191  0.0414
 2279TIP3   OH228395   0.956   3.758   1.540 -0.1961 -0.5103 -0.1631
 2279TIP3    H128396   0.946   3.793   1.451  0.9969  0.8154  0.2023
 2279TIP3    H228397   0.866   3.751   1.572 -0.5632  0.6598 -0.8644
 2280TIP3   OH228398   1.676   3.233   1.776 -0.1216 -0.2841 -0.0459
 2280TIP3    H128399   1.612   3.194   1.836 -0.8532  1.7442  0.5652
 2280TIP3    H228400   1.752   3.252   1.831 -0.4032  0.6433  0.0332
 2281TIP3   OH228401   1.374   5.209   0.724 -0.8069  0.2996  0.6052
 2281TIP3    H128402   1.433   5.277   0.690 -0.8472 -0.6593 -1.5377
 2281TIP3    H228403   1.431   5.152   0.776 -0.4896  1.1026  1.1642
 2282TIP3   OH228404   5.515   3.230   0.863  0.6115 -0.0509  0.4107
 2282TIP3    H128405   5.517   3.326   0.869  1.1225 -0.0639  0.4639
 2282TIP3    H228406   5.538   3.212   0.772  0.2295 -0.1143  0.3261
 2283TIP3   OH228407   6.059   0.842   0.581 -0.0857  0.2628  0.7112
 2283TIP3    H128408   6.126   0.780   0.551  0.5165  1.6883 -1.1135
 2283TIP3    H228409   5.976   0.795   0.571  0.0748  0.5114 -3.2565
 2284TIP3   OH228410   6.354   1.634   1.202  0.5645  0.3341  0.2914
 2284TIP3    H128411   6.284   1.578   1.233  0.3966 -1.2427 -2.5724
 2284TIP3    H228412   6.433   1.600   1.244 -0.0123  0.2767  1.3394
 2285TIP3   OH228413   6.856   3.872   1.106 -0.3533  0.1567  0.2793
 2285TIP3    H128414   6.938   3.898   1.063  0.4272 -2.9983 -0.4002
 2285TIP3    H228415   6.791   3.872   1.036 -0.1293 -0.5253  0.0572
 2286TIP3   OH228416   4.943   6.379   2.037 -0.5236 -0.3192 -0.3285
 2286TIP3    H128417   4.988   6.463   2.026  1.6188 -1.4049 -0.3874
 2286TIP3    H228418   4.922   6.375   2.130  0.8452 -0.3876  0.0009
 2287TIP3   OH228419   2.533   6.426   7.292 -0.4227  0.0740  0.2158
 2287TIP3    H128420   2.510   6.346   7.244 -0.2968 -0.1029  0.4436
 2287TIP3    H228421   2.504   6.497   7.236 -0.0093 -0.1259 -0.2572
 2288TIP3   OH228422   5.855   1.516   1.515 -0.3518 -0.0014 -0.2327
 2288TIP3    H128423   5.838   1.604   1.548  0.1025 -0.0243  0.0669
 2288TIP3    H228424   5.916   1.478   1.577  1.8618  0.5366 -1.9579
 2289TIP3   OH228425   5.368   5.995   0.316 -0.1942 -0.0422  0.1223
 2289TIP3    H128426   5.393   6.002   0.224  0.4374 -3.4121 -0.1179
 2289TIP3    H228427   5.290   5.938   0.315  0.2991 -0.8045  1.6832
 2290TIP3   OH228428   3.900   6.219   0.056 -0.5486  0.2334  0.0153
 2290TIP3    H128429   3.938   6.148   0.107  1.1732  2.3395  1.8668
 2290TIP3    H228430   3.964   6.237  -0.013  0.2228  1.4489  0.9889
 2291TIP3   OH228431   3.586   0.219   0.118  0.1182  0.0377 -0.0252
 2291TIP3    H128432   3.570   0.181   0.032 -0.0246  0.6766 -0.2836
 2291TIP3    H228433   3.498   0.232   0.155  0.1908 -1.7742  0.9163
 2292TIP3   OH228434   5.050   1.216   0.677  0.0883 -0.1496  0.2983
 2292TIP3    H128435   5.039   1.122   0.696  1.3778 -0.2536  0.6420
 2292TIP3    H228436   5.099   1.249   0.752  1.3710  0.3820 -0.7479
 2293TIP3   OH228437   3.906   4.549   8.381 -0.2648  0.1462  0.1778
 2293TIP3    H128438   3.839   4.496   8.337  0.1966 -0.2508 -0.0486
 2293TIP3    H228439   3.952   4.486   8.437 -0.1943  0.4561  0.4717
 2294TIP3   OH228440   2.990   3.324   0.218  0.0221  0.0450  0.3581
 2294TIP3    H128441   2.959   3.312   0.308  0.0702 -2.3689  0.1254
 2294TIP3    H228442   2.915   3.359   0.170 -0.0536  1.1877  1.2720
 2295TIP3   OH228443   3.727   2.630   1.107  0.0980  0.1301 -0.1650
 2295TIP3    H128444   3.673   2.563   1.066 -0.1986  0.5991 -0.5557
 2295TIP3    H228445   3.702   2.628   1.200 -1.2499  0.9340 -0.4858
 2296TIP3   OH228446   2.258   6.405   7.469  0.3404 -0.1833 -0.1521
 2296TIP3    H128447   2.330   6.441   7.522 -0.4480  0.5270  0.4796
 2296TIP3    H228448   2.279   6.313   7.460  1.4009  0.0383 -0.0858
 2297TIP3   OH228449   6.500   1.887   7.930 -0.5017 -0.4606 -0.0138
 2297TIP3    H128450   6.490   1.973   7.970 -1.1582 -0.2062 -0.7073
 2297TIP3    H228451   6.414   1.868   7.892 -0.1793 -1.1385 -0.4216
 2298TIP3   OH228452   0.965   2.814   8.475 -0.5250  0.5120 -0.1539
 2298TIP3    H128453   0.990   2.760   8.550 -1.9371  0.7245  0.4940
 2298TIP3    H228454   1.013   2.776   8.401 -1.5975 -1.7594  0.2395
 2299TIP3   OH228455   4.320   0.709   2.237  0.0204  0.2612  0.2009
 2299TIP3    H128456   4.225   0.698   2.244 -0.0702 -0.2230 -1.4095
 2299TIP3    H228457   4.339   0.695   2.145  1.3004  3.1640 -0.1026
 2300TIP3   OH228458   3.462   1.325   1.882 -0.4432  0.1212  0.2086
 2300TIP3    H128459   3.370   1.351   1.884 -0.1239  1.3911 -0.6991
 2300TIP3    H228460   3.477   1.282   1.966 -1.9092 -0.2821  0.2876
 2301TIP3   OH228461   6.551   3.561   2.680  0.1674  0.6601  0.6020
 2301TIP3    H128462   6.499   3.497   2.728 -0.7014  0.5718 -0.4169
 2301TIP3    H228463   6.538   3.643   2.729 -0.2850  0.4696  0.8057
 2302TIP3   OH228464   3.775   1.310   8.168  0.0017  0.2151 -0.1502
 2302TIP3    H128465   3.706   1.357   8.214 -0.1177  0.4845 -0.5953
 2302TIP3    H228466   3.755   1.218   8.181 -0.4663  0.2905 -0.3034
 2303TIP3   OH228467   1.557   4.316   0.185 -0.8814 -0.7736  0.3524
 2303TIP3    H128468   1.477   4.362   0.211  0.4551  0.6358  2.2081
 2303TIP3    H228469   1.598   4.373   0.121 -1.0919 -1.2725 -0.2413
 2304TIP3   OH228470   2.683   0.658   7.264 -0.2259  0.1196 -0.2913
 2304TIP3    H128471   2.748   0.620   7.205  1.0177  1.5540  0.0831
 2304TIP3    H228472   2.600   0.649   7.218  0.0773 -2.4265 -0.4723
 2305TIP3   OH228473   2.435   1.431   0.251 -0.4978 -0.4267 -0.5072
 2305TIP3    H128474   2.411   1.432   0.159  2.4680  1.6488 -1.4194
 2305TIP3    H228475   2.509   1.371   0.257 -0.8085 -0.7350  0.6032
 2306TIP3   OH228476   1.003   3.378   0.908 -0.0081  0.0534 -0.2309
 2306TIP3    H128477   0.942   3.446   0.881  0.9801  1.3946  0.7869
 2306TIP3    H228478   1.021   3.329   0.827 -0.4356  1.2420 -1.0860
 2307TIP3   OH228479   3.663   1.180   1.750  0.4562 -0.2959  0.2942
 2307TIP3    H128480   3.582   1.225   1.771  0.0549 -1.1278  0.5566
 2307TIP3    H228481   3.654   1.155   1.658  1.1797  1.1731 -0.2116
 2308TIP3   OH228482   6.115   5.644   2.178 -0.5454  1.1642  0.1511
 2308TIP3    H128483   6.202   5.630   2.215 -0.2927 -0.7709 -1.0319
 2308TIP3    H228484   6.130   5.651   2.083 -1.7668 -0.8330 -0.2544
 2309TIP3   OH228485   3.856   4.911   0.307 -0.3147  0.6429  0.1456
 2309TIP3    H128486   3.866   4.960   0.389  1.6791  1.0446 -0.2913
 2309TIP3    H228487   3.911   4.958   0.244  0.3053 -1.1777 -0.7400
 2310TIP3   OH228488   1.143   5.626   8.521 -0.3330  0.1052  0.2121
 2310TIP3    H128489   1.157   5.564   8.592 -1.8105 -1.4369 -0.7491
 2310TIP3    H228490   1.048   5.626   8.508 -0.1598  0.9278 -1.2399
 2311TIP3   OH228491   6.627   5.900   1.577  0.1104  0.1237 -0.2558
 2311TIP3    H128492   6.652   5.843   1.504  1.7716 -0.3541  0.6264
 2311TIP3    H228493   6.563   5.960   1.540 -0.9708 -1.6927 -1.4652
 2312TIP3   OH228494   1.005   4.662   8.651  0.1422 -0.6479  0.4845
 2312TIP3    H128495   1.025   4.650   8.744  0.2088  1.9871  0.8787
 2312TIP3    H228496   0.921   4.708   8.650 -0.0068 -0.9166 -0.7833
 2313TIP3   OH228497   5.601   4.558   7.758 -0.2993  0.3631 -0.2249
 2313TIP3    H128498   5.578   4.471   7.725  0.0891  0.7105 -1.4965
 2313TIP3    H228499   5.525   4.585   7.810 -0.8976 -0.2825 -0.7335
 2314TIP3   OH228500   5.623   3.385   8.556  0.3294 -0.6465  0.1608
 2314TIP3    H128501   5.714   3.390   8.584  1.8137 -1.5637 -3.8620
 2314TIP3    H228502   5.583   3.322   8.615  2.3949 -0.5735  1.7378
 2315TIP3   OH228503   4.902   6.215   8.512  0.1785  0.1049  0.2567
 2315TIP3    H128504   4.840   6.283   8.486 -0.3069 -0.6419 -0.5932
 2315TIP3    H228505   4.879   6.196   8.603  1.7498  2.5905  1.2727
 2316TIP3   OH228506   0.893   3.961   8.250 -0.0492 -0.5435 -0.2902
 2316TIP3    H128507   0.957   4.002   8.308 -0.8678 -0.3683  0.5110
 2316TIP3    H228508   0.864   4.032   8.192  0.4235 -0.6066 -0.6064
 2317TIP3   OH228509   2.920   5.958   7.243 -0.0233 -0.7055 -0.6080
 2317TIP3    H128510   2.858   6.030   7.232  0.6616  0.3020  1.5434
 2317TIP3    H228511   2.865   5.881   7.260 -0.7144 -0.2032 -0.5454
 2318TIP3   OH228512   2.982   0.098   0.601  0.5241 -0.1241 -0.8265
 2318TIP3    H128513   3.027   0.150   0.669  0.9744 -2.1684  0.5487
 2318TIP3    H228514   2.942   0.163   0.543  0.3891  1.7393  1.2214
 2319TIP3   OH228515   5.406   2.551   2.023 -0.1164 -0.4804 -0.4050
 2319TIP3    H128516   5.448   2.567   2.107  2.3984 -4.7248 -0.5750
 2319TIP3    H228517   5.333   2.493   2.042 -0.5304 -0.1939 -1.0492
 2320TIP3   OH228518   0.604   3.829   8.363 -0.3997 -0.5186 -0.2239
 2320TIP3    H128519   0.533   3.853   8.303  1.1557 -0.6521 -2.2065
 2320TIP3    H228520   0.669   3.899   8.352  0.8200 -1.6366 -0.2659
 2321TIP3   OH228521   0.195   2.214   8.331  0.3182 -0.2253 -0.1740
 2321TIP3    H128522   0.223   2.123   8.318 -0.1567 -0.2705 -0.9582
 2321TIP3    H228523   0.139   2.211   8.409  0.2635 -0.6105 -0.2279
 2322TIP3   OH228524   1.463   6.691   7.234  0.1040  0.6287 -0.2458
 2322TIP3    H128525   1.511   6.773   7.248 -0.0313  0.6854 -0.1127
 2322TIP3    H228526   1.400   6.711   7.165 -0.9496  1.0615  0.8184
 2323TIP3   OH228527   5.035   0.220   8.002  0.3237 -0.2143 -0.0133
 2323TIP3    H128528   5.092   0.222   8.079 -1.1997  0.1227  1.1396
 2323TIP3    H228529   5.039   0.308   7.967 -3.2895  1.4271  3.0333
 2324TIP3   OH228530   1.509   2.510   1.900 -0.1062  0.1158 -0.1846
 2324TIP3    H128531   1.602   2.523   1.880  0.1940  0.7582  1.4764
 2324TIP3    H228532   1.507   2.429   1.951 -0.4369  0.2117 -0.0464
 2325TIP3   OH228533   4.567   2.670   2.275  0.0277 -0.3443  0.2889
 2325TIP3    H128534   4.562   2.575   2.276  1.4391 -0.4909 -1.5155
 2325TIP3    H228535   4.643   2.691   2.329  0.5396 -0.3459 -0.4184
 2326TIP3   OH228536   0.960   2.151   1.248  0.0145  0.7340 -0.7447
 2326TIP3    H128537   0.999   2.074   1.288 -0.7487  0.6884 -0.0708
 2326TIP3    H228538   0.914   2.117   1.171 -0.5192  0.4827 -0.3159
 2327TIP3   OH228539   4.860   6.238   1.609  0.0824  0.2935  0.3965
 2327TIP3    H128540   4.930   6.243   1.543 -0.4560 -0.9478 -0.2902
 2327TIP3    H228541   4.781   6.265   1.562 -0.6212 -2.2165 -0.0152
 2328TIP3   OH228542   4.828   3.093   0.664  1.0059  0.5075 -0.0567
 2328TIP3    H128543   4.872   3.038   0.599  1.6940 -0.8328  1.4825
 2328TIP3    H228544   4.823   3.039   0.743  0.4911  2.1854  1.1325
 2329TIP3   OH228545   6.061   4.990   1.969 -0.5073  0.0226  0.1698
 2329TIP3    H128546   6.137   4.988   2.027 -1.2186  0.4570  1.1568
 2329TIP3    H228547   6.055   5.080   1.939 -0.0982 -0.2185 -0.6618
 2330TIP3   OH228548   3.440   6.680   1.210 -0.3457  0.5051  0.3253
 2330TIP3    H128549   3.416   6.661   1.301  0.4485  0.5630  0.5498
 2330TIP3    H228550   3.525   6.637   1.198  0.0770  1.4327 -0.0477
 2331TIP3   OH228551   0.641   1.160   1.844  0.0928  0.2297 -0.1043
 2331TIP3    H128552   0.705   1.231   1.840 -0.7786  1.0951  0.9154
 2331TIP3    H228553   0.584   1.183   1.917 -1.1978 -0.7012 -0.7854
 2332TIP3   OH228554   1.661   2.472   7.736 -0.1600 -0.0077  0.0730
 2332TIP3    H128555   1.665   2.446   7.644  0.7827  0.9048 -0.1706
 2332TIP3    H228556   1.614   2.401   7.779 -2.7156  0.5837 -1.4718
 2333TIP3   OH228557   0.056   4.081   8.016 -0.2667  0.2231 -0.6859
 2333TIP3    H128558   0.029   4.164   7.976 -1.1924 -1.2346 -3.3209
 2333TIP3    H228559   0.096   4.032   7.944 -1.0916 -2.1911  0.4068
 2334TIP3   OH228560   0.808   3.906   7.740 -0.7800 -0.2340 -0.3367
 2334TIP3    H128561   0.762   3.871   7.816 -0.1886 -0.0663  0.1059
 2334TIP3    H228562   0.742   3.908   7.671 -1.7570  1.1547  0.5990
 2335TIP3   OH228563   1.531   0.684   0.415 -0.3282 -0.3043 -0.5095
 2335TIP3    H128564   1.523   0.614   0.351  0.3923 -0.1807 -0.7498
 2335TIP3    H228565   1.625   0.693   0.429 -0.4278  0.3750 -0.2194
 2336TIP3   OH228566   0.052   5.422   0.174  0.6068 -0.1382 -0.2512
 2336TIP3    H128567   0.025   5.330   0.171  0.8764 -0.2632  0.8339
 2336TIP3    H228568   0.144   5.421   0.149  1.0660 -0.3823  1.3501
 2337TIP3   OH228569   2.313   1.124   7.965  0.0959 -0.6258 -0.4216
 2337TIP3    H128570   2.262   1.057   8.012 -0.7577  0.5760  0.4562
 2337TIP3    H228571   2.301   1.103   7.873 -1.9542 -0.4761 -0.2495
 2338TIP3   OH228572   1.542   6.452   2.407 -0.1588  0.1714  0.0989
 2338TIP3    H128573   1.496   6.534   2.389 -2.1404 -0.8288  0.3374
 2338TIP3    H228574   1.515   6.429   2.496  1.3202 -0.1467  0.4782
 2339TIP3   OH228575   5.378   0.026   1.774  0.2708  0.6568 -0.3654
 2339TIP3    H128576   5.474   0.033   1.773  0.3878 -0.5198  0.9279
 2339TIP3    H228577   5.349   0.103   1.823  0.6382  0.3003  0.4193
 2340TIP3   OH228578   4.156   1.191   7.867 -0.6125  0.8635 -0.4778
 2340TIP3    H128579   4.188   1.278   7.891 -1.7153  1.6325 -1.6056
 2340TIP3    H228580   4.234   1.144   7.837 -0.0940  1.6961 -0.4718
 2341TIP3   OH228581   0.424   4.137   1.896  0.6293 -0.6497  0.5347
 2341TIP3    H128582   0.446   4.225   1.928  1.4054  0.1970 -2.0765
 2341TIP3    H228583   0.488   4.120   1.827 -0.2383 -2.8002  0.1974
 2342TIP3   OH228584   4.070   1.655   7.865  0.7526  0.3826 -0.6855
 2342TIP3    H128585   4.015   1.588   7.905  0.1896 -0.3406 -2.5366
 2342TIP3    H228586   4.138   1.673   7.930  0.3519 -1.2753  0.2502
 2343TIP3   OH228587   2.061   4.775   2.184 -0.8033  0.1850 -0.1914
 2343TIP3    H128588   2.049   4.814   2.270  2.2627  2.3044 -0.5637
 2343TIP3    H228589   2.149   4.740   2.186 -0.5001  0.6512 -2.5635
 2344TIP3   OH228590   1.196   5.857   7.808 -0.2559 -0.0631  0.1005
 2344TIP3    H128591   1.253   5.858   7.730  0.6304  1.2904  0.7210
 2344TIP3    H228592   1.209   5.770   7.845  0.0276 -0.4052 -0.7633
 2345TIP3   OH228593   1.703   1.075   7.957  0.3828  0.0748  0.1330
 2345TIP3    H128594   1.688   0.981   7.941  0.1906  0.0754  0.3065
 2345TIP3    H228595   1.620   1.106   7.992  0.3447  0.3796 -0.2283
 2346TIP3   OH228596   1.793   2.998   0.843 -0.2811  0.4497 -0.4426
 2346TIP3    H128597   1.781   3.041   0.928  1.1629  2.3993 -1.1624
 2346TIP3    H228598   1.734   2.922   0.846 -0.3047  0.4798  2.2706
 2347TIP3   OH228599   5.289   5.604   1.625  0.3894  0.1044 -0.1765
 2347TIP3    H128600   5.366   5.554   1.653  0.6861  0.7934  0.2536
 2347TIP3    H228601   5.219   5.577   1.684 -0.2752 -2.0447 -1.8149
 2348TIP3   OH228602   1.139   3.955   1.490  0.6921  0.0677 -0.0953
 2348TIP3    H128603   1.077   3.890   1.523  1.4243 -0.2804  0.6205
 2348TIP3    H228604   1.106   4.038   1.523 -0.0650  0.0369 -0.7385
 2349TIP3   OH228605   3.415   4.402   0.158 -0.1377 -0.3592 -0.0572
 2349TIP3    H128606   3.507   4.387   0.136 -0.1930 -0.5678 -0.1560
 2349TIP3    H228607   3.404   4.366   0.246 -0.3758 -1.3435 -0.4686
 2350TIP3   OH228608   1.277   1.967   8.434  0.1232  0.2256 -0.0111
 2350TIP3    H128609   1.240   1.965   8.522  1.5177  0.7881  0.6192
 2350TIP3    H228610   1.353   1.908   8.438  0.7912  1.0176 -0.5369
 2351TIP3   OH228611   5.424   6.770   0.554  0.5589  0.2444  0.0153
 2351TIP3    H128612   5.347   6.815   0.517 -1.0864 -0.3447  2.4312
 2351TIP3    H228613   5.494   6.786   0.491 -1.2489  1.8020 -1.7507
 2352TIP3   OH228614   5.776   0.001   1.664  0.1274 -0.0856  0.5997
 2352TIP3    H128615   5.745  -0.088   1.677  0.0630 -0.1869 -0.2019
 2352TIP3    H228616   5.800   0.005   1.571 -0.3235  0.8673  0.5092
 2353TIP3   OH228617   6.042   5.424   1.465 -0.2253 -0.3841  0.1031
 2353TIP3    H128618   6.000   5.463   1.542 -0.7388 -1.2876  0.2923
 2353TIP3    H228619   5.979   5.439   1.394 -0.0185 -0.0837 -0.0202
 2354TIP3   OH228620   0.609   1.366   7.380 -0.5478 -0.3299  0.2221
 2354TIP3    H128621   0.641   1.454   7.360  1.1138 -1.1779 -1.1834
 2354TIP3    H228622   0.567   1.337   7.300  0.6492 -1.4984 -0.0263
 2355TIP3   OH228623   2.697   4.892   0.642 -0.3946  0.3829  0.7056
 2355TIP3    H128624   2.731   4.941   0.567  0.4695 -3.6018 -1.8143
 2355TIP3    H228625   2.661   4.812   0.604 -0.6210 -1.5499  4.5050
 2356TIP3   OH228626   5.408   1.156   0.005 -0.2138  0.1667  0.1960
 2356TIP3    H128627   5.346   1.199   0.064  0.0871 -0.2003  0.7882
 2356TIP3    H228628   5.468   1.109   0.063  1.4465  1.5855 -0.2529
 2357TIP3   OH228629   6.140   5.233   7.898  0.0071 -0.5809  0.0752
 2357TIP3    H128630   6.174   5.171   7.834 -1.4817 -2.7073  1.2360
 2357TIP3    H228631   6.114   5.309   7.845  1.8195 -0.8973 -1.4001
 2358TIP3   OH228632   5.905   3.549   7.752 -0.0406  0.0472 -0.1576
 2358TIP3    H128633   5.935   3.460   7.731 -1.8473 -0.7610  0.4302
 2358TIP3    H228634   5.888   3.546   7.847  0.1514  1.1074 -0.0841
 2359TIP3   OH228635   2.384   4.045   1.761 -0.1839 -0.5123  0.0883
 2359TIP3    H128636   2.478   4.065   1.757 -0.1085 -0.9159 -0.1371
 2359TIP3    H228637   2.368   4.027   1.853 -0.2766  0.6900  0.3261
 2360TIP3   OH228638   5.894   0.778   7.729  0.5229  0.1646  0.0844
 2360TIP3    H128639   5.852   0.860   7.753 -0.5605 -0.2159 -0.4593
 2360TIP3    H228640   5.827   0.711   7.742  2.1506 -1.0693  3.1542
 2361TIP3   OH228641   2.563   5.147   1.946  0.2936  0.4877  0.4368
 2361TIP3    H128642   2.472   5.123   1.959  0.7266 -0.4735  1.9462
 2361TIP3    H228643   2.613   5.077   1.988  1.7452  0.8032 -0.6684
 2362TIP3   OH228644   3.058   4.964   0.246  0.5676  0.1086  0.1770
 2362TIP3    H128645   3.119   5.037   0.235 -0.7094  0.8990 -2.9239
 2362TIP3    H228646   3.100   4.891   0.199  0.5481 -0.2994  0.7889
 2363TIP3   OH228647   2.198   2.298   1.329 -0.9256 -0.1634 -0.0464
 2363TIP3    H128648   2.282   2.343   1.333 -0.3516 -1.0994 -1.0355
 2363TIP3    H228649   2.197   2.257   1.242 -1.0275 -2.7266  1.0695
 2364TIP3   OH228650   1.729   3.870   7.484  0.1566  0.5374  0.0871
 2364TIP3    H128651   1.814   3.890   7.446 -0.4942  1.2288 -1.0445
 2364TIP3    H228652   1.727   3.775   7.492  0.7682  0.4761 -0.4997
 2365TIP3   OH228653   6.006   3.535   0.882  0.2023 -0.0958  0.1857
 2365TIP3    H128654   6.075   3.572   0.938  0.2233 -0.5492  0.4677
 2365TIP3    H228655   6.004   3.443   0.906 -0.4848 -0.0885  0.1550
 2366TIP3   OH228656   6.583   4.495   8.075 -0.5794 -0.4811 -0.6229
 2366TIP3    H128657   6.582   4.523   8.167  0.8364 -0.8628 -0.4671
 2366TIP3    H228658   6.573   4.400   8.079 -2.3899 -0.3271 -0.9843
 2367TIP3   OH228659   1.239   6.043   1.441  0.1753  0.4708 -0.9383
 2367TIP3    H128660   1.317   6.022   1.492 -0.2685  0.8052 -0.1117
 2367TIP3    H228661   1.227   5.967   1.383  0.6100  0.0334 -0.4607
 2368TIP3   OH228662   6.038   4.357   0.412 -0.3363  0.1179  0.0995
 2368TIP3    H128663   6.047   4.358   0.507  0.5336 -2.8881  0.1491
 2368TIP3    H228664   6.118   4.399   0.380 -0.3104  0.5328  0.6973
 2369TIP3   OH228665   6.597   3.167   2.050  0.0480  0.5374  0.0420
 2369TIP3    H128666   6.515   3.211   2.026  0.8055  1.6180 -0.6416
 2369TIP3    H228667   6.643   3.153   1.967 -0.1225 -1.5334  0.2398
 2370TIP3   OH228668   6.831   5.601   7.300  1.0476 -0.2413  0.7817
 2370TIP3    H128669   6.923   5.622   7.283  0.8418  0.2985  0.3071
 2370TIP3    H228670   6.786   5.623   7.218  0.4544 -0.2442  1.1045
 2371TIP3   OH228671   6.264   3.437   7.823 -0.5126 -0.0866 -0.5927
 2371TIP3    H128672   6.286   3.519   7.779  0.9036  0.7641  1.5238
 2371TIP3    H228673   6.262   3.460   7.916 -0.0654 -2.4467  0.0612
 2372TIP3   OH228674   5.554   3.237   0.597  0.3882  0.3336  0.2407
 2372TIP3    H128675   5.643   3.271   0.605 -0.0074  1.6450 -0.5968
 2372TIP3    H228676   5.508   3.302   0.544 -0.8655 -0.7133 -0.0149
 2373TIP3   OH228677   2.477   0.294   7.785 -0.1526  0.5643  0.1414
 2373TIP3    H128678   2.481   0.240   7.705 -1.1977 -0.1773  0.5623
 2373TIP3    H228679   2.384   0.299   7.805  0.0191  1.6336  0.7416
 2374TIP3   OH228680   6.356   1.431   2.028 -0.2937 -0.4657  0.5315
 2374TIP3    H128681   6.432   1.485   2.006 -0.4617 -0.5396 -0.2748
 2374TIP3    H228682   6.323   1.468   2.109 -0.4285  0.6725 -0.0287
 2375TIP3   OH228683   1.973   6.024   8.463  0.4089  0.3234  0.4543
 2375TIP3    H128684   1.907   6.029   8.532 -1.2441 -0.2643 -1.0120
 2375TIP3    H228685   1.924   6.032   8.382  1.7615 -2.6565 -0.8189
 2376TIP3   OH228686   2.712   3.612   8.099 -0.0082 -0.2241 -0.4549
 2376TIP3    H128687   2.738   3.523   8.121  0.1594 -0.2543 -0.7745
 2376TIP3    H228688   2.675   3.647   8.180  2.8722  0.5404  0.6437
 2377TIP3   OH228689   4.906   3.597   0.582 -0.2775  0.6201  0.3327
 2377TIP3    H128690   4.915   3.693   0.582  1.2301  0.5159 -0.4070
 2377TIP3    H228691   4.828   3.581   0.530  0.9182  1.4232 -1.8893
 2378TIP3   OH228692   2.696   3.012   7.900 -0.3715  0.1279  0.3998
 2378TIP3    H128693   2.777   2.978   7.863 -0.3197 -0.1423  0.7622
 2378TIP3    H228694   2.711   3.015   7.994 -2.0000 -3.3762  0.9358
 2379TIP3   OH228695   6.285   5.352   7.247 -0.2650  0.1090  0.1313
 2379TIP3    H128696   6.274   5.306   7.164  2.2044  1.0313 -0.8034
 2379TIP3    H228697   6.314   5.284   7.308  0.4898 -0.1159 -0.4687
 2380TIP3   OH228698   2.929   3.848   6.938  0.4297  0.2732  0.5273
 2380TIP3    H128699   2.912   3.816   6.850 -1.2875 -0.0451  0.9304
 2380TIP3    H228700   2.991   3.785   6.975 -0.3134 -0.6917  0.1727
 2381TIP3   OH228701   6.697   5.088   8.169 -0.1074  0.7162  0.4068
 2381TIP3    H128702   6.721   4.996   8.163 -0.7624  0.4788  1.3337
 2381TIP3    H228703   6.668   5.111   8.080  0.1705  0.0734  0.1460
 2382TIP3   OH228704   2.416   3.703   1.854  0.2186 -0.4244 -0.2775
 2382TIP3    H128705   2.424   3.707   1.950  0.7461 -0.3724 -0.3166
 2382TIP3    H228706   2.507   3.695   1.824  0.1283  0.4835 -0.8171
 2383TIP3   OH228707   5.052   0.621   7.579 -0.4163 -0.2637  0.0747
 2383TIP3    H128708   5.133   0.670   7.592  0.3238 -1.4456  0.0089
 2383TIP3    H228709   5.079   0.530   7.573 -1.3502 -0.4601 -3.2344
 2384TIP3   OH228710   6.133   4.092   1.135  0.0479  0.1620  0.4930
 2384TIP3    H128711   6.052   4.141   1.122 -0.8942 -1.1366  1.1747
 2384TIP3    H228712   6.203   4.154   1.113 -1.1442  0.7183 -2.0536
 2385TIP3   OH228713   0.402   0.129   7.527 -0.2592 -0.2074  0.3332
 2385TIP3    H128714   0.494   0.153   7.538 -0.6785  1.1161  1.1177
 2385TIP3    H228715   0.402   0.070   7.451  0.8935  1.9348 -1.4364
 2386TIP3   OH228716   5.810   4.889   1.223 -0.0234 -0.0751 -0.4093
 2386TIP3    H128717   5.832   4.977   1.254 -2.0626  0.5347 -0.5034
 2386TIP3    H228718   5.873   4.872   1.153  0.5947  1.1963 -0.1987
 2387TIP3   OH228719   5.569   0.784   8.076 -0.8549  0.1539 -0.2826
 2387TIP3    H128720   5.566   0.805   8.170  1.2307  0.7950 -0.2991
 2387TIP3    H228721   5.506   0.844   8.036 -0.5454  1.0647  0.5387
 2388TIP3   OH228722   5.227   6.193   1.631 -0.1824  0.4510 -0.1804
 2388TIP3    H128723   5.173   6.114   1.624  1.2899 -0.7425  1.1302
 2388TIP3    H228724   5.229   6.212   1.725  2.6435 -0.2951 -0.0067
 2389TIP3   OH228725   0.017   3.550   7.339  0.0113  0.3080  0.3620
 2389TIP3    H128726   0.073   3.551   7.417  0.2578  1.7364  0.1946
 2389TIP3    H228727   0.077   3.533   7.267  0.2098  1.5712  0.2126
 2390TIP3   OH228728   5.624   1.023   0.469  0.5294  0.4312  0.1785
 2390TIP3    H128729   5.658   0.949   0.418 -0.9437  0.6586 -1.2210
 2390TIP3    H228730   5.538   0.993   0.500 -0.2137  1.6258 -0.6511
 2391TIP3   OH228731   1.207   1.907   2.146  0.1860  0.1182  0.2176
 2391TIP3    H128732   1.243   1.819   2.137  1.8480  0.7292  0.4472
 2391TIP3    H228733   1.272   1.964   2.105 -0.3508  1.3412  0.9853
 2392TIP3   OH228734   3.918   3.117   2.152  0.0331  0.4986  0.1650
 2392TIP3    H128735   3.867   3.134   2.231 -0.9674  0.2332 -0.4064
 2392TIP3    H228736   3.915   3.200   2.104 -2.0453 -0.2329 -1.0626
 2393TIP3   OH228737   5.286   1.036   1.208 -0.1492 -0.9802 -0.0867
 2393TIP3    H128738   5.203   1.072   1.175  1.2187  2.1046 -0.4838
 2393TIP3    H228739   5.312   1.096   1.277  2.6089 -0.7734 -1.1893
 2394TIP3   OH228740   5.762   0.596   2.008  0.1884 -0.0789 -0.0009
 2394TIP3    H128741   5.767   0.557   2.096 -0.0170 -2.8123 -1.0991
 2394TIP3    H228742   5.851   0.591   1.974  0.0712  0.0276 -0.3270
 2395TIP3   OH228743   3.311   5.773   8.626  0.3457  0.5440 -0.1347
 2395TIP3    H128744   3.354   5.707   8.572  0.0725 -0.7347  1.1705
 2395TIP3    H228745   3.275   5.836   8.563 -0.5821 -1.2717 -1.4922
 2396TIP3   OH228746   2.339   6.608   2.427 -0.4632 -0.1316  0.0320
 2396TIP3    H128747   2.366   6.699   2.415 -1.4427  0.1899  0.1146
 2396TIP3    H228748   2.243   6.613   2.433 -0.5180 -1.1596  0.1217
 2397TIP3   OH228749   3.095   6.864   0.865  0.5279 -0.3730  0.1791
 2397TIP3    H128750   3.009   6.904   0.878  1.1464  1.6563 -1.4135
 2397TIP3    H228751   3.084   6.808   0.788  0.9409  1.1731 -1.0704
 2398TIP3   OH228752   3.785   6.347   7.320  0.2152 -0.1289 -0.4346
 2398TIP3    H128753   3.699   6.359   7.281 -0.0735  1.2986  0.5987
 2398TIP3    H228754   3.844   6.337   7.245 -0.5683  0.8726 -1.2064
 2399TIP3   OH228755   2.635   3.231   6.948  0.0961 -0.4302  0.4547
 2399TIP3    H128756   2.623   3.173   7.023 -0.3218 -0.0939  0.6525
 2399TIP3    H228757   2.727   3.218   6.922 -0.0354 -1.2795  0.3985
 2400TIP3   OH228758   1.123   6.575   1.578  0.2983 -0.3403  0.1687
 2400TIP3    H128759   1.205   6.619   1.558  0.8266 -0.5607  1.7619
 2400TIP3    H228760   1.125   6.495   1.524  0.8290 -0.0426 -0.2630
 2401TIP3   OH228761   2.458   4.568   0.686  0.0494  0.0644  0.2585
 2401TIP3    H128762   2.459   4.619   0.768 -2.2607  1.7202 -0.6174
 2401TIP3    H228763   2.414   4.486   0.710 -2.5105  1.3543  0.3864
 2402TIP3   OH228764   1.137   2.235   6.724 -0.2994 -0.1969  0.5051
 2402TIP3    H128765   1.160   2.325   6.745  1.1513 -0.8126  1.7377
 2402TIP3    H228766   1.207   2.205   6.666 -1.4187 -0.1866 -0.9021
 2403TIP3   OH228767   2.568   3.306   8.091  0.1022 -0.6857 -0.0546
 2403TIP3    H128768   2.507   3.361   8.140 -0.1704 -1.9608  1.1272
 2403TIP3    H228769   2.535   3.307   8.001  0.7896  1.9695 -0.3446
 2404TIP3   OH228770   1.899   1.900   2.046  0.0663 -0.4119  0.0824
 2404TIP3    H128771   1.826   1.881   1.988 -1.8470 -0.7058  2.4152
 2404TIP3    H228772   1.959   1.826   2.035 -0.0515 -0.2735 -1.7061
 2405TIP3   OH228773   6.094   4.419   7.640  0.4126  0.6614 -0.0529
 2405TIP3    H128774   6.082   4.451   7.551  0.4749 -0.8074 -0.6145
 2405TIP3    H228775   6.189   4.414   7.651  0.4215 -1.3491 -0.7575
 2406TIP3   OH228776   5.686   3.396   7.715 -0.0796 -0.1449 -0.1731
 2406TIP3    H128777   5.722   3.334   7.652  0.2541  0.4422 -0.5771
 2406TIP3    H228778   5.755   3.462   7.727 -1.3023  1.5287 -1.6859
 2407TIP3   OH228779   1.771   1.415   7.174 -0.4053  0.4341  0.5274
 2407TIP3    H128780   1.762   1.486   7.238  0.0948  2.6187 -1.6712
 2407TIP3    H228781   1.691   1.420   7.122  1.0845  1.7252 -1.7936
 2408TIP3   OH228782   0.328   4.958   8.131 -0.1666  0.0794 -0.0492
 2408TIP3    H128783   0.410   4.915   8.105 -0.4363 -0.4279 -0.0704
 2408TIP3    H228784   0.304   4.916   8.213 -1.3754 -1.0946 -0.9656
 2409TIP3   OH228785   6.232   1.690   1.977 -0.3043  0.0287 -0.7223
 2409TIP3    H128786   6.141   1.698   2.007 -0.6508 -2.1781 -0.9642
 2409TIP3    H228787   6.283   1.685   2.057 -0.5387  0.1728 -0.5623
 2410TIP3   OH228788   2.375   1.849   1.348 -0.2955  0.1765  0.5893
 2410TIP3    H128789   2.325   1.785   1.296  1.6054 -1.0814  0.1991
 2410TIP3    H228790   2.431   1.795   1.404 -1.4110  1.5118  3.1477
 2411TIP3   OH228791   4.616   0.833   1.738 -0.3702  0.0672  0.7383
 2411TIP3    H128792   4.694   0.784   1.763  0.6512  1.4750  0.4142
 2411TIP3    H228793   4.593   0.798   1.652  0.0007 -0.2544  0.7666
 2412TIP3   OH228794   5.348   5.878   7.955 -0.0432  0.1615 -0.1540
 2412TIP3    H128795   5.299   5.903   7.877  1.0260 -0.1680 -0.9547
 2412TIP3    H228796   5.284   5.834   8.011 -0.9465  0.8808 -0.5948
 2413TIP3   OH228797   4.431   1.752   0.822 -0.6862  0.4761  0.0866
 2413TIP3    H128798   4.478   1.749   0.739 -0.0701  2.1773  0.3299
 2413TIP3    H228799   4.342   1.724   0.801 -0.3346  0.1460 -0.9818
 2414TIP3   OH228800   1.273   3.948   1.843 -0.1520  0.7062 -0.1521
 2414TIP3    H128801   1.194   3.897   1.824 -0.1165  0.7165 -0.3322
 2414TIP3    H228802   1.316   3.901   1.914  0.7779 -0.4982 -1.4407
 2415TIP3   OH228803   3.997   0.219   2.427 -0.0589 -0.0385  0.3166
 2415TIP3    H128804   3.914   0.179   2.455 -0.4724  0.0296 -0.7723
 2415TIP3    H228805   3.975   0.265   2.347  0.9903  0.1999  0.1566
 2416TIP3   OH228806   6.667   3.939   0.289  0.7172 -0.2025 -0.4142
 2416TIP3    H128807   6.672   3.853   0.247 -1.7070 -0.2849 -0.6907
 2416TIP3    H228808   6.679   4.002   0.218 -0.0195 -0.3386 -0.6666
 2417TIP3   OH228809   4.626   1.215   1.734  0.1727 -0.5481  0.2829
 2417TIP3    H128810   4.652   1.285   1.794 -1.0098  1.8713 -1.8311
 2417TIP3    H228811   4.531   1.209   1.744  0.0545 -0.6220 -0.7462
 2418TIP3   OH228812   4.006   3.967   6.905 -0.5127  0.5582  0.2147
 2418TIP3    H128813   4.042   3.917   6.832 -0.7138  1.1942 -0.3319
 2418TIP3    H228814   4.004   4.057   6.873  1.1031  1.1491  1.6615
 2419TIP3   OH228815   5.046   1.546   0.968 -0.1076 -0.5484 -0.2321
 2419TIP3    H128816   5.060   1.574   0.877  0.3900 -1.7102 -0.5356
 2419TIP3    H228817   5.058   1.451   0.965  0.4226 -0.5369  1.1485
 2420TIP3   OH228818   3.749   5.964   1.446  0.0874 -0.1966 -0.2980
 2420TIP3    H128819   3.716   6.012   1.522 -1.1125  1.1162 -1.5928
 2420TIP3    H228820   3.711   5.876   1.455 -0.9858  0.2885  0.0361
 2421TIP3   OH228821   0.740   2.639   8.369 -0.0550  0.0728  0.3632
 2421TIP3    H128822   0.790   2.659   8.289  0.7078 -3.0154 -0.0556
 2421TIP3    H228823   0.772   2.702   8.433  1.5139  0.7231 -0.9806
 2422TIP3   OH228824   4.674   0.751   1.233  0.6168 -0.8719 -1.0836
 2422TIP3    H128825   4.665   0.713   1.145 -1.8886 -0.4594 -1.0818
 2422TIP3    H228826   4.682   0.845   1.218 -5.1106 -0.0079 -1.0022
 2423TIP3   OH228827   6.528   3.323   0.108 -0.3604  0.0602  0.7967
 2423TIP3    H128828   6.623   3.312   0.102 -0.2054  1.2832  0.7114
 2423TIP3    H228829   6.506   3.383   0.037 -1.6352 -2.3265 -0.9707
 2424TIP3   OH228830   3.113   4.431   7.266 -0.2541 -0.0540 -0.0029
 2424TIP3    H128831   3.103   4.347   7.221 -2.5973 -0.4410  1.1208
 2424TIP3    H228832   3.139   4.408   7.355 -0.0699  0.4702  0.0848
 2425TIP3   OH228833   6.152   4.555   7.398  0.3524  0.1774 -0.4952
 2425TIP3    H128834   6.177   4.638   7.436 -0.5832  0.4970 -0.5380
 2425TIP3    H228835   6.195   4.553   7.313  0.3604  0.6335 -0.5025
 2426TIP3   OH228836   4.443   4.115   6.554 -0.2986  0.0310  0.0632
 2426TIP3    H128837   4.421   4.202   6.521  1.6803  0.6820  0.3350
 2426TIP3    H228838   4.538   4.107   6.542 -0.7134 -3.2047 -2.5665
 2427TIP3   OH228839   4.601   2.852   1.463  0.2438 -0.0853  0.0625
 2427TIP3    H128840   4.507   2.834   1.456  0.3228 -0.6929  0.4684
 2427TIP3    H228841   4.622   2.830   1.554  0.7594  0.1648  0.0038
 2428TIP3   OH228842   6.375   1.977   0.450 -0.1037 -0.7186 -0.2300
 2428TIP3    H128843   6.457   1.931   0.431 -0.5311 -1.0232 -1.4653
 2428TIP3    H228844   6.308   1.926   0.404 -0.5709  1.1968 -1.8484
 2429TIP3   OH228845   0.763   2.701   7.601 -0.2877 -0.4080 -0.0303
 2429TIP3    H128846   0.711   2.693   7.521  1.0584  1.4339 -1.1583
 2429TIP3    H228847   0.852   2.719   7.571  0.2780  0.2714  1.8958
 2430TIP3   OH228848   4.985   3.020   0.916 -0.2093  0.0749 -0.9797
 2430TIP3    H128849   5.068   2.974   0.915 -0.6736 -0.8111 -0.1545
 2430TIP3    H228850   4.995   3.086   0.985 -0.2036 -0.0512 -0.8603
 2431TIP3   OH228851   6.375   3.557   0.754 -0.2286 -0.1789  0.0948
 2431TIP3    H128852   6.456   3.607   0.741 -0.1741 -0.6604 -1.6054
 2431TIP3    H228853   6.353   3.572   0.846  1.8634 -0.1483  0.6534
 2432TIP3   OH228854   5.395   3.396   6.892 -0.0663 -0.4115  0.2973
 2432TIP3    H128855   5.449   3.347   6.830  2.4512  1.7808  0.5330
 2432TIP3    H228856   5.320   3.426   6.841  0.5159 -0.9991 -0.9343
 2433TIP3   OH228857   1.110   0.992   0.455  0.2223  0.3918 -0.2141
 2433TIP3    H128858   1.137   1.073   0.500 -0.7561  0.8801 -0.4717
 2433TIP3    H228859   1.192   0.954   0.424  0.5959  2.2957 -1.7876
 2434TIP3   OH228860   2.825   3.507   2.319  0.1326  0.6479  0.0103
 2434TIP3    H128861   2.744   3.554   2.338 -1.2593 -1.2241 -0.9838
 2434TIP3    H228862   2.894   3.560   2.359 -1.6470  1.8975  1.5503
 2435TIP3   OH228863   3.687   1.258   7.425  0.0540 -0.3256  0.5757
 2435TIP3    H128864   3.776   1.291   7.414  0.6651 -1.9176  0.5033
 2435TIP3    H228865   3.659   1.236   7.336 -0.7253  0.9110  0.5024
 2436TIP3   OH228866   5.782   1.898   8.558 -0.0488  0.3679  0.0547
 2436TIP3    H128867   5.742   1.813   8.539 -1.5691  0.5152  2.2110
 2436TIP3    H228868   5.826   1.923   8.476  0.1952 -2.3163 -0.7375
 2437TIP3   OH228869   2.871   6.630   0.961 -0.0333 -0.8377  0.2853
 2437TIP3    H128870   2.952   6.596   0.924 -0.2910  0.1738 -1.3434
 2437TIP3    H228871   2.803   6.570   0.930  0.0352 -1.5537  1.4579
 2438TIP3   OH228872   2.065   2.016   2.390  0.0850 -0.1867 -0.3426
 2438TIP3    H128873   2.112   2.065   2.457 -0.5706 -0.8826  0.6561
 2438TIP3    H228874   2.069   1.925   2.420 -3.1143 -0.1233  0.5784
 2439TIP3   OH228875   5.639   0.324   1.277 -0.7460  0.0343  0.3017
 2439TIP3    H128876   5.577   0.396   1.267 -0.2264  0.7366  1.8263
 2439TIP3    H228877   5.632   0.298   1.369 -2.2159 -3.1428 -0.5741
 2440TIP3   OH228878   1.014   2.125   2.127  0.2615 -0.3078 -0.1130
 2440TIP3    H128879   1.049   2.036   2.117  0.3060 -0.3268  0.1803
 2440TIP3    H228880   1.081   2.170   2.180 -0.5334 -0.5778  1.1681
 2441TIP3   OH228881   6.607   3.348   7.175 -0.0612  0.2650 -0.4194
 2441TIP3    H128882   6.646   3.408   7.112  0.6374 -0.5380 -0.7760
 2441TIP3    H228883   6.571   3.277   7.122 -0.4386  0.1215  0.0192
 2442TIP3   OH228884   4.137   4.182   0.391 -0.5542  0.3691  0.3922
 2442TIP3    H128885   4.067   4.118   0.410 -0.5781  0.4328  0.5227
 2442TIP3    H228886   4.100   4.266   0.419 -0.6700  0.4971 -0.1407
 2443TIP3   OH228887   2.584   5.062   6.739  0.4102  0.0483  0.2483
 2443TIP3    H128888   2.595   4.987   6.797  0.9665 -0.4414 -0.4628
 2443TIP3    H228889   2.657   5.119   6.761  0.1643  0.2400  0.5760
 2444TIP3   OH228890   2.645   0.414   7.414  0.0504 -0.4300 -0.0479
 2444TIP3    H128891   2.631   0.420   7.319  1.3667 -3.6639 -0.6029
 2444TIP3    H228892   2.566   0.372   7.447  0.0189 -0.2402  0.1195
 2445TIP3   OH228893   2.385   3.393   0.315 -0.0473 -0.4188 -0.2122
 2445TIP3    H128894   2.465   3.435   0.284  0.1516 -0.5752  0.0865
 2445TIP3    H228895   2.370   3.321   0.253  0.1479 -0.5048 -0.1603
 2446TIP3   OH228896   4.955   3.314   0.573  0.2835  0.1990  0.4093
 2446TIP3    H128897   4.889   3.253   0.606  0.1927 -0.9990 -1.8659
 2446TIP3    H228898   4.905   3.392   0.549 -0.1992 -0.3541 -0.4266
 2447TIP3   OH228899   0.320   1.345   1.218 -0.5346  0.6617  0.1825
 2447TIP3    H128900   0.324   1.375   1.127  1.9370 -2.1179 -0.7766
 2447TIP3    H228901   0.382   1.401   1.264 -0.4683  0.9217 -0.2184
 2448TIP3   OH228902   3.900   3.549   1.371  0.0834 -0.2642 -0.2264
 2448TIP3    H128903   3.824   3.502   1.338  1.1992 -1.4123 -1.2957
 2448TIP3    H228904   3.915   3.619   1.308  1.0317 -1.2403 -1.1362
 2449TIP3   OH228905   2.964   4.794   7.845 -0.0482  0.2998 -0.7482
 2449TIP3    H128906   2.899   4.727   7.863  0.5111  0.4121  2.1037
 2449TIP3    H228907   2.917   4.877   7.852  0.1742  0.3444  0.3512
 2450TIP3   OH228908   2.933   5.794   0.607  0.4093  0.3687  0.5539
 2450TIP3    H128909   2.892   5.737   0.672  1.4578 -2.6423 -1.2224
 2450TIP3    H228910   2.860   5.834   0.560 -0.3936 -0.3920  1.1299
 2451TIP3   OH228911   0.838   0.855   1.041 -0.5285 -0.1257 -0.7841
 2451TIP3    H128912   0.790   0.907   0.977 -1.9029 -1.0313 -0.5450
 2451TIP3    H228913   0.799   0.880   1.125  0.3089  0.0435 -0.4371
 2452TIP3   OH228914   2.708   4.664   7.554 -0.0438  0.5881 -0.0249
 2452TIP3    H128915   2.760   4.590   7.524 -1.1488 -0.3180  0.2593
 2452TIP3    H228916   2.702   4.652   7.649 -1.6123  0.1010 -0.1591
 2453TIP3   OH228917   4.190   3.199   8.316 -0.7034 -0.3064  0.2933
 2453TIP3    H128918   4.257   3.241   8.369 -0.6436 -0.7808  0.5962
 2453TIP3    H228919   4.129   3.161   8.380 -1.9879  1.2151  0.0645
 2454TIP3   OH228920   5.145   5.457   7.053  0.0266 -0.8274  0.8611
 2454TIP3    H128921   5.061   5.479   7.092  0.6109 -0.5344  2.0014
 2454TIP3    H228922   5.162   5.367   7.080  0.4919 -0.5835  1.3926
 2455TIP3   OH228923   0.249   1.763   8.461 -0.1975 -0.1901  0.1980
 2455TIP3    H128924   0.314   1.695   8.449 -0.6343 -1.0256  2.0992
 2455TIP3    H228925   0.186   1.749   8.391  0.7573 -0.4618 -0.6220
 2456TIP3   OH228926   5.531   4.518   1.836 -0.8184 -0.5978 -0.5064
 2456TIP3    H128927   5.543   4.424   1.830 -1.2602 -0.8360  1.4537
 2456TIP3    H228928   5.567   4.553   1.754 -0.4283 -2.4305 -1.1546
 2457TIP3   OH228929   1.365   2.606   0.184 -0.3473 -0.1869  0.0359
 2457TIP3    H128930   1.379   2.546   0.111  2.0812 -0.4566  0.6400
 2457TIP3    H228931   1.339   2.549   0.257  1.6245 -0.5474  0.5185
 2458TIP3   OH228932   5.672   2.726   7.945 -0.5901 -0.2347 -0.3732
 2458TIP3    H128933   5.659   2.727   7.850 -1.9897 -0.4235 -0.2164
 2458TIP3    H228934   5.765   2.739   7.957 -0.4688  0.3474 -1.7655
 2459TIP3   OH228935   0.472   2.859   1.919  0.1958  0.4520  0.5328
 2459TIP3    H128936   0.442   2.848   1.829  2.6242  2.5134 -0.6358
 2459TIP3    H228937   0.549   2.916   1.913  1.2880 -0.4309  3.7876
 2460TIP3   OH228938   2.160   4.491   2.081  0.5094 -0.0080 -0.5776
 2460TIP3    H128939   2.109   4.461   2.156  0.6749  0.8137 -0.1199
 2460TIP3    H228940   2.095   4.534   2.024  0.5180  0.0929 -0.5108
 2461TIP3   OH228941   3.192   1.901   7.674 -0.0466 -0.6389  0.1117
 2461TIP3    H128942   3.112   1.951   7.691  0.7761  1.0010 -0.5242
 2461TIP3    H228943   3.259   1.944   7.727  0.9283 -0.3090 -1.3216
 2462TIP3   OH228944   5.708   4.826   7.493 -0.4282  0.3461  0.3176
 2462TIP3    H128945   5.613   4.827   7.480 -0.5101  1.2975  0.9078
 2462TIP3    H228946   5.741   4.894   7.436 -0.1303  0.2332  0.3546
 2463TIP3   OH228947   1.375   5.097   7.888  0.4464 -0.3808 -0.1474
 2463TIP3    H128948   1.428   5.172   7.859 -0.0629 -0.6733 -1.8844
 2463TIP3    H228949   1.300   5.095   7.829 -0.7886 -0.8598  1.3719
 2464TIP3   OH228950   0.723   6.683   0.946  0.1429  0.1937  0.3432
 2464TIP3    H128951   0.636   6.722   0.938  0.9126  1.7881 -0.7897
 2464TIP3    H228952   0.707   6.593   0.974 -1.8757  0.3734 -0.1264
 2465TIP3   OH228953   1.201   6.662   8.664 -0.6699  0.1263 -0.1545
 2465TIP3    H128954   1.172   6.624   8.747  0.5647  2.8296  1.6647
 2465TIP3    H228955   1.293   6.686   8.680 -0.6749  1.5832 -1.9670
 2466TIP3   OH228956   1.867   1.759   2.282 -0.3489 -0.2222 -0.5148
 2466TIP3    H128957   1.819   1.813   2.345  0.4325 -0.3696  0.2341
 2466TIP3    H228958   1.860   1.807   2.200 -0.8198  0.3258 -0.1663
 2467TIP3   OH228959   1.327   1.515   1.288  0.9145 -0.0764 -0.2780
 2467TIP3    H128960   1.392   1.497   1.221  0.1975 -0.0896 -0.9790
 2467TIP3    H228961   1.276   1.588   1.254  1.9669  1.4846  1.2647
 2468TIP3   OH228962   5.909   3.538   7.262  0.2741 -0.4281  0.3685
 2468TIP3    H128963   5.815   3.521   7.260  0.2195 -0.2677 -2.0965
 2468TIP3    H228964   5.950   3.453   7.245  0.5120 -0.2636  0.1001
 2469TIP3   OH228965   2.558   3.757   7.086 -0.3397 -0.3051  0.4826
 2469TIP3    H128966   2.587   3.817   7.154 -0.3460  1.3945 -0.9268
 2469TIP3    H228967   2.618   3.682   7.093  2.0112  1.4105  0.0992
 2470TIP3   OH228968   4.441   6.148   7.486  0.2058  0.0546  0.0621
 2470TIP3    H128969   4.357   6.192   7.468 -0.6570 -0.8361  1.6545
 2470TIP3    H228970   4.459   6.098   7.406 -0.4362  0.7759 -0.5529
 2471TIP3   OH228971   1.016   4.814   2.149  0.4202  0.1395  0.0681
 2471TIP3    H128972   0.962   4.750   2.194 -0.0408  0.6565  0.2613
 2471TIP3    H228973   1.006   4.894   2.200  0.2272  0.6200 -0.7056
 2472TIP3   OH228974   5.481   6.523   2.109 -1.3721 -0.0815 -0.4383
 2472TIP3    H128975   5.567   6.553   2.140  0.0962 -2.2025 -2.1033
 2472TIP3    H228976   5.454   6.456   2.172 -1.4816  0.1297 -0.2621
 2473TIP3   OH228977   0.285   5.008   2.754 -0.1563 -0.7435  0.0997
 2473TIP3    H128978   0.291   5.085   2.811  1.4175  0.8434 -2.0424
 2473TIP3    H228979   0.201   5.019   2.709 -0.4394 -0.8833  0.5877
 2474TIP3   OH228980   3.267   0.530   1.610 -0.5705 -0.2270  0.0038
 2474TIP3    H128981   3.233   0.527   1.521 -2.3221 -0.4485  0.6584
 2474TIP3    H228982   3.274   0.438   1.636 -2.3070 -0.1392  0.8892
 2475TIP3   OH228983   3.087   3.469   1.388 -0.0579 -0.2282  0.5994
 2475TIP3    H128984   3.142   3.521   1.446  0.2753  0.1554 -0.0471
 2475TIP3    H228985   3.101   3.379   1.415  0.4243 -0.0862  0.8282
 2476TIP3   OH228986   5.417   2.915   7.958  0.0283  0.0555  0.2004
 2476TIP3    H128987   5.484   2.847   7.962 -0.1302 -0.0627  0.9290
 2476TIP3    H228988   5.370   2.898   7.876  0.7118 -0.0217 -0.1790
 2477TIP3   OH228989   3.059   6.576   1.862 -0.1816  0.7693 -0.4692
 2477TIP3    H128990   3.024   6.665   1.860 -1.0849  0.4300 -0.5398
 2477TIP3    H228991   3.021   6.537   1.941 -0.4876  0.1835 -0.8976
 2478TIP3   OH228992   6.033   2.338   8.624 -0.1056 -0.2790 -0.2254
 2478TIP3    H128993   5.958   2.280   8.606 -2.4811  2.1515  1.0449
 2478TIP3    H228994   6.009   2.421   8.583  1.8374  0.6359  0.3856
 2479TIP3   OH228995   0.897   6.840   0.070 -0.2091  0.9838  0.2756
 2479TIP3    H128996   0.962   6.829   0.139 -0.3258  1.0973  0.4041
 2479TIP3    H228997   0.852   6.756   0.066 -0.0371  0.8975  0.1704
 2480TIP3   OH228998   5.024   0.011   2.336  0.1352 -0.3627  0.3419
 2480TIP3    H128999   4.954  -0.027   2.282  1.0943  0.3424 -1.4712
 2480TIP3    H229000   5.093   0.033   2.274 -0.0331  3.7045  1.2704
 2481TIP3   OH229001   5.393   0.955   7.877  0.3255 -0.2537 -0.3439
 2481TIP3    H129002   5.310   0.965   7.924  1.2681 -0.1314  1.3662
 2481TIP3    H229003   5.383   1.011   7.800 -2.0816 -2.1340 -1.5127
 2482TIP3   OH229004   5.654   1.481   0.883  0.0150  0.0036 -0.3320
 2482TIP3    H129005   5.594   1.406   0.883  1.0718 -0.8746  0.2833
 2482TIP3    H229006   5.672   1.498   0.976  1.8759 -0.7407 -0.5069
 2483TIP3   OH229007   4.324   6.699   1.822 -0.1639 -0.5636 -0.1707
 2483TIP3    H129008   4.331   6.604   1.822  2.3597 -0.4442  0.4551
 2483TIP3    H229009   4.353   6.726   1.909  0.8168  0.8313 -0.8772
 2484TIP3   OH229010   2.903   0.804   8.254  0.1775  0.3447 -0.2306
 2484TIP3    H129011   2.853   0.725   8.275  0.3358  0.3257  0.0907
 2484TIP3    H229012   2.842   0.876   8.270 -0.3341  0.2495 -1.6147
 2485TIP3   OH229013   5.137   5.332   6.808 -0.3289 -0.1580 -0.6806
 2485TIP3    H129014   5.191   5.380   6.870 -1.6783  0.9976 -0.3472
 2485TIP3    H229015   5.070   5.395   6.781 -0.3969 -0.9645 -2.5103
 2486TIP3   OH229016   5.886   1.906   0.237  0.7681 -0.0853 -0.0904
 2486TIP3    H129017   5.874   1.812   0.247 -0.0721  0.0495  0.2157
 2486TIP3    H229018   5.927   1.916   0.151 -0.0992 -0.6619 -0.5871
 2487TIP3   OH229019   5.993   2.562   2.825 -0.4142  0.2447 -0.3320
 2487TIP3    H129020   6.065   2.611   2.785  1.5643 -1.5379  0.8287
 2487TIP3    H229021   6.005   2.472   2.793 -3.6344  0.2972 -2.0181
 2488TIP3   OH229022   1.991   3.580   7.211 -0.1404  0.0929 -1.0059
 2488TIP3    H129023   2.033   3.495   7.226 -0.2692 -0.1442 -1.9323
 2488TIP3    H229024   1.996   3.593   7.116  0.2234  1.3063 -0.8374
 2489TIP3   OH229025   6.164   3.076   8.218 -0.0577  0.3318 -0.2603
 2489TIP3    H129026   6.218   3.071   8.139 -1.1054  1.9777 -1.1134
 2489TIP3    H229027   6.167   2.987   8.254  2.8705  0.2481 -0.4754
 2490TIP3   OH229028   3.857   2.388   2.089 -0.8137 -0.3536  0.0673
 2490TIP3    H129029   3.786   2.353   2.143  0.6031 -1.1369  1.5146
 2490TIP3    H229030   3.926   2.322   2.094  0.1866  0.5725 -0.9519
 2491TIP3   OH229031   6.258   2.210   2.744 -0.2260 -0.0360  0.0189
 2491TIP3    H129032   6.335   2.183   2.795  0.2414  0.8492 -0.1956
 2491TIP3    H229033   6.201   2.133   2.744  0.0521 -0.2688  1.3298
 2492TIP3   OH229034   6.783   6.378   1.394  0.3644 -0.1244  0.5774
 2492TIP3    H129035   6.791   6.318   1.320 -0.3169 -0.2019  0.5586
 2492TIP3    H229036   6.834   6.455   1.368  0.6839 -0.4255  0.3143
 2493TIP3   OH229037   6.508   0.773   7.491  0.0540  0.1847  0.2545
 2493TIP3    H129038   6.557   0.760   7.410 -0.5374  0.0996 -0.0966
 2493TIP3    H229039   6.421   0.736   7.473  0.3127 -1.0232  1.3734
 2494TIP3   OH229040   0.690   4.949   2.484 -0.0933 -0.1831  0.1294
 2494TIP3    H129041   0.653   4.901   2.410 -4.0797  2.0437  0.3712
 2494TIP3    H229042   0.633   4.927   2.558  0.1929  1.9648  1.0838
 2495TIP3   OH229043   6.268   6.241   0.935 -0.1946 -0.8074 -0.3327
 2495TIP3    H129044   6.183   6.197   0.941  0.3732 -1.8112  1.0216
 2495TIP3    H229045   6.253   6.316   0.878 -1.8581 -1.2527 -0.5275
 2496TIP3   OH229046   0.318   2.354   7.914 -0.3060  0.0657  0.4799
 2496TIP3    H129047   0.282   2.434   7.953  0.1611  0.9687 -0.8636
 2496TIP3    H229048   0.411   2.372   7.904  0.0409 -1.1495  1.2882
 2497TIP3   OH229049   2.091   0.495   7.465 -0.0691 -0.2567  0.0877
 2497TIP3    H129050   2.085   0.492   7.561 -0.9705  1.0167  0.0829
 2497TIP3    H229051   2.111   0.586   7.445 -1.8585 -0.0732 -1.0366
 2498TIP3   OH229052   4.930   2.623   8.451  0.0587 -0.0519  0.7578
 2498TIP3    H129053   4.971   2.566   8.516 -1.9260 -0.0958  2.0244
 2498TIP3    H229054   5.004   2.667   8.408  1.4235  0.2244  3.2317
 2499TIP3   OH229055   1.087   3.198   0.029  0.3797  0.0210  0.4527
 2499TIP3    H129056   1.020   3.148  -0.018  2.9334  0.1282 -3.8669
 2499TIP3    H229057   1.075   3.288   0.000  2.1784  0.0620 -0.3055
 2500TIP3   OH229058   2.569   5.044   0.243  1.0455  0.5838  0.2870
 2500TIP3    H129059   2.594   5.095   0.319  0.9208  0.6795  0.2635
 2500TIP3    H229060   2.566   5.107   0.171  1.4435  0.4426  0.1445
 2501TIP3   OH229061   3.236   4.187   1.207  0.0727 -0.0988 -0.2016
 2501TIP3    H129062   3.213   4.276   1.232 -0.7787 -0.4295  0.1969
 2501TIP3    H229063   3.232   4.137   1.288  3.9562  0.1207  0.3439
 2502TIP3   OH229064   2.794   3.236   2.294  0.2642  0.0923  0.4960
 2502TIP3    H129065   2.720   3.221   2.352 -1.6713 -0.9248 -2.0320
 2502TIP3    H229066   2.812   3.330   2.301  0.6817 -0.1146  3.2474
 2503TIP3   OH229067   5.361   0.971   0.646  0.3281 -0.0868  0.0852
 2503TIP3    H129068   5.390   1.033   0.713  1.9081 -0.5341 -0.1461
 2503TIP3    H229069   5.266   0.983   0.642  0.5007  1.7637  0.5856
 2504TIP3   OH229070   3.462   1.287   0.886  0.0529 -0.2156 -0.5606
 2504TIP3    H129071   3.408   1.312   0.811  0.5255  1.7620 -0.3130
 2504TIP3    H229072   3.427   1.340   0.958 -0.8229 -2.5312  0.8456
 2505TIP3   OH229073   6.713   1.164   8.253 -0.6819  0.2828  0.4185
 2505TIP3    H129074   6.694   1.073   8.276 -0.9427  0.4390  0.8177
 2505TIP3    H229075   6.628   1.208   8.252 -0.5127  0.6210  0.6539
 2506TIP3   OH229076   0.503   6.615   0.564  0.2141  0.4342  0.2016
 2506TIP3    H129077   0.503   6.555   0.638  0.0518  1.2816  0.8982
 2506TIP3    H229078   0.595   6.637   0.550  0.1942  0.7147  0.5139
 2507TIP3   OH229079   0.635   3.395   1.461 -0.5024  0.2243 -0.9480
 2507TIP3    H129080   0.573   3.325   1.483 -1.6112  0.8749 -1.8760
 2507TIP3    H229081   0.717   3.349   1.440 -0.5999 -0.6439  0.4385
 2508TIP3   OH229082   3.608   6.615   1.727 -0.1032  0.2673  0.0442
 2508TIP3    H129083   3.618   6.579   1.815 -0.3591  0.4066  0.1290
 2508TIP3    H229084   3.656   6.698   1.730 -0.0370  0.2300  0.0255
 2509TIP3   OH229085   1.174   5.872   1.219 -0.2655  0.6620  0.2497
 2509TIP3    H129086   1.107   5.828   1.271  0.3597 -3.8858 -2.2374
 2509TIP3    H229087   1.124   5.918   1.151 -0.9276  0.2469  0.4381
 2510TIP3   OH229088   6.421   2.056   7.448  0.1828 -0.0240 -0.3215
 2510TIP3    H129089   6.462   1.986   7.398  0.5760  0.6415 -0.9445
 2510TIP3    H229090   6.348   2.014   7.493  0.3007 -0.7878 -0.8361
 2511TIP3   OH229091   2.157   3.981   7.459 -0.2347 -0.4262  0.5999
 2511TIP3    H129092   2.200   4.031   7.528  0.6554 -1.1971  0.6230
 2511TIP3    H229093   2.123   3.903   7.503 -0.4575 -0.4820  0.3347
 2512TIP3   OH229094   5.078   3.095   8.660  0.2703  0.0656 -0.8472
 2512TIP3    H129095   5.005   3.043   8.694  0.4129  0.7368  0.5506
 2512TIP3    H229096   5.086   3.068   8.569 -1.0304 -0.7995 -0.7312
 2513TIP3   OH229097   4.110   1.938   7.624  0.1447 -0.1962 -0.1807
 2513TIP3    H129098   4.040   1.902   7.570  0.2027  1.5220 -1.4772
 2513TIP3    H229099   4.064   1.980   7.697 -0.1287  0.1458 -0.5466
 2514TIP3   OH229100   0.302   2.470   8.426  0.4898 -0.3662  0.3583
 2514TIP3    H129101   0.269   2.383   8.404  2.2555 -1.0484  0.3035
 2514TIP3    H229102   0.326   2.509   8.342  1.0471 -0.3892  0.5049
 2515TIP3   OH229103   5.868   3.404   1.828  0.4683 -0.3801  0.1974
 2515TIP3    H129104   5.773   3.395   1.825  0.1586  1.9613  1.0998
 2515TIP3    H229105   5.888   3.419   1.921  1.1825  3.1586 -0.3789
 2516TIP3   OH229106   0.560   6.803   7.362 -0.6463 -0.7160 -0.3735
 2516TIP3    H129107   0.563   6.745   7.286 -0.8696 -0.9597 -0.1993
 2516TIP3    H229108   0.646   6.845   7.364 -0.8086 -0.3363 -1.0452
 2517TIP3   OH229109   2.857   6.168   1.087 -0.3556 -0.5001  0.1644
 2517TIP3    H129110   2.793   6.239   1.089 -0.2675 -0.4241  0.3272
 2517TIP3    H229111   2.812   6.093   1.126 -0.1066 -0.2459  0.9596
 2518TIP3   OH229112   4.797   0.742   7.951  0.1954  0.2418  0.1071
 2518TIP3    H129113   4.770   0.651   7.956  0.7092  0.0838  0.1121
 2518TIP3    H229114   4.884   0.744   7.992  0.1519  0.7460  0.1856
 2519TIP3   OH229115   1.645   5.130   7.856 -0.0456 -0.4567 -0.4322
 2519TIP3    H129116   1.645   5.193   7.784 -0.1228 -0.6619 -0.6119
 2519TIP3    H229117   1.672   5.048   7.816 -0.5099 -0.6699 -0.3120
 2520TIP3   OH229118   3.853   4.271   1.023 -0.0189  0.0582 -0.2518
 2520TIP3    H129119   3.895   4.338   0.968  2.7683 -0.6568  0.8469
 2520TIP3    H229120   3.904   4.192   1.007  0.1151 -0.4566  2.4137
 2521TIP3   OH229121   3.915   2.643   7.563 -1.0598 -1.2077  0.0940
 2521TIP3    H129122   3.929   2.571   7.625 -1.2820 -0.7238  0.7154
 2521TIP3    H229123   3.933   2.722   7.613 -0.9591 -0.8187 -0.5446
 2522TIP3   OH229124   5.481   4.965   7.261 -0.2872 -0.1173  0.7025
 2522TIP3    H129125   5.399   4.935   7.301 -0.2568  0.9444  1.6205
 2522TIP3    H229126   5.463   5.054   7.233  0.4333 -0.0166  0.5450
 2523TIP3   OH229127   1.254   0.385   7.257  0.4540 -0.0299  0.0924
 2523TIP3    H129128   1.239   0.402   7.164  0.2641 -0.4742  0.0344
 2523TIP3    H229129   1.236   0.291   7.266  2.5702 -0.4747  0.1653
 2524TIP3   OH229130   6.528   1.199   2.123  0.4382 -0.1633  0.4158
 2524TIP3    H129131   6.595   1.149   2.076 -0.5619 -1.6138  0.4679
 2524TIP3    H229132   6.473   1.236   2.053  0.0405 -0.7736  0.3989
 2525TIP3   OH229133   3.926   2.405   8.453 -0.0559 -0.2004  0.1013
 2525TIP3    H129134   4.010   2.360   8.467 -0.6150 -2.4679 -2.7757
 2525TIP3    H229135   3.951   2.491   8.418  1.0357 -0.2317  0.7408
 2526TIP3   OH229136   6.655   4.253   2.400  0.1488  0.1645  0.4356
 2526TIP3    H129137   6.574   4.216   2.434 -0.8537  0.9874 -0.9384
 2526TIP3    H229138   6.680   4.319   2.464  0.7206 -1.2926  1.7536
 2527TIP3   OH229139   0.494   1.035   7.142 -0.0715  0.0990 -0.3425
 2527TIP3    H129140   0.478   0.983   7.063  0.1593  1.9702 -1.6912
 2527TIP3    H229141   0.432   1.108   7.136 -0.4866 -0.0370  1.5641
 2528TIP3   OH229142   3.132   4.396   1.368  0.0286 -0.0567  0.7005
 2528TIP3    H129143   3.069   4.326   1.387 -0.5115  0.7847  2.0785
 2528TIP3    H229144   3.085   4.477   1.387  0.8088  0.6897 -0.4255
 2529TIP3   OH229145   1.267   6.179   7.798 -0.1313  0.1014 -0.0394
 2529TIP3    H129146   1.227   6.156   7.882 -0.0086  0.1083  0.0212
 2529TIP3    H229147   1.356   6.205   7.820 -0.0238 -0.1203 -0.1971
 2530TIP3   OH229148   3.407   0.823   1.659  0.1919 -0.2611  0.4311
 2530TIP3    H129149   3.415   0.852   1.750  0.3690 -0.3708  0.4507
 2530TIP3    H229150   3.331   0.764   1.660 -0.3812  0.4605  0.3229
 2531TIP3   OH229151   3.060   4.907   8.524  0.0129 -0.3050 -0.2036
 2531TIP3    H129152   2.993   4.956   8.572  0.1162 -0.6692  0.3327
 2531TIP3    H229153   3.016   4.825   8.500  0.0466 -0.2381 -0.4943
 2532TIP3   OH229154   5.346   5.990   0.035 -0.1241  0.2489 -0.4473
 2532TIP3    H129155   5.258   5.952   0.025  0.2198 -1.5045  2.1145
 2532TIP3    H229156   5.405   5.921   0.006  0.4434  0.5421 -0.0091
 2533TIP3   OH229157   1.372   2.265   8.454 -0.3006  0.3188 -0.3448
 2533TIP3    H129158   1.315   2.194   8.484 -1.2280  1.3854  0.4668
 2533TIP3    H229159   1.457   2.222   8.440 -0.6232 -0.7948  0.9091
 2534TIP3   OH229160   2.038   4.319   7.948  0.0226 -0.1454 -0.2836
 2534TIP3    H129161   2.038   4.236   7.901 -2.0156 -0.8820  0.8595
 2534TIP3    H229162   1.967   4.370   7.908 -2.2253 -1.0585  2.2420
 2535TIP3   OH229163   1.761   4.307   1.097 -0.4465  0.1025  0.8110
 2535TIP3    H129164   1.706   4.229   1.093 -0.1079 -0.0939 -0.6759
 2535TIP3    H229165   1.744   4.353   1.014  0.4046  0.8774  1.0446
 2536TIP3   OH229166   0.321   4.999   2.334 -0.3258 -0.3065  0.2520
 2536TIP3    H129167   0.295   5.057   2.263  0.2483  0.9622  1.0563
 2536TIP3    H229168   0.239   4.957   2.361 -0.6486 -0.3583 -0.7412
 2537TIP3   OH229169   4.067   2.650   6.976 -0.2325 -0.0595 -0.5847
 2537TIP3    H129170   4.040   2.626   6.887 -1.7152  1.0256 -0.4645
 2537TIP3    H229171   4.000   2.711   7.006  0.1207 -0.5461  1.3635
 2538TIP3   OH229172   4.056   3.114   8.552 -0.6708  0.0781  0.2199
 2538TIP3    H129173   4.132   3.056   8.547  1.3257  2.5016  0.8607
 2538TIP3    H229174   4.064   3.157   8.637 -3.2144 -0.0943  0.6441
 2539TIP3   OH229175   5.299   2.892   0.587 -0.1674  0.4956 -0.1169
 2539TIP3    H129176   5.233   2.959   0.571  0.2022  1.6241  2.5626
 2539TIP3    H229177   5.363   2.904   0.517 -2.0798  0.2227 -2.0177
 2540TIP3   OH229178   0.137   5.389   8.112  0.2920  0.1892  0.1358
 2540TIP3    H129179   0.142   5.294   8.123 -1.6133  0.1863  1.4302
 2540TIP3    H229180   0.060   5.402   8.056  0.4797  0.9820  0.0552
 2541TIP3   OH229181   5.761   3.748   1.930 -0.0500  0.2855 -0.3773
 2541TIP3    H129182   5.808   3.809   1.987  0.2093 -0.4081  0.1613
 2541TIP3    H229183   5.671   3.781   1.929 -0.6653 -1.0613  2.4371
 2542TIP3   OH229184   5.420   6.259   0.047  0.0972 -0.3669  0.2726
 2542TIP3    H129185   5.401   6.165   0.040 -2.0652  0.0453 -0.0214
 2542TIP3    H229186   5.337   6.302   0.028  0.6561  1.5985  1.9204
 2543TIP3   OH229187   4.067   0.924   0.976  0.3529 -0.0173 -0.5475
 2543TIP3    H129188   4.146   0.911   0.922  0.1125  1.6775 -1.3821
 2543TIP3    H229189   4.012   0.982   0.923 -1.1355 -0.5673  0.3582
 2544TIP3   OH229190   5.452   0.308   7.667  0.7901  0.1854  0.1807
 2544TIP3    H129191   5.389   0.255   7.717  1.5620  0.2720  1.3002
 2544TIP3    H229192   5.407   0.327   7.585 -0.3180 -0.4493  0.6037
 2545TIP3   OH229193   0.625   5.713   2.370 -0.2078 -0.3094 -0.2612
 2545TIP3    H129194   0.716   5.692   2.392  0.2925  1.6086 -0.2680
 2545TIP3    H229195   0.589   5.748   2.452 -1.4756 -2.5518  0.1993
 2546TIP3   OH229196   5.707   5.609   0.186  0.3366 -0.2542 -0.0212
 2546TIP3    H129197   5.665   5.546   0.244  0.6932 -0.2166  0.2860
 2546TIP3    H229198   5.681   5.582   0.098 -1.0222  0.2797  0.1925
 2547TIP3   OH229199   3.853   5.531   0.897  0.0829  0.3036  0.0907
 2547TIP3    H129200   3.797   5.606   0.881 -0.9838 -0.7266 -1.3262
 2547TIP3    H229201   3.909   5.526   0.819 -0.4130 -0.8126 -0.2130
 2548TIP3   OH229202   1.317   0.060   7.906  0.1499 -0.3330  0.3652
 2548TIP3    H129203   1.317   0.088   7.997 -1.5233 -1.4288  0.7454
 2548TIP3    H229204   1.397   0.097   7.869  0.0617  1.4869  1.8478
 2549TIP3   OH229205   3.652   3.033   0.860  0.1843  0.3363  0.5362
 2549TIP3    H129206   3.576   2.979   0.841  1.3990 -1.0548 -0.5889
 2549TIP3    H229207   3.639   3.113   0.809  0.8906 -1.1758 -2.1588
 2550TIP3   OH229208   3.513   5.752   2.046 -1.1143  0.5435 -0.1612
 2550TIP3    H129209   3.587   5.724   2.099  0.3986 -1.6046 -3.1079
 2550TIP3    H229210   3.521   5.847   2.041 -0.3522  0.6400  1.9766
 2551TIP3   OH229211   4.319   0.424   2.173  0.4820 -0.3955 -0.4120
 2551TIP3    H129212   4.390   0.371   2.136  0.8867  0.3818 -0.7570
 2551TIP3    H229213   4.295   0.484   2.103  2.9626  2.8434  1.2599
 2552TIP3   OH229214   1.274   4.833   8.696 -0.3695 -0.3685 -0.5601
 2552TIP3    H129215   1.182   4.834   8.724  0.0217  0.3203  0.7586
 2552TIP3    H229216   1.323   4.813   8.775  0.7107  0.5606 -0.9734
 2553TIP3   OH229217   2.351   5.853   1.229  0.4633  0.1486  0.2627
 2553TIP3    H129218   2.288   5.826   1.295 -0.4816  0.7903 -0.3481
 2553TIP3    H229219   2.389   5.934   1.263 -1.0563  1.2639 -0.5767
 2554TIP3   OH229220   5.853   3.257   6.946  0.0427  0.2523  0.6611
 2554TIP3    H129221   5.818   3.343   6.925  1.3613  1.3748  2.6820
 2554TIP3    H229222   5.787   3.217   7.003 -1.0415 -0.5467 -1.0984
 2555TIP3   OH229223   0.920   0.362   1.044 -0.1295  0.2952 -0.1503
 2555TIP3    H129224   0.968   0.442   1.065  0.5170  0.2007 -1.1956
 2555TIP3    H229225   0.885   0.332   1.128  0.8126  0.8968  0.4757
 2556TIP3   OH229226   1.744   2.051   7.770  0.6748 -0.7250 -0.5217
 2556TIP3    H129227   1.671   2.107   7.797 -0.8301 -2.3814 -0.9158
 2556TIP3    H229228   1.818   2.110   7.762 -0.0308  0.6828  2.1157
 2557TIP3   OH229229   3.202   2.375   0.591  0.2322  0.0960  0.2478
 2557TIP3    H129230   3.264   2.309   0.620  2.5075  1.2078 -1.6565
 2557TIP3    H229231   3.200   2.440   0.662 -0.0371 -0.7490  1.0228
 2558TIP3   OH229232   6.082   6.006   1.112  0.0523  0.1346  0.1665
 2558TIP3    H129233   6.154   5.945   1.131 -1.1050 -1.5433 -0.6146
 2558TIP3    H229234   6.006   5.950   1.098 -1.3312  1.8399  0.4960
 2559TIP3   OH229235   2.474   4.064   2.085  0.5116 -0.2443 -0.0364
 2559TIP3    H129236   2.449   4.035   2.173  2.0990 -0.5718  0.3464
 2559TIP3    H229237   2.396   4.106   2.050 -0.1145  0.0182  1.5915
 2560TIP3   OH229238   1.733   5.583   1.810 -0.3034 -0.1589  0.1703
 2560TIP3    H129239   1.646   5.550   1.786 -0.2377  1.4006 -2.5894
 2560TIP3    H229240   1.794   5.516   1.780 -0.4578 -0.6211  0.8611
 2561TIP3   OH229241   6.755   0.330   6.880  0.1036  0.2128  0.5439
 2561TIP3    H129242   6.741   0.424   6.875 -1.2004  0.0488  0.8215
 2561TIP3    H229243   6.668   0.292   6.889  0.6443 -0.9822  1.1270
 2562TIP3   OH229244   1.741   3.755   1.156  0.3950  0.2882 -0.2820
 2562TIP3    H129245   1.793   3.702   1.096  0.7206  0.7189 -0.3862
 2562TIP3    H229246   1.680   3.693   1.196  1.0487 -0.2449 -0.0898
 2563TIP3   OH229247   0.801   5.127   8.253  0.2362 -0.3250 -0.4446
 2563TIP3    H129248   0.884   5.079   8.249  0.6957  0.2901  1.1169
 2563TIP3    H229249   0.739   5.063   8.287  1.0176  0.3058  2.3910
 2564TIP3   OH229250   1.938   4.556   7.823 -0.5826  0.2426  0.0135
 2564TIP3    H129251   1.992   4.631   7.848 -0.7673  0.0859  0.9072
 2564TIP3    H229252   1.953   4.547   7.729  1.0175  0.1521  0.2441
 2565TIP3   OH229253   0.889   6.428   1.726 -0.2708 -0.2291  0.3476
 2565TIP3    H129254   0.955   6.440   1.658  1.2606  0.6491  1.8883
 2565TIP3    H229255   0.883   6.334   1.738 -0.9962 -0.4378 -1.3476
 2566TIP3   OH229256   1.840   2.134   6.585 -0.3430  0.0697 -0.3561
 2566TIP3    H129257   1.933   2.155   6.597 -0.4112  0.9007 -1.1074
 2566TIP3    H229258   1.820   2.165   6.496 -1.7938  1.6850  0.4646
 2567TIP3   OH229259   2.686   3.596   2.919  0.8856  0.0673 -0.2534
 2567TIP3    H129260   2.610   3.619   2.865  0.1535  1.8317  1.4258
 2567TIP3    H229261   2.705   3.505   2.895 -1.7828 -0.4547 -0.6990
 2568TIP3   OH229262   3.215   6.368   0.643 -0.6230 -0.7160 -0.5857
 2568TIP3    H129263   3.207   6.280   0.681 -2.0177  0.0109  0.9005
 2568TIP3    H229264   3.180   6.358   0.554 -1.0779 -1.6099 -0.3261
 2569TIP3   OH229265   0.573   1.108   8.408  0.2580 -0.6557  0.0116
 2569TIP3    H129266   0.546   1.017   8.405  0.5540 -0.7740  0.7320
 2569TIP3    H229267   0.629   1.119   8.331 -0.2876 -0.9091 -0.4269
 2570TIP3   OH229268   4.935   2.967   1.274  0.4865 -0.7328 -0.3103
 2570TIP3    H129269   4.882   2.923   1.207  0.8819  0.5520 -1.5229
 2570TIP3    H229270   4.977   2.896   1.321  0.1113 -1.6951 -1.3572
 2571TIP3   OH229271   0.129   4.146   8.456 -0.5540 -0.1496  0.3091
 2571TIP3    H129272   0.105   4.222   8.508 -1.6066 -0.8461  0.8625
 2571TIP3    H229273   0.170   4.183   8.378  1.8368  0.9004  1.9426
 2572TIP3   OH229274   4.088   6.471   7.611  0.0055  0.6578  0.5544
 2572TIP3    H129275   4.000   6.509   7.616  0.9924  3.0819  1.6465
 2572TIP3    H229276   4.084   6.393   7.666 -1.5666  0.4961  0.2390
 2573TIP3   OH229277   4.072   2.980   2.381 -0.3246  0.3021  0.5957
 2573TIP3    H129278   4.004   3.001   2.445 -0.7353  1.1523 -0.0934
 2573TIP3    H229279   4.034   3.005   2.297  0.2197 -0.7565  0.0127
 2574TIP3   OH229280   2.263   0.831   0.492 -0.2574 -0.1200  0.3273
 2574TIP3    H129281   2.209   0.752   0.500 -0.3077  0.0593  2.3348
 2574TIP3    H229282   2.341   0.812   0.544  0.3225  0.6926 -0.2234
 2575TIP3   OH229283   1.921   5.229   2.383  0.4044 -0.0539  0.1935
 2575TIP3    H129284   1.883   5.294   2.441  0.1178 -0.1697  0.1344
 2575TIP3    H229285   1.847   5.178   2.351  0.3718  0.9324 -1.4224
 2576TIP3   OH229286   5.869   4.595   1.294  0.5548 -0.8035  0.3149
 2576TIP3    H129287   5.816   4.674   1.304  2.3412  0.3589  0.9948
 2576TIP3    H229288   5.869   4.555   1.381 -0.3839 -1.6065 -0.0382
 2577TIP3   OH229289   3.118   0.404   0.361  0.5661 -0.3479 -0.0316
 2577TIP3    H129290   3.066   0.429   0.285  1.5385 -1.1925 -0.9936
 2577TIP3    H229291   3.178   0.337   0.329  2.3394  0.6560  0.9894
 2578TIP3   OH229292   0.164   3.137   7.434  0.3151 -0.1786  0.0094
 2578TIP3    H129293   0.258   3.125   7.443  0.0026 -1.6410  1.8326
 2578TIP3    H229294   0.150   3.143   7.339  1.9260 -3.0539 -0.5223
 2579TIP3   OH229295   5.260   5.356   1.405  0.1381 -0.1507  0.0179
 2579TIP3    H129296   5.182   5.363   1.460 -0.7875 -1.2983 -1.0790
 2579TIP3    H229297   5.319   5.423   1.439 -1.2347  0.6207  1.0202
 2580TIP3   OH229298   4.856   3.848   6.496 -0.0736  0.5204  0.8701
 2580TIP3    H129299   4.893   3.796   6.425 -1.2099 -0.3195  0.8778
 2580TIP3    H229300   4.892   3.808   6.576  0.3158  0.7637  0.8204
 2581TIP3   OH229301   4.163   0.884   1.628  0.0221 -0.3511  0.1706
 2581TIP3    H129302   4.156   0.924   1.715 -0.3300  1.6027 -0.7009
 2581TIP3    H229303   4.151   0.790   1.643 -0.0172 -0.0533  2.2183
 2582TIP3   OH229304   1.296   1.629   1.588 -0.0223  0.0988 -0.1188
 2582TIP3    H129305   1.287   1.648   1.495  1.1570 -0.5107 -0.3819
 2582TIP3    H229306   1.387   1.650   1.608  0.4226 -1.9926  0.3202
 2583TIP3   OH229307   0.707   4.068   7.472  0.1097  0.2632 -0.0398
 2583TIP3    H129308   0.651   4.113   7.534 -0.2845 -0.0814 -0.1393
 2583TIP3    H229309   0.650   4.048   7.398  0.1204 -0.9024  0.2412
 2584TIP3   OH229310   0.549   5.045   0.797  0.1670 -0.4904  0.5109
 2584TIP3    H129311   0.506   4.974   0.845 -0.2477 -1.6709 -1.5023
 2584TIP3    H229312   0.601   5.000   0.730 -0.3143  1.1123 -0.9820
 2585TIP3   OH229313   2.673   4.969   1.328  0.1145  0.0449 -0.2377
 2585TIP3    H129314   2.589   4.939   1.362  0.1087 -1.7744 -1.6756
 2585TIP3    H229315   2.738   4.918   1.375  0.1152 -2.2988 -2.5331
 2586TIP3   OH229316   5.866   5.435   7.383 -0.2091  0.3036  0.1481
 2586TIP3    H129317   5.950   5.450   7.426 -1.2310  0.9293  2.0361
 2586TIP3    H229318   5.855   5.512   7.326  0.5311  0.1626 -0.1946
 2587TIP3   OH229319   0.685   6.577   1.413  0.1810 -1.0277  0.2729
 2587TIP3    H129320   0.672   6.489   1.447  1.1107 -0.7309  1.4756
 2587TIP3    H229321   0.776   6.578   1.384  0.7076 -0.0092  1.8197
 2588TIP3   OH229322   3.480   4.091   0.881 -0.2487 -0.0503 -0.1304
 2588TIP3    H129323   3.571   4.068   0.896 -0.1598  0.1025 -0.4340
 2588TIP3    H229324   3.430   4.023   0.927  0.0054  0.6034  1.1850
 2589TIP3   OH229325   6.226   3.555   8.123 -0.2910  0.1525 -0.3143
 2589TIP3    H129326   6.163   3.542   8.052  0.2645 -1.0265 -0.6155
 2589TIP3    H229327   6.182   3.519   8.200 -0.3053  0.0579 -0.3657
 2590TIP3   OH229328   2.631   0.409   6.691 -0.1470  0.1104 -0.3260
 2590TIP3    H129329   2.698   0.464   6.732 -0.0411  1.0464 -1.6722
 2590TIP3    H229330   2.582   0.470   6.635 -2.5726 -0.3991  1.0968
 2591TIP3   OH229331   2.213   6.837   8.372  0.3206  0.4893  0.2153
 2591TIP3    H129332   2.175   6.766   8.321  0.2605 -0.1137  1.0887
 2591TIP3    H229333   2.267   6.885   8.309  0.2921 -0.2719 -0.3994
 2592TIP3   OH229334   0.272   4.610   0.010  0.0714  0.3744  0.1440
 2592TIP3    H129335   0.352   4.610   0.062  0.1987  0.6260 -0.0473
 2592TIP3    H229336   0.294   4.559  -0.068 -0.0108  0.2880  0.1776
 2593TIP3   OH229337   3.834   1.877   0.711  0.3017 -0.2789 -0.5517
 2593TIP3    H129338   3.894   1.879   0.636 -1.0669  1.9487 -1.7017
 2593TIP3    H229339   3.817   1.784   0.725  2.1613 -0.8407 -1.7040
 2594TIP3   OH229340   5.403   4.637   2.388  0.2476 -0.3140 -0.7168
 2594TIP3    H129341   5.470   4.705   2.391  0.9020 -0.9011 -1.3788
 2594TIP3    H229342   5.376   4.635   2.296 -1.7357  0.8862 -0.2033
 2595TIP3   OH229343   3.763   0.781   0.848  0.6151  0.5773  0.0217
 2595TIP3    H129344   3.801   0.858   0.891  1.0824 -0.3243  1.3120
 2595TIP3    H229345   3.693   0.753   0.907 -1.8359  1.9233 -2.0869
 2596TIP3   OH229346   3.364   0.509   0.133  0.1328 -0.0448  0.9767
 2596TIP3    H129347   3.348   0.574   0.203  0.0973  1.0875 -0.0477
 2596TIP3    H229348   3.448   0.535   0.096 -0.6473  0.4466 -0.5287
 2597TIP3   OH229349   2.002   0.855   0.208  0.5724 -0.5460 -0.8393
 2597TIP3    H129350   1.980   0.944   0.179  1.7243  0.3511  0.8222
 2597TIP3    H229351   2.089   0.864   0.248  0.2426 -2.1950  0.3727
 2598TIP3   OH229352   6.739   3.516   1.652  0.3343  0.2625 -0.3460
 2598TIP3    H129353   6.776   3.601   1.628  0.3718  0.1056 -0.8760
 2598TIP3    H229354   6.645   3.532   1.662  0.4099  0.4651  0.0445
 2599TIP3   OH229355   6.196   0.685   8.379  0.0570 -0.2044  0.4854
 2599TIP3    H129356   6.180   0.624   8.307 -1.3463  0.5797  0.0808
 2599TIP3    H229357   6.237   0.632   8.447  1.2768 -0.9913 -0.8228
 2600TIP3   OH229358   0.627   2.689   0.103 -0.0952  0.0901  0.5103
 2600TIP3    H129359   0.692   2.644   0.049 -0.1975  0.7421 -0.1747
 2600TIP3    H229360   0.640   2.654   0.191  0.0858 -0.9784  0.0727
 2601TIP3   OH229361   4.627   0.880   8.518  0.4929 -0.1358 -0.3386
 2601TIP3    H129362   4.602   0.830   8.596  0.5036  0.7206  0.2305
 2601TIP3    H229363   4.544   0.912   8.483  0.3534 -1.6641 -1.5012
 2602TIP3   OH229364   2.053   3.379   1.101  0.1461 -0.0207 -0.0964
 2602TIP3    H129365   1.995   3.394   1.175 -0.0281  0.3236 -0.2987
 2602TIP3    H229366   2.140   3.404   1.133 -0.4374  4.1961 -1.1640
 2603TIP3   OH229367   1.901   3.369   1.329 -0.1550  0.0608  0.3113
 2603TIP3    H129368   1.869   3.281   1.309 -1.1952  0.4777  0.0470
 2603TIP3    H229369   1.825   3.413   1.369 -0.1921  1.3441 -1.0546
 2604TIP3   OH229370   5.506   0.429   8.251 -0.1204 -0.2370 -0.5191
 2604TIP3    H129371   5.484   0.430   8.158 -2.5314  0.0300 -0.0076
 2604TIP3    H229372   5.528   0.519   8.271 -5.9976  1.4470  0.3646
 2605TIP3   OH229373   1.599   6.666   2.063 -0.2451  0.1320  0.0686
 2605TIP3    H129374   1.609   6.750   2.018  0.3936 -0.2577 -0.5402
 2605TIP3    H229375   1.686   6.626   2.058 -0.8623 -1.1451 -0.7965
 2606TIP3   OH229376   4.472   6.485   2.161  0.2868  0.0858  0.2430
 2606TIP3    H129377   4.401   6.458   2.102  1.2135 -2.1343  0.0540
 2606TIP3    H229378   4.537   6.526   2.104 -0.6381  1.8793  0.3817
 2607TIP3   OH229379   2.422   5.245   1.109 -0.1458 -0.1643 -0.1382
 2607TIP3    H129380   2.403   5.225   1.201  2.6708  0.7296  0.7591
 2607TIP3    H229381   2.361   5.316   1.087 -1.0019 -0.5209  0.9585
 2608TIP3   OH229382   3.186   2.509   2.007  0.5732  0.5354  0.3413
 2608TIP3    H129383   3.224   2.424   1.984 -1.2602 -0.8120  1.9557
 2608TIP3    H229384   3.178   2.556   1.924 -1.8718 -2.3791 -1.2450
 2609TIP3   OH229385   5.394   6.546   7.299  0.7504  0.1437 -0.0675
 2609TIP3    H129386   5.301   6.558   7.317  0.0522 -1.2366 -2.3061
 2609TIP3    H229387   5.425   6.634   7.275 -0.4188  0.3493 -0.9343
 2610TIP3   OH229388   2.573   4.537   1.491 -0.1511  0.2451  0.4742
 2610TIP3    H129389   2.659   4.509   1.525  0.6984  0.7198 -1.1686
 2610TIP3    H229390   2.556   4.620   1.534  1.1663  1.1090 -0.5695
 2611TIP3   OH229391   0.740   4.621   7.959 -0.0433 -0.0654 -0.5751
 2611TIP3    H129392   0.816   4.564   7.950 -0.2689 -0.2386 -1.5339
 2611TIP3    H229393   0.738   4.672   7.879 -0.5316  0.4480 -0.2467
 2612TIP3   OH229394   2.513   6.133   0.802 -0.4285 -0.2124  0.4278
 2612TIP3    H129395   2.471   6.219   0.802  1.0392  0.5372  1.4289
 2612TIP3    H229396   2.536   6.118   0.894 -0.9536 -1.8379  0.3247
 2613TIP3   OH229397   4.323   6.222   7.104 -0.0255 -0.0563  0.0795
 2613TIP3    H129398   4.383   6.191   7.037 -0.3659 -0.7989  0.1003
 2613TIP3    H229399   4.332   6.158   7.176 -0.3636  0.1845  0.3403
 2614TIP3   OH229400   0.260   3.743   0.019 -1.2149 -0.1775  0.0526
 2614TIP3    H129401   0.185   3.686   0.035 -0.6674 -1.2004 -0.8529
 2614TIP3    H229402   0.328   3.684  -0.015 -1.1628  1.2222 -2.5332
 2615TIP3   OH229403   6.472   5.156   7.077 -0.6248  0.4466  0.1304
 2615TIP3    H129404   6.390   5.130   7.035 -0.3172 -0.9778  0.3589
 2615TIP3    H229405   6.540   5.108   7.029 -0.2271 -0.9893  1.9993
 2616TIP3   OH229406   4.872   4.171   0.244  0.0035  0.6138  0.3327
 2616TIP3    H129407   4.919   4.146   0.164  1.7554 -0.0662  1.5267
 2616TIP3    H229408   4.866   4.091   0.295 -0.4210  1.1984  1.2246
 2617TIP3   OH229409   4.569   1.724   8.678 -0.4065  0.5651  0.1714
 2617TIP3    H129410   4.600   1.677   8.756  1.1887  1.0865 -0.1074
 2617TIP3    H229411   4.476   1.736   8.693 -1.0356 -3.0586  0.0421
 2618TIP3   OH229412   4.878   1.549   1.331  0.1177  0.2670  0.1530
 2618TIP3    H129413   4.792   1.553   1.288 -0.1334  0.1436  0.6460
 2618TIP3    H229414   4.938   1.589   1.267 -0.4083  0.9453  0.0725
 2619TIP3   OH229415   0.700   2.620   6.364  0.5997 -0.0930 -0.1170
 2619TIP3    H129416   0.757   2.595   6.436  3.1226 -0.1315 -1.9956
 2619TIP3    H229417   0.731   2.706   6.336 -0.6973  0.1810 -0.8151
 2620TIP3   OH229418   2.784   6.535   7.256 -0.1340 -0.5873  0.1293
 2620TIP3    H129419   2.698   6.496   7.240  0.3122 -2.1571  1.2606
 2620TIP3    H229420   2.767   6.626   7.276 -1.5457 -0.8888  0.3838
 2621TIP3   OH229421   6.149   1.883   8.116  0.2439 -0.5017  0.4645
 2621TIP3    H129422   6.083   1.816   8.096  2.3983 -2.5064 -0.4301
 2621TIP3    H229423   6.169   1.922   8.031  2.3158 -2.0562  0.1812
 2622TIP3   OH229424   2.567   6.036   1.926  0.0241  0.2711  0.3770
 2622TIP3    H129425   2.555   5.974   1.998 -0.1528  1.0149  1.0063
 2622TIP3    H229426   2.660   6.056   1.926 -0.2252  1.6916  1.6528
 2623TIP3   OH229427   0.151   3.665   1.908 -0.3190 -0.3549 -0.4173
 2623TIP3    H129428   0.244   3.661   1.930 -0.5373  0.0352  0.6099
 2623TIP3    H229429   0.114   3.585   1.945 -0.2066 -1.1363 -1.8852
 2624TIP3   OH229430   3.545   0.433   7.843  0.4058  0.2683 -0.3774
 2624TIP3    H129431   3.527   0.432   7.749  2.2617  0.3115 -0.7690
 2624TIP3    H229432   3.638   0.456   7.850  0.3613  0.0631  1.4626
 2625TIP3   OH229433   4.756   0.690   2.533  0.2014 -0.9721 -0.1431
 2625TIP3    H129434   4.751   0.652   2.621 -2.2859  0.5917  0.5163
 2625TIP3    H229435   4.666   0.685   2.500  0.9636 -0.9421 -2.3693
 2626TIP3   OH229436   0.874   4.165   6.723 -0.6226  0.3542  0.4096
 2626TIP3    H129437   0.789   4.186   6.761 -0.7105 -0.3827  0.6315
 2626TIP3    H229438   0.868   4.073   6.698 -0.3945  0.6939 -0.9562
 2627TIP3   OH229439   6.080   0.023   1.318  0.4223 -0.1024 -0.0650
 2627TIP3    H129440   6.142   0.067   1.375  2.0033 -0.3446 -1.5137
 2627TIP3    H229441   6.132  -0.041   1.269 -1.1801 -1.1597 -0.5036
 2628TIP3   OH229442   2.866   2.828   1.516  0.0610 -0.1011  0.4779
 2628TIP3    H129443   2.954   2.862   1.527  0.0721  0.3099 -0.7120
 2628TIP3    H229444   2.862   2.800   1.424 -1.3782  0.9493  0.1721
 2629TIP3   OH229445   3.060   6.311   0.939 -0.0844 -0.0647 -0.3785
 2629TIP3    H129446   2.993   6.242   0.943  0.1884 -0.3422 -0.5516
 2629TIP3    H229447   3.036   6.362   0.861 -2.2163  2.0580  1.4994
 2630TIP3   OH229448   3.468   2.202   6.843 -0.2735 -0.3876  0.3261
 2630TIP3    H129449   3.511   2.287   6.855  1.4619 -0.9808 -1.1523
 2630TIP3    H229450   3.376   2.224   6.830  0.2407  1.3684 -0.7349
 2631TIP3   OH229451   3.593   1.470   8.257 -0.6652 -0.2374  0.5864
 2631TIP3    H129452   3.568   1.540   8.196  0.3413  0.7694  1.2818
 2631TIP3    H229453   3.598   1.514   8.342  2.2963 -0.5780  0.6845
 2632TIP3   OH229454   1.344   1.076   7.308 -0.7336  0.4649 -0.0529
 2632TIP3    H129455   1.366   1.132   7.233 -2.3573  0.9618 -0.1967
 2632TIP3    H229456   1.248   1.082   7.315 -0.8258 -1.2990  0.7190
 2633TIP3   OH229457   2.638   6.250   8.110 -0.3326  0.1580  0.2237
 2633TIP3    H129458   2.674   6.213   8.191  0.8485 -1.9478 -1.1976
 2633TIP3    H229459   2.544   6.233   8.116 -0.2484 -0.0813  1.0771
 2634TIP3   OH229460   3.889   1.850   2.054 -0.4967  0.0978 -0.3193
 2634TIP3    H129461   3.835   1.915   2.098  0.2911 -0.1281  1.0240
 2634TIP3    H229462   3.939   1.808   2.124 -0.8776 -1.8723 -1.1545
 2635TIP3   OH229463   5.361   5.933   7.064  0.3045 -0.2587 -0.2382
 2635TIP3    H129464   5.319   5.885   6.993 -1.3122  1.5416 -0.5669
 2635TIP3    H229465   5.333   5.888   7.143 -0.2280 -0.5605 -0.5926
 2636TIP3   OH229466   5.410   0.055   8.394 -0.1281 -0.0307 -0.0708
 2636TIP3    H129467   5.441   0.018   8.311  0.6280 -0.4638  0.3936
 2636TIP3    H229468   5.371  -0.019   8.441 -0.0078  0.0837  0.2122
 2637TIP3   OH229469   1.618   6.046   7.237  0.5198  0.5981 -0.1016
 2637TIP3    H129470   1.560   6.115   7.205  0.1997  0.3938  0.0426
 2637TIP3    H229471   1.626   5.985   7.163  1.2684  1.0823 -0.4340
 2638TIP3   OH229472   5.879   3.523   8.335 -0.1296 -0.0032 -0.6051
 2638TIP3    H129473   5.893   3.429   8.340 -1.2108 -0.2545 -1.6637
 2638TIP3    H229474   5.945   3.561   8.392  0.2472 -1.4086 -0.0738
 2639TIP3   OH229475   0.524   4.433   7.154  0.3418  0.7845 -0.2357
 2639TIP3    H129476   0.475   4.357   7.122 -0.1575  0.3894  1.3565
 2639TIP3    H229477   0.578   4.398   7.226 -1.1047  2.1823  1.6241
 2640TIP3   OH229478   2.654   0.747   0.939 -0.3695 -0.1729  0.2285
 2640TIP3    H129479   2.733   0.784   0.978 -0.6168 -0.2440  0.8117
 2640TIP3    H229480   2.681   0.719   0.852  0.1320  0.2247  0.2517
 2641TIP3   OH229481   2.038   2.716   0.873  0.4931  0.0367  0.1140
 2641TIP3    H129482   1.951   2.677   0.858 -0.0821  1.3414 -0.1386
 2641TIP3    H229483   2.081   2.657   0.934 -0.5439 -0.6872  0.1708
 2642TIP3   OH229484   1.155   5.550   7.879  0.0076  0.3470 -0.9060
 2642TIP3    H129485   1.154   5.595   7.963  2.1379  1.2178 -1.2614
 2642TIP3    H229486   1.144   5.457   7.900  4.1483  0.0265  0.8591
 2643TIP3   OH229487   0.772   6.204   8.591  0.0863 -0.4320  0.3200
 2643TIP3    H129488   0.716   6.280   8.604  0.1796  0.1245 -2.0316
 2643TIP3    H229489   0.715   6.129   8.605 -0.7925  0.1127 -0.2731
 2644TIP3   OH229490   4.387   1.326   0.184 -0.2026 -0.2232  0.6769
 2644TIP3    H129491   4.394   1.378   0.104 -2.4130 -1.8414 -0.6894
 2644TIP3    H229492   4.410   1.237   0.156 -1.3404 -0.8761  1.7372
 2645TIP3   OH229493   3.823   2.317   0.280 -0.0693 -0.2397 -0.4010
 2645TIP3    H129494   3.840   2.394   0.336  0.5993  0.1915 -1.1778
 2645TIP3    H229495   3.728   2.311   0.276 -0.1268 -0.0653  0.5017
 2646TIP3   OH229496   1.568   5.867   8.372 -0.5947 -0.1128 -0.5309
 2646TIP3    H129497   1.545   5.791   8.318  2.5969 -0.6685 -1.3412
 2646TIP3    H229498   1.547   5.942   8.317  0.5044 -0.6144 -1.7062
 2647TIP3   OH229499   4.441   3.544   7.551 -0.1715  0.1492  0.0236
 2647TIP3    H129500   4.417   3.554   7.643  0.1562 -1.2809  0.2989
 2647TIP3    H229501   4.426   3.630   7.512 -0.4284  0.7462  1.3860
 2648TIP3   OH229502   6.382   5.761   6.904  0.6321  0.5060  0.2113
 2648TIP3    H129503   6.393   5.743   6.810 -1.5163 -0.3587  0.0617
 2648TIP3    H229504   6.354   5.852   6.908 -0.0010  0.3308 -0.0695
 2649TIP3   OH229505   3.295   2.890   8.658 -0.6508 -0.4162 -0.0819
 2649TIP3    H129506   3.222   2.869   8.600  0.3748 -2.4550 -0.7119
 2649TIP3    H229507   3.368   2.838   8.625  1.1883  1.7038  0.3982
 2650TIP3   OH229508   0.113   1.896   0.379 -0.1052 -0.2765 -0.2360
 2650TIP3    H129509   0.186   1.958   0.370  0.2920 -0.9108 -1.7041
 2650TIP3    H229510   0.042   1.935   0.329 -0.2634 -0.3934 -0.1020
 2651TIP3   OH229511   4.522   3.261   0.623 -0.5611 -0.4240 -0.0271
 2651TIP3    H129512   4.587   3.217   0.569 -2.3981 -3.1614 -0.2758
 2651TIP3    H229513   4.552   3.248   0.713 -0.2446 -0.8084 -0.1852
 2652TIP3   OH229514   2.479   4.296   3.127 -0.1423  0.0767 -0.0457
 2652TIP3    H129515   2.409   4.266   3.186 -0.9627  0.1007 -0.9819
 2652TIP3    H229516   2.478   4.234   3.054 -0.1086  0.8694 -0.7366
 2653TIP3   OH229517   5.613   6.500   0.544  0.1404  0.4146  0.0329
 2653TIP3    H129518   5.627   6.594   0.536  0.4721  0.2608 -1.6127
 2653TIP3    H229519   5.598   6.470   0.454 -0.7675 -0.9873  0.6035
 2654TIP3   OH229520   5.072   4.942   8.683  0.0573 -0.0995  0.0256
 2654TIP3    H129521   5.130   4.866   8.689  0.3274  0.0792 -0.3787
 2654TIP3    H229522   5.044   4.944   8.592 -3.0104 -2.0049  0.7392
 2655TIP3   OH229523   3.244   3.748   1.880  0.0992 -0.6175  0.0267
 2655TIP3    H129524   3.271   3.733   1.971  0.8099  0.6445  0.0599
 2655TIP3    H229525   3.322   3.785   1.839 -0.6406  0.1233 -0.7375
 2656TIP3   OH229526   5.467   1.270   0.597 -0.4148  0.1318 -0.6904
 2656TIP3    H129527   5.468   1.346   0.655  1.4078 -0.2441 -0.1684
 2656TIP3    H229528   5.387   1.280   0.545 -1.3589  1.2353  0.8849
 2657TIP3   OH229529   6.700   6.000   0.296 -0.1340 -0.1731  0.1952
 2657TIP3    H129530   6.637   6.063   0.333 -0.9021 -0.7084 -0.1750
 2657TIP3    H229531   6.770   6.055   0.262 -0.8384  0.5022 -0.2089
 2658TIP3   OH229532   5.861   1.215   0.143 -0.2523 -0.1199  0.1164
 2658TIP3    H129533   5.917   1.138   0.151 -0.4982 -0.2287  0.8096
 2658TIP3    H229534   5.794   1.204   0.210 -1.0975  0.0262 -0.6699
 2659TIP3   OH229535   0.662   3.215   2.122 -0.5381 -0.7511 -0.2647
 2659TIP3    H129536   0.697   3.136   2.083  2.9954 -0.4355  1.8432
 2659TIP3    H229537   0.672   3.202   2.217  0.0151  2.0576  0.1564
 2660TIP3   OH229538   0.739   6.259   6.533 -0.0269  0.5510 -0.3264
 2660TIP3    H129539   0.748   6.164   6.529  1.3861  0.6140  0.4792
 2660TIP3    H229540   0.829   6.291   6.524 -0.6899  1.9450 -3.1993
 2661TIP3   OH229541   3.023   6.307   1.261  0.6188 -0.3620  0.2104
 2661TIP3    H129542   2.930   6.296   1.281  0.5832 -0.8677 -0.2310
 2661TIP3    H229543   3.026   6.338   1.171  0.7334  2.9771  1.2038
 2662TIP3   OH229544   4.378   4.095   7.949  0.3236  0.6378 -0.4715
 2662TIP3    H129545   4.427   4.143   8.016  0.7299 -0.0382 -0.2771
 2662TIP3    H229546   4.365   4.008   7.986 -0.6188  0.6576 -0.7208
 2663TIP3   OH229547   0.962   1.727   1.582 -0.4870  0.1194 -0.7525
 2663TIP3    H129548   1.054   1.707   1.569  0.0126  2.2888 -0.9593
 2663TIP3    H229549   0.942   1.692   1.669  1.2766  1.7899  0.4226
 2664TIP3   OH229550   3.449   5.723   0.404  0.4370  0.3041  0.1798
 2664TIP3    H129551   3.430   5.742   0.313 -0.2907  0.1605  0.2867
 2664TIP3    H229552   3.392   5.782   0.454 -0.3212 -0.6721  0.5171
 2665TIP3   OH229553   6.057   0.217   0.558 -0.7645 -0.5147  0.8203
 2665TIP3    H129554   5.969   0.197   0.592 -1.3935 -0.5979 -0.7513
 2665TIP3    H229555   6.067   0.311   0.572 -1.9730 -0.1055 -0.7891
 2666TIP3   OH229556   5.876   4.473   1.527  0.2447 -0.7837 -0.2035
 2666TIP3    H129557   5.916   4.393   1.561  0.5299 -0.2261  0.8237
 2666TIP3    H229558   5.908   4.542   1.584 -1.3096 -0.1519 -0.0276
 2667TIP3   OH229559   4.832   2.552   7.165 -0.2333  0.2519  0.9201
 2667TIP3    H129560   4.912   2.557   7.217  0.2904  0.5764  0.1077
 2667TIP3    H229561   4.858   2.582   7.078 -0.7830 -1.4964  0.1139
 2668TIP3   OH229562   0.914   5.910   7.804 -1.1184  0.0577 -0.3347
 2668TIP3    H129563   0.901   5.842   7.870  0.2011 -0.6140 -0.7244
 2668TIP3    H229564   1.009   5.913   7.791 -1.2753  0.8622 -1.4906
 2669TIP3   OH229565   2.005   3.806   0.173 -0.1357 -0.3480  0.7195
 2669TIP3    H129566   2.022   3.835   0.262  2.0126  0.5915  0.0749
 2669TIP3    H229567   2.081   3.752   0.151 -0.8901 -1.0076 -0.3709
 2670TIP3   OH229568   1.185   0.817   8.021  0.4309  0.3117  0.3704
 2670TIP3    H129569   1.113   0.848   7.966  0.9541  0.7516 -0.0841
 2670TIP3    H229570   1.153   0.826   8.110 -0.5045 -0.5846  0.1527
 2671TIP3   OH229571   2.405   3.011   2.232 -0.3665 -0.4101  0.6307
 2671TIP3    H129572   2.431   3.004   2.324 -0.0901  0.1251  0.6009
 2671TIP3    H229573   2.479   2.974   2.184 -0.5037 -0.6744  0.6275
 2672TIP3   OH229574   4.129   5.260   7.428  0.6320 -0.0144  0.0138
 2672TIP3    H129575   4.135   5.320   7.354  0.7889 -2.7144 -2.3083
 2672TIP3    H229576   4.212   5.269   7.474  0.3390  2.0516  0.2329
 2673TIP3   OH229577   4.986   2.287   2.189  0.0912 -0.3984 -0.8778
 2673TIP3    H129578   4.953   2.357   2.246  2.7108 -0.0451  0.3549
 2673TIP3    H229579   4.981   2.208   2.242  0.5420 -0.4466 -0.8962
 2674TIP3   OH229580   2.519   3.969   8.233  0.4020  0.2769 -0.4918
 2674TIP3    H129581   2.486   3.988   8.145  1.6073 -1.8146 -1.4735
 2674TIP3    H229582   2.538   4.054   8.271 -0.1160  1.2237 -2.2778
 2675TIP3   OH229583   4.526   3.644   1.084 -0.3585  0.7279 -0.2707
 2675TIP3    H129584   4.508   3.614   1.174  0.0407 -0.0218 -0.4374
 2675TIP3    H229585   4.592   3.583   1.051 -2.4707 -0.7828 -2.0606
 2676TIP3   OH229586   5.942   1.752   7.639 -0.0980  0.1723 -0.4170
 2676TIP3    H129587   5.909   1.662   7.635  0.3561 -0.2676  2.9993
 2676TIP3    H229588   5.863   1.806   7.631 -0.4861 -0.5103 -1.5274
 2677TIP3   OH229589   5.714   5.578   0.879  0.2378 -0.1458 -0.9008
 2677TIP3    H129590   5.770   5.633   0.824  0.2757 -0.8821 -1.6175
 2677TIP3    H229591   5.717   5.619   0.965  0.3275  0.9267 -1.3987
 2678TIP3   OH229592   2.350   2.901   8.447  0.2321 -0.0835 -0.5389
 2678TIP3    H129593   2.257   2.914   8.429 -0.0156  0.6539  1.0602
 2678TIP3    H229594   2.394   2.931   8.367 -0.8494  0.9659 -0.7805
 2679TIP3   OH229595   4.062   6.598   8.016 -0.5220  0.1666 -0.0192
 2679TIP3    H129596   4.065   6.680   8.065 -0.7562  0.4494 -0.4779
 2679TIP3    H229597   4.064   6.624   7.924  1.0888 -0.4080 -0.1763
 2680TIP3   OH229598   4.611   6.299   0.464 -0.3741 -0.1673 -0.2199
 2680TIP3    H129599   4.646   6.382   0.430 -2.9387  1.6209  1.1543
 2680TIP3    H229600   4.633   6.235   0.396  1.6313  1.6116 -1.4037
 2681TIP3   OH229601   5.067   6.477   7.510  0.1709 -0.3239 -0.6456
 2681TIP3    H129602   5.073   6.573   7.511  0.9231 -0.3250 -2.1574
 2681TIP3    H229603   4.984   6.458   7.554  0.7467  0.9134  1.1338
 2682TIP3   OH229604   3.026   4.538   2.008  0.1273  0.1443  0.5655
 2682TIP3    H129605   3.086   4.594   2.057  1.2261 -0.2350 -0.2852
 2682TIP3    H229606   2.997   4.473   2.072  1.4514 -0.2861  0.7789
 2683TIP3   OH229607   3.852   5.454   1.299 -0.4871  0.1798 -0.4393
 2683TIP3    H129608   3.914   5.483   1.232 -1.0674  0.9777 -0.6356
 2683TIP3    H229609   3.848   5.359   1.288  1.6591 -0.0772  0.3970
 2684TIP3   OH229610   5.737   2.847   0.028  0.3620 -0.5522  0.2114
 2684TIP3    H129611   5.830   2.826   0.022  0.1452 -1.6723  0.6415
 2684TIP3    H229612   5.697   2.770   0.068 -0.7423 -0.0480  0.1153
 2685TIP3   OH229613   6.538   1.495   8.495 -0.4108  0.0534 -0.0456
 2685TIP3    H129614   6.610   1.459   8.547  0.3538  1.9049  0.2274
 2685TIP3    H229615   6.485   1.543   8.557 -1.5612 -0.7489 -0.3703
 2686TIP3   OH229616   1.055   3.929   7.594  0.3875 -0.5098  0.1724
 2686TIP3    H129617   1.018   3.949   7.508 -0.8049  0.3418  0.8562
 2686TIP3    H229618   0.980   3.909   7.648  1.0608 -0.2847  1.2141
 2687TIP3   OH229619   2.704   4.467   0.569  0.4279  0.2466 -0.5817
 2687TIP3    H129620   2.712   4.403   0.640  0.6447  1.0709  0.1436
 2687TIP3    H229621   2.618   4.507   0.582 -0.6793 -1.3706 -2.3114
 2688TIP3   OH229622   3.939   4.497   7.934 -0.3094 -0.5216 -0.2325
 2688TIP3    H129623   3.969   4.588   7.927  0.0236 -0.5997  0.1432
 2688TIP3    H229624   4.016   4.448   7.962  0.6994 -1.6586 -4.3031
 2689TIP3   OH229625   2.358   1.985   0.994  0.1651 -0.1192  0.4909
 2689TIP3    H129626   2.417   2.040   0.944 -0.5394 -0.0346 -0.2651
 2689TIP3    H229627   2.383   1.895   0.972  0.4975 -0.0939  0.7578
 2690TIP3   OH229628   6.629   5.714   0.349 -0.7718  0.0765  0.6314
 2690TIP3    H129629   6.540   5.746   0.366 -0.3385  2.1842 -0.6786
 2690TIP3    H229630   6.686   5.778   0.392  0.1392 -1.3174  1.5520
 2691TIP3   OH229631   2.620   4.067   2.693 -0.7081 -0.5325 -0.0323
 2691TIP3    H129632   2.626   3.985   2.645 -0.5065 -0.6725  0.2327
 2691TIP3    H229633   2.700   4.115   2.670  0.2188 -1.2952  1.4453
 2692TIP3   OH229634   1.675   3.515   1.453  0.1734  0.1753 -0.3302
 2692TIP3    H129635   1.606   3.474   1.505 -1.4402  2.2734 -0.6849
 2692TIP3    H229636   1.641   3.517   1.364 -0.7551  3.8014 -0.0778
 2693TIP3   OH229637   2.764   5.044   2.637  0.3366  0.8586 -0.3321
 2693TIP3    H129638   2.678   5.085   2.641  0.7885  1.8520 -0.4843
 2693TIP3    H229639   2.816   5.103   2.582  0.9286 -0.0727 -0.7801
 2694TIP3   OH229640   3.331   3.042   7.862  0.1405 -0.2223  0.5813
 2694TIP3    H129641   3.378   3.111   7.908  1.9619 -1.4603  0.6594
 2694TIP3    H229642   3.346   2.964   7.914 -0.1862 -1.0825 -0.5664
 2695TIP3   OH229643   3.823   0.142   0.286 -0.1364 -0.0625  0.0781
 2695TIP3    H129644   3.758   0.095   0.338  0.1849 -1.2132 -0.5219
 2695TIP3    H229645   3.773   0.188   0.219 -0.6197  1.9796  1.7419
 2696TIP3   OH229646   1.666   1.847   1.916  0.0144 -0.2756 -0.0961
 2696TIP3    H129647   1.625   1.822   1.834 -0.2019 -0.0544 -0.0565
 2696TIP3    H229648   1.597   1.892   1.965  0.7545  1.6469 -0.7335
 2697TIP3   OH229649   3.055   1.777   1.052 -0.0684  0.4680  0.2994
 2697TIP3    H129650   3.125   1.841   1.040  1.5461 -0.9254  1.7757
 2697TIP3    H229651   3.047   1.734   0.967  1.7356 -0.1570  0.4036
 2698TIP3   OH229652   1.714   6.227   0.252 -0.1067 -0.6147 -0.1731
 2698TIP3    H129653   1.697   6.289   0.181 -1.1591 -0.5794  0.0922
 2698TIP3    H229654   1.802   6.193   0.234  0.0265  0.1106 -0.9489
 2699TIP3   OH229655   3.595   3.068   8.613 -0.3870  0.2765  0.1139
 2699TIP3    H129656   3.563   3.110   8.534  1.0529  0.1693 -0.5693
 2699TIP3    H229657   3.528   3.004   8.636 -0.9150  0.4534 -0.9099
 2700TIP3   OH229658   4.774   6.042   1.344  0.9186  0.5367  0.2418
 2700TIP3    H129659   4.782   5.966   1.401 -1.3571 -0.5092 -0.7113
 2700TIP3    H229660   4.730   6.108   1.398 -1.2012 -0.4373 -0.2007
 2701TIP3   OH229661   0.710   6.846   1.316 -0.4998  0.1313 -0.3793
 2701TIP3    H129662   0.692   6.753   1.327 -0.3589  0.2252  0.7919
 2701TIP3    H229663   0.658   6.872   1.240  0.8877 -1.2916 -1.9042
 2702TIP3   OH229664   1.306   1.078   8.404 -0.1587  0.1697  0.0623
 2702TIP3    H129665   1.365   1.065   8.479 -0.6526 -0.1550  0.3996
 2702TIP3    H229666   1.223   1.042   8.433 -1.5959  3.7450  0.9705
 2703TIP3   OH229667   6.351   2.007   8.293  0.2316  0.3973  0.1431
 2703TIP3    H129668   6.404   2.068   8.242  0.6563 -1.2965 -1.5653
 2703TIP3    H229669   6.288   1.971   8.230  1.6049 -2.7207  0.3503
 2704TIP3   OH229670   4.959   6.643   0.150  0.0186 -0.5163  0.6424
 2704TIP3    H129671   4.951   6.604   0.237 -3.8101 -0.8801  0.3323
 2704TIP3    H229672   4.934   6.734   0.163 -1.9754 -0.8850 -0.1554
 2705TIP3   OH229673   0.551   6.767   1.681 -0.3276 -0.1426  0.3563
 2705TIP3    H129674   0.578   6.682   1.713  1.5230 -0.0761 -0.9165
 2705TIP3    H229675   0.555   6.760   1.586 -1.3884  0.9905  0.1968
 2706TIP3   OH229676   1.154   6.117   2.338 -0.4080 -0.1145 -0.2246
 2706TIP3    H129677   1.086   6.112   2.405 -0.6219 -0.6980 -0.4779
 2706TIP3    H229678   1.187   6.028   2.330  1.1169  0.3515  0.6227
 2707TIP3   OH229679   5.197   0.395   0.627  0.2114  0.5818 -0.1282
 2707TIP3    H129680   5.281   0.398   0.582 -0.2276  1.0679 -0.9296
 2707TIP3    H229681   5.185   0.303   0.649 -0.2789  0.0687 -2.3820
 2708TIP3   OH229682   5.733   4.212   0.638 -0.2319  0.7180 -0.0197
 2708TIP3    H129683   5.747   4.185   0.547  0.1409 -1.0820  0.5209
 2708TIP3    H229684   5.817   4.193   0.681 -0.5492  1.1137  0.7930
 2709TIP3   OH229685   0.752   6.459   7.882  0.0779 -0.5416  0.0588
 2709TIP3    H129686   0.807   6.419   7.815 -0.2439 -1.0867  0.1054
 2709TIP3    H229687   0.746   6.551   7.858  1.8197 -0.2587  0.6217
 2710TIP3   OH229688   3.885   0.549   8.351 -0.5494 -0.3967  0.3043
 2710TIP3    H129689   3.805   0.585   8.389  0.7276  0.0828  2.7752
 2710TIP3    H229690   3.887   0.584   8.262 -1.4532  2.3119  1.2395
 2711TIP3   OH229691   4.573   3.793   2.645  0.2169 -0.0701  0.2452
 2711TIP3    H129692   4.667   3.793   2.664  0.2452 -0.6842  0.1552
 2711TIP3    H229693   4.558   3.709   2.600 -0.6165 -0.6545  1.5377
 2712TIP3   OH229694   3.221   6.830   1.115 -0.1034 -0.5745  0.1733
 2712TIP3    H129695   3.290   6.764   1.121  0.4997  0.0117 -0.1933
 2712TIP3    H229696   3.203   6.838   1.021 -1.0681 -1.1182  0.2975
 2713TIP3   OH229697   4.104   1.653   0.467  0.3623 -0.4591  0.7336
 2713TIP3    H129698   4.123   1.685   0.555  3.2929 -2.2996  0.9310
 2713TIP3    H229699   4.176   1.593   0.448 -1.2355 -1.6549 -2.1657
 2714TIP3   OH229700   2.062   0.618   1.827 -0.3728 -0.2071 -0.4473
 2714TIP3    H129701   2.147   0.596   1.789 -0.2983  1.6590 -1.4945
 2714TIP3    H229702   2.060   0.714   1.826 -1.3600 -0.1380  2.1602
 2715TIP3   OH229703   2.787   1.706   0.586  0.0413 -0.1699  0.3035
 2715TIP3    H129704   2.841   1.756   0.525 -0.3765  2.5005  1.9498
 2715TIP3    H229705   2.727   1.657   0.530 -0.1157  1.8960 -1.4695
 2716TIP3   OH229706   4.845   1.953   7.675  0.7393 -0.0793 -0.2100
 2716TIP3    H129707   4.923   1.991   7.714 -0.6184  1.4825  1.1149
 2716TIP3    H229708   4.855   1.858   7.690  1.8346  0.1945  0.9829
 2717TIP3   OH229709   4.411   2.015   0.145  0.1882 -0.1444 -0.3231
 2717TIP3    H129710   4.466   2.073   0.197  0.2028  0.1139 -0.6236
 2717TIP3    H229711   4.323   2.026   0.182  0.0468  0.6675 -0.8808
 2718TIP3   OH229712   4.747   3.481   1.048 -0.0498 -0.2658  0.0404
 2718TIP3    H129713   4.741   3.438   1.133  1.1579 -1.7331 -0.5744
 2718TIP3    H229714   4.839   3.505   1.039 -0.3514  0.7684 -0.4411
 2719TIP3   OH229715   5.830   6.159   1.395 -0.1974  0.2584  0.0298
 2719TIP3    H129716   5.736   6.141   1.399 -0.1636  0.1189  0.2003
 2719TIP3    H229717   5.871   6.075   1.414 -0.0369 -0.1511 -1.9532
 2720TIP3   OH229718   2.454   5.767   2.747  0.4128 -0.8477 -0.4983
 2720TIP3    H129719   2.378   5.764   2.805  0.6955 -0.7132 -0.1141
 2720TIP3    H229720   2.427   5.719   2.669 -0.3562 -0.0788 -0.7159
 2721TIP3   OH229721   5.263   2.528   1.153  0.1246  0.3628 -0.2213
 2721TIP3    H129722   5.190   2.487   1.108 -0.5167 -0.3724  1.4027
 2721TIP3    H229723   5.223   2.596   1.207  1.0463  2.3688 -1.9184
 2722TIP3   OH229724   1.550   3.967   8.370 -0.7207 -0.1122 -0.0681
 2722TIP3    H129725   1.541   3.887   8.422 -2.6077  0.2520  0.2211
 2722TIP3    H229726   1.545   4.038   8.435  0.0384  0.2885 -0.4283
 2723TIP3   OH229727   6.331   2.673   8.227  0.4043 -0.1770 -0.4682
 2723TIP3    H129728   6.378   2.748   8.263 -2.2649  0.8995  1.0769
 2723TIP3    H229729   6.252   2.666   8.281  0.3501 -3.9163 -0.7700
 2724TIP3   OH229730   2.836   1.378   8.360  0.3227 -0.1468  0.4540
 2724TIP3    H129731   2.886   1.305   8.397  2.4973  1.5595  1.0196
 2724TIP3    H229732   2.875   1.394   8.275 -0.0946  0.4047  0.3585
 2725TIP3   OH229733   0.632   2.161   8.440  0.3971 -0.0735  0.4877
 2725TIP3    H129734   0.601   2.237   8.489  1.0851  1.7148 -1.6712
 2725TIP3    H229735   0.560   2.139   8.381  1.5779  1.4962 -1.6637
 2726TIP3   OH229736   6.490   3.275   7.557 -0.4464  0.0933 -0.4921
 2726TIP3    H129737   6.518   3.296   7.646  0.6545  0.9786 -1.0192
 2726TIP3    H229738   6.534   3.340   7.502 -2.3856  0.6121 -1.5397
 2727TIP3   OH229739   3.580   4.606   7.518  0.2770  0.5568  0.1048
 2727TIP3    H129740   3.619   4.586   7.603 -0.1513  1.9543  0.6684
 2727TIP3    H229741   3.570   4.701   7.519 -0.7831  0.4791 -1.0541
 2728TIP3   OH229742   1.972   2.984   0.296  0.5510 -0.2836 -0.2189
 2728TIP3    H129743   2.025   3.053   0.336 -0.0594  0.3440 -0.4689
 2728TIP3    H229744   1.977   2.911   0.358  1.1374  0.0097  0.0912
 2729TIP3   OH229745   6.611   6.225   2.916  0.9694  0.0909 -0.1801
 2729TIP3    H129746   6.657   6.166   2.857 -1.5109 -0.0826 -2.0710
 2729TIP3    H229747   6.664   6.305   2.917  2.5644 -0.9318 -0.2843
 2730TIP3   OH229748   3.356   1.650   0.391 -0.1303 -0.3175  0.1816
 2730TIP3    H129749   3.394   1.738   0.382 -0.6106 -0.1203  0.0253
 2730TIP3    H229750   3.408   1.609   0.460  2.2148 -1.0834 -1.8985
 2731TIP3   OH229751   1.395   5.955   1.645 -0.0945 -0.1056  0.2143
 2731TIP3    H129752   1.319   5.897   1.648  0.9379 -1.5080  2.5175
 2731TIP3    H229753   1.469   5.896   1.626  0.7080  0.8563  0.2695
 2732TIP3   OH229754   1.566   2.324   7.094  0.1171 -0.4624  0.0736
 2732TIP3    H129755   1.506   2.354   7.026  1.1639 -1.5790 -1.4001
 2732TIP3    H229756   1.514   2.265   7.148 -0.4206 -0.4762 -0.4458
 2733TIP3   OH229757   3.695   0.373   8.553  0.3833  0.4438 -0.1496
 2733TIP3    H129758   3.610   0.361   8.512 -0.9131  2.1065  1.8597
 2733TIP3    H229759   3.709   0.290   8.600 -0.2086  0.2300 -0.3302
 2734TIP3   OH229760   0.759   3.798   2.140  0.1505  0.1714  0.5205
 2734TIP3    H129761   0.762   3.718   2.088 -0.7894 -0.4150  1.3551
 2734TIP3    H229762   0.845   3.839   2.124  0.2411 -0.4442 -0.7435
 2735TIP3   OH229763   4.039   5.014   0.117 -0.3920 -0.1470  0.0476
 2735TIP3    H129764   4.081   4.965   0.188 -0.8775  0.5359  0.8220
 2735TIP3    H229765   4.009   4.946   0.056  0.1111 -0.7419  0.4433
 2736TIP3   OH229766   3.593   1.392   8.556  0.5354 -0.4659  0.3927
 2736TIP3    H129767   3.568   1.432   8.639 -0.0912 -1.4846  0.7000
 2736TIP3    H229768   3.511   1.386   8.507  1.0649  1.2188 -0.8078
 2737TIP3   OH229769   3.514   0.735   8.071 -0.1282  0.0452  0.0317
 2737TIP3    H129770   3.489   0.813   8.121  0.3449  0.6911 -0.7060
 2737TIP3    H229771   3.448   0.670   8.094 -0.3715  0.5724  0.8847
 2738TIP3   OH229772   6.802   5.582   1.097  0.0208 -0.5932 -0.1834
 2738TIP3    H129773   6.874   5.642   1.077 -0.7820  0.2946 -0.5130
 2738TIP3    H229774   6.804   5.517   1.026 -1.5916  1.4160 -2.2332
 2739TIP3   OH229775   0.572   4.533   8.665  0.3283 -0.3929 -1.0232
 2739TIP3    H129776   0.585   4.555   8.757 -0.8319  1.5798 -1.2749
 2739TIP3    H229777   0.534   4.446   8.667  0.9420 -0.6662  0.3087
 2740TIP3   OH229778   0.663   2.670   7.324  0.1032  0.6661  0.2078
 2740TIP3    H129779   0.700   2.748   7.283 -0.9513  1.3125  0.4190
 2740TIP3    H229780   0.584   2.651   7.273  0.5033 -0.4551 -0.0239
 2741TIP3   OH229781   4.368   2.170   0.531 -0.6338  0.6068 -0.5607
 2741TIP3    H129782   4.410   2.228   0.594  0.6089  0.1267 -0.9120
 2741TIP3    H229783   4.301   2.224   0.490 -1.3477  0.9776  1.0225
 2742TIP3   OH229784   1.456   3.733   7.557  0.2033  0.0211 -0.3816
 2742TIP3    H129785   1.450   3.682   7.476 -0.8520  0.6723 -0.7300
 2742TIP3    H229786   1.511   3.680   7.615  0.0450 -0.9801 -1.1254
 2743TIP3   OH229787   3.991   5.121   8.564 -0.5631 -0.7816 -0.3471
 2743TIP3    H129788   4.033   5.068   8.496 -0.0063 -0.5638 -0.1851
 2743TIP3    H229789   3.999   5.069   8.644 -0.7036 -0.7915 -0.3407
 2744TIP3   OH229790   0.931   4.876   2.704  0.3273 -0.3847 -0.0040
 2744TIP3    H129791   0.973   4.961   2.687 -0.2129 -0.1504 -0.2026
 2744TIP3    H229792   0.977   4.841   2.780  2.1039 -0.9715 -1.2714
 2745TIP3   OH229793   2.464   1.276   8.314  0.6956  0.5728 -0.2563
 2745TIP3    H129794   2.404   1.211   8.350  1.1281  0.4242  0.2093
 2745TIP3    H229795   2.507   1.232   8.242  1.9442 -0.1258  0.8667
 2746TIP3   OH229796   6.140   2.062   6.894  0.0148 -0.0177  0.1563
 2746TIP3    H129797   6.081   2.018   6.956 -0.0922 -0.3532 -0.1818
 2746TIP3    H229798   6.113   2.030   6.808 -0.9656  1.7240 -0.2518
 2747TIP3   OH229799   1.175   0.973   7.057  0.2856 -0.3531 -0.0519
 2747TIP3    H129800   1.171   0.952   7.150 -0.3018  0.3495  0.0887
 2747TIP3    H229801   1.164   0.889   7.013 -3.0341 -0.3313  0.4868
 2748TIP3   OH229802   0.813   5.903   1.221 -0.4140  0.2197  0.0653
 2748TIP3    H129803   0.871   5.974   1.196 -1.4214  0.4039 -1.8822
 2748TIP3    H229804   0.838   5.830   1.164 -0.4903 -0.4911  0.9112
 2749TIP3   OH229805   3.833   5.078   6.934 -0.5177 -0.3660  0.2694
 2749TIP3    H129806   3.904   5.051   6.875  1.8894  1.2717  2.2109
 2749TIP3    H229807   3.817   5.170   6.910 -2.9575 -1.0386 -0.9530
 2750TIP3   OH229808   1.845   1.672   7.712  0.6503  0.0437 -0.5943
 2750TIP3    H129809   1.937   1.662   7.733  0.3706 -0.7827  0.3000
 2750TIP3    H229810   1.812   1.582   7.702 -0.0085  0.3313 -1.1375
 2751TIP3   OH229811   3.575   1.751   7.686  0.7229  1.0187 -0.3333
 2751TIP3    H129812   3.578   1.788   7.598  1.3994  0.6834 -0.4645
 2751TIP3    H229813   3.612   1.663   7.676 -0.1284  0.5990  0.1082
 2752TIP3   OH229814   0.817   5.080   1.683 -0.2399 -0.4979 -0.0832
 2752TIP3    H129815   0.877   5.147   1.716 -0.2578 -0.3390 -0.3752
 2752TIP3    H229816   0.865   4.998   1.693 -0.5414 -0.5493  1.0751
 2753TIP3   OH229817   4.245   3.482   0.773  0.1126 -0.4806 -0.2899
 2753TIP3    H129818   4.283   3.417   0.833  0.8222 -0.5712 -0.8219
 2753TIP3    H229819   4.168   3.438   0.736 -0.7171 -0.1925  1.0134
 2754TIP3   OH229820   3.147   6.684   1.466  0.0619 -0.0401 -0.2793
 2754TIP3    H129821   3.082   6.720   1.406  0.6924  0.3042 -0.7624
 2754TIP3    H229822   3.105   6.608   1.505 -0.1061 -0.6675 -1.6656
 2755TIP3   OH229823   1.332   2.690   7.131 -0.5825  0.0005  0.1136
 2755TIP3    H129824   1.289   2.745   7.066 -0.7288  0.7413  0.8284
 2755TIP3    H229825   1.288   2.711   7.214 -0.8043 -1.3569  0.3736
 2756TIP3   OH229826   3.236   2.996   7.194 -0.0048 -0.0164 -0.1002
 2756TIP3    H129827   3.165   2.932   7.193 -1.0400  1.0546  0.7430
 2756TIP3    H229828   3.207   3.063   7.256  1.3356  0.9301 -0.4371
 2757TIP3   OH229829   5.819   6.491   7.673  0.3374 -0.1261 -0.7506
 2757TIP3    H129830   5.846   6.569   7.625 -1.0576  0.7856 -0.0771
 2757TIP3    H229831   5.747   6.455   7.621 -0.3805  0.1933  0.0159
 2758TIP3   OH229832   6.220   1.533   2.271  0.1335 -0.4097  0.6884
 2758TIP3    H129833   6.170   1.604   2.313  0.9081  0.1618  0.6601
 2758TIP3    H229834   6.203   1.456   2.326 -1.0443 -0.3106  0.4913
 2759TIP3   OH229835   3.773   3.931   1.352 -0.2235  0.1506  0.3739
 2759TIP3    H129836   3.723   3.903   1.275 -0.4352  1.2343  0.1093
 2759TIP3    H229837   3.862   3.899   1.334 -0.5573 -0.8082  0.3336
 2760TIP3   OH229838   6.703   5.166   2.034  0.4628  0.0727 -0.1703
 2760TIP3    H129839   6.712   5.129   2.121 -2.7459  0.8004  0.5728
 2760TIP3    H229840   6.635   5.113   1.991  1.0594  0.5323 -1.7843
 2761TIP3   OH229841   2.457   5.904   1.611  0.4631  0.3347 -0.2562
 2761TIP3    H129842   2.505   5.941   1.684  1.2680 -0.8591 -0.1431
 2761TIP3    H229843   2.478   5.810   1.613 -1.8309 -0.2426 -0.2422
 2762TIP3   OH229844   1.945   3.134   8.626  0.2879 -0.0048  0.4883
 2762TIP3    H129845   1.861   3.118   8.667  0.3022  2.0782  1.4106
 2762TIP3    H229846   2.007   3.083   8.678 -0.1230  0.0886  1.0770
 2763TIP3   OH229847   5.656   1.683   8.218 -0.3332 -0.0927 -0.1143
 2763TIP3    H129848   5.682   1.661   8.307 -1.7784 -0.7708  0.1774
 2763TIP3    H229849   5.573   1.731   8.228 -0.8563 -0.7400 -1.0942
 2764TIP3   OH229850   1.645   3.271   0.239 -0.2728  0.4488 -0.0045
 2764TIP3    H129851   1.673   3.180   0.251 -0.6944  0.4234  0.8759
 2764TIP3    H229852   1.588   3.288   0.314  0.0318  1.5329 -0.0096
 2765TIP3   OH229853   1.711   0.314   7.207  0.1301 -0.1752 -0.4926
 2765TIP3    H129854   1.784   0.374   7.190  0.2268 -0.1351  0.0412
 2765TIP3    H229855   1.666   0.353   7.282  0.5328 -1.0662  0.2264
 2766TIP3   OH229856   0.968   4.453   7.939  0.6647 -0.2245 -0.1657
 2766TIP3    H129857   0.912   4.383   7.974  0.2735  0.8755  1.4898
 2766TIP3    H229858   1.049   4.446   7.989  0.4723  0.7350  0.3056
 2767TIP3   OH229859   3.788   4.080   1.826  0.5294  0.0259  0.0004
 2767TIP3    H129860   3.719   4.093   1.892 -0.3795 -1.0091 -0.6940
 2767TIP3    H229861   3.741   4.077   1.743  1.6549  1.2745 -0.7129
 2768TIP3   OH229862   4.913   1.830   0.321  0.2325  0.0662 -0.1823
 2768TIP3    H129863   4.874   1.902   0.273  1.2635  0.2286 -0.8005
 2768TIP3    H229864   4.862   1.824   0.402  0.7418  2.1111  0.3249
 2769TIP3   OH229865   6.026   4.946   2.424 -0.4066  0.1969  0.2947
 2769TIP3    H129866   5.936   4.957   2.455 -0.1255  0.6759  0.9515
 2769TIP3    H229867   6.047   4.855   2.445 -1.2919 -0.4371 -1.3601
 2770TIP3   OH229868   4.641   3.948   0.895 -0.0988  0.1901 -0.5336
 2770TIP3    H129869   4.597   3.888   0.955 -1.4112  1.0270 -0.6057
 2770TIP3    H229870   4.715   3.983   0.945 -0.6027  0.1488  0.2600
 2771TIP3   OH229871   5.883   5.112   2.707 -0.1340 -0.0824 -0.7328
 2771TIP3    H129872   5.850   5.030   2.671 -0.6741 -0.0861 -0.2372
 2771TIP3    H229873   5.815   5.176   2.687 -0.9582 -0.2874  1.1676
 2772TIP3   OH229874   1.454   4.847   2.308 -0.1520 -0.3085 -0.0942
 2772TIP3    H129875   1.497   4.825   2.226  0.0447 -0.4649  0.0508
 2772TIP3    H229876   1.524   4.850   2.373 -0.6420 -4.0692  0.8952
 2773TIP3   OH229877   1.038   6.019   0.306  0.7157  0.9394  0.0543
 2773TIP3    H129878   1.107   5.969   0.349 -0.0287 -0.7740 -0.6698
 2773TIP3    H229879   1.083   6.063   0.233  0.9631 -0.6423 -0.7802
 2774TIP3   OH229880   1.473   1.331   1.701 -0.0634 -0.5201  0.4683
 2774TIP3    H129881   1.381   1.330   1.726 -0.5211  1.4810 -0.8836
 2774TIP3    H229882   1.520   1.347   1.783 -1.1332  1.0017  0.8338
 2775TIP3   OH229883   5.329   3.610   1.933 -0.1115  0.0870 -0.3387
 2775TIP3    H129884   5.346   3.541   1.997 -0.9998  0.1580 -0.0155
 2775TIP3    H229885   5.401   3.672   1.946  0.1581 -0.2931  0.0386
 2776TIP3   OH229886   5.512   0.857   0.075  0.0693  0.2914 -0.3893
 2776TIP3    H129887   5.570   0.870   0.150  0.0203 -0.0587 -0.2894
 2776TIP3    H229888   5.569   0.868  -0.001  0.8730 -2.4868 -0.3067
 2777TIP3   OH229889   3.125   6.426   6.756 -0.4566 -0.2975 -0.2764
 2777TIP3    H129890   3.207   6.444   6.711 -0.4605 -3.4324 -1.8302
 2777TIP3    H229891   3.116   6.497   6.819  3.2334  0.3924 -0.2898
 2778TIP3   OH229892   3.642   3.951   8.603  0.4949  0.0265 -0.1385
 2778TIP3    H129893   3.667   4.043   8.598 -0.1186  0.1795 -0.3935
 2778TIP3    H229894   3.725   3.904   8.593  0.7649  0.5410 -0.3782
 2779TIP3   OH229895   1.721   5.534   0.857  0.0207 -0.0647 -0.3873
 2779TIP3    H129896   1.793   5.592   0.832  1.7853 -0.4480  3.1738
 2779TIP3    H229897   1.659   5.591   0.902 -0.8438 -0.1471 -1.4209
 2780TIP3   OH229898   3.730   4.657   2.528 -0.3264  0.3211  0.5551
 2780TIP3    H129899   3.704   4.729   2.470 -0.0667  1.3263  1.6346
 2780TIP3    H229900   3.753   4.585   2.469 -0.0298  1.3108 -0.5787
 2781TIP3   OH229901   2.479   2.941   2.490  0.9678  0.1436  0.1614
 2781TIP3    H129902   2.496   2.936   2.584  0.3984 -1.9365  0.2039
 2781TIP3    H229903   2.437   2.858   2.468 -0.0918  1.0944 -1.7217
 2782TIP3   OH229904   3.719   2.990   1.955 -0.3697  0.8059 -0.1124
 2782TIP3    H129905   3.638   3.040   1.961 -0.3731  1.4370 -3.6787
 2782TIP3    H229906   3.777   3.044   1.901  1.1955 -1.1353 -0.4943
 2783TIP3   OH229907   4.607   3.128   1.827 -0.0863  0.2783 -0.0790
 2783TIP3    H129908   4.573   3.185   1.896 -1.9840 -2.3021  1.3098
 2783TIP3    H229909   4.686   3.172   1.796 -1.3898  3.5840  0.8547
 2784TIP3   OH229910   5.316   3.231   2.447 -0.1420  0.3141 -0.1174
 2784TIP3    H129911   5.340   3.184   2.367 -0.9979  0.3964 -0.4336
 2784TIP3    H229912   5.353   3.178   2.518  2.3836  1.2734 -0.6038
 2785TIP3   OH229913   3.481   6.145   7.240  0.2027  0.3995 -0.1030
 2785TIP3    H129914   3.503   6.235   7.216  0.6795  0.2726 -0.1613
 2785TIP3    H229915   3.507   6.139   7.332  0.3986  0.2525 -0.1670
 2786TIP3   OH229916   6.624   3.877   0.929  0.0028  0.0672 -0.1999
 2786TIP3    H129917   6.665   3.948   0.879 -0.8074  0.9027  0.2984
 2786TIP3    H229918   6.581   3.824   0.862  0.6886 -0.0119 -0.5879
 2787TIP3   OH229919   1.263   5.214   8.208 -0.3420  0.5355 -0.0506
 2787TIP3    H129920   1.304   5.295   8.176 -1.3329  0.5883 -1.2813
 2787TIP3    H229921   1.210   5.243   8.282 -2.8866  1.6214 -2.1157
 2788TIP3   OH229922   1.574   6.067   0.980 -0.0022 -0.6983 -0.2415
 2788TIP3    H129923   1.645   6.099   1.035  0.0752  1.0897 -1.3067
 2788TIP3    H229924   1.494   6.098   1.024  0.0908  2.0798 -1.7702
 2789TIP3   OH229925   0.239   0.534   2.260 -0.6930 -0.4508 -0.1034
 2789TIP3    H129926   0.292   0.472   2.311  0.3483  0.9520  0.5850
 2789TIP3    H229927   0.253   0.618   2.303 -3.1645  0.0595 -0.1947
 2790TIP3   OH229928   4.643   4.708   7.565 -0.2282  0.4379 -0.0799
 2790TIP3    H129929   4.578   4.776   7.585 -1.4702 -0.9562  0.8448
 2790TIP3    H229930   4.618   4.635   7.620  0.0035 -1.4100 -2.2785
 2791TIP3   OH229931   0.690   5.699   2.911  0.1559  0.2606 -0.0282
 2791TIP3    H129932   0.766   5.699   2.969  0.2809  1.1709 -0.1830
 2791TIP3    H229933   0.721   5.740   2.830 -1.1577  3.1977  0.8378
 2792TIP3   OH229934   2.370   0.949   0.833 -0.4962  0.7636 -0.1548
 2792TIP3    H129935   2.463   0.935   0.848 -1.0346 -1.0193  2.1133
 2792TIP3    H229936   2.366   1.027   0.778  2.2761  1.7077  0.8187
 2793TIP3   OH229937   4.648   2.810   0.136 -0.0219  0.0737  0.6738
 2793TIP3    H129938   4.661   2.866   0.212  0.5126  0.8215  0.0483
 2793TIP3    H229939   4.563   2.835   0.101 -0.4132 -0.4944  1.1983
 2794TIP3   OH229940   0.735   3.986   0.263 -0.4586  0.2532  0.5637
 2794TIP3    H129941   0.779   3.910   0.224  0.3734  0.7809  0.4521
 2794TIP3    H229942   0.703   3.953   0.347 -0.1133 -0.2309  0.5158
 2795TIP3   OH229943   5.701   2.239   7.730 -0.1054 -0.2524  0.2184
 2795TIP3    H129944   5.719   2.146   7.729  1.2746 -0.1086  2.8480
 2795TIP3    H229945   5.683   2.259   7.823 -0.0455  2.1340 -0.2158
 2796TIP3   OH229946   1.829   5.851   7.010 -0.0079  0.3097  0.0180
 2796TIP3    H129947   1.833   5.784   6.942  2.6578  0.4656 -0.1007
 2796TIP3    H229948   1.830   5.801   7.092  0.5348  0.1717 -0.0698
 2797TIP3   OH229949   0.470   3.987   0.032  0.1420 -0.4961  0.3939
 2797TIP3    H129950   0.429   3.956  -0.049  0.7749 -1.1808  0.3241
 2797TIP3    H229951   0.426   3.939   0.102 -1.4280  1.1572  0.6123
 2798TIP3   OH229952   3.089   6.392   8.308  0.1520  0.6850  0.5170
 2798TIP3    H129953   3.012   6.435   8.345 -0.6420 -1.6072  1.7488
 2798TIP3    H229954   3.109   6.321   8.369  0.2218 -1.8357 -2.2202
 2799TIP3   OH229955   2.518   1.309   1.364 -0.1574 -0.5972 -0.3552
 2799TIP3    H129956   2.561   1.305   1.278  1.4802  0.0297  0.4046
 2799TIP3    H229957   2.584   1.345   1.423 -1.3342 -0.7773  1.1400
 2800TIP3   OH229958   0.531   2.321   7.114  0.5768 -0.7928 -0.2606
 2800TIP3    H129959   0.457   2.263   7.095  1.1505 -2.1804  1.4319
 2800TIP3    H229960   0.491   2.406   7.131 -0.7652 -1.6587  1.2784
 2801TIP3   OH229961   4.838   1.844   8.607 -0.0404  0.4795 -0.0191
 2801TIP3    H129962   4.877   1.879   8.687  1.3657 -1.4141  0.2080
 2801TIP3    H229963   4.749   1.820   8.631 -0.1806  1.5130  0.4998
 2802TIP3   OH229964   0.492   5.771   2.623 -0.4002 -0.1838  0.1362
 2802TIP3    H129965   0.460   5.861   2.635 -0.1486 -0.0542 -0.1361
 2802TIP3    H229966   0.451   5.721   2.693  0.5580  0.4348  1.1643
 2803TIP3   OH229967   4.148   4.773   0.679  0.1735 -0.4194  0.3203
 2803TIP3    H129968   4.199   4.704   0.722  1.8473 -0.3049 -1.3555
 2803TIP3    H229969   4.212   4.825   0.633 -1.1399  1.8855  0.9267
 2804TIP3   OH229970   1.515   2.932   6.999 -0.2803 -0.0166 -0.2544
 2804TIP3    H129971   1.577   2.959   7.066  1.0835  1.3293 -1.9661
 2804TIP3    H229972   1.452   3.005   6.993  0.4038  0.5138 -1.3318
 2805TIP3   OH229973   4.034   5.726   0.287 -0.1308 -0.3024  0.1337
 2805TIP3    H129974   3.941   5.745   0.278 -0.2841 -0.6783  0.8924
 2805TIP3    H229975   4.049   5.650   0.230 -0.1526  0.1205 -0.4543
 2806TIP3   OH229976   2.036   5.715   2.345 -0.0022  0.0478 -0.5825
 2806TIP3    H129977   1.943   5.718   2.324  0.0110  0.9550 -0.5371
 2806TIP3    H229978   2.039   5.683   2.435 -0.3216  0.8260 -0.2872
 2807TIP3   OH229979   2.856   3.584   0.560 -0.7932 -0.2446 -0.1320
 2807TIP3    H129980   2.923   3.524   0.528 -1.7827 -1.4572 -0.0218
 2807TIP3    H229981   2.895   3.671   0.550  0.3245 -0.8292 -1.1833
 2808TIP3   OH229982   3.058   5.580   0.373 -0.0654 -0.0542 -0.2621
 2808TIP3    H129983   3.006   5.627   0.437 -0.8300  0.2597 -1.0855
 2808TIP3    H229984   3.120   5.645   0.340  1.2246 -0.5534  1.0703
 2809TIP3   OH229985   4.479   1.444   7.546  0.2478 -0.4793  0.0966
 2809TIP3    H129986   4.561   1.396   7.559 -0.7283 -1.9052  1.2959
 2809TIP3    H229987   4.485   1.520   7.602  0.2156 -1.3151  1.2662
 2810TIP3   OH229988   0.259   3.351   8.593  0.4136 -0.2282 -0.1029
 2810TIP3    H129989   0.232   3.274   8.543 -2.2484  0.5560 -0.0368
 2810TIP3    H229990   0.295   3.411   8.527  1.8383 -1.2063 -0.2549
 2811TIP3   OH229991   0.719   3.064   0.854 -0.1004  0.2664 -0.0538
 2811TIP3    H129992   0.744   3.128   0.920 -0.7010 -0.4055  0.8428
 2811TIP3    H229993   0.721   2.980   0.900 -1.2068 -0.1345 -0.6967
 2812TIP3   OH229994   5.677   6.343   1.600 -0.1033  0.1900 -0.0517
 2812TIP3    H129995   5.595   6.378   1.565  0.4843  1.5100 -0.1670
 2812TIP3    H229996   5.738   6.347   1.527  0.6761  1.3881  0.6295
 2813TIP3   OH229997   3.345   5.914   1.015 -0.1122 -0.1485 -0.3185
 2813TIP3    H129998   3.264   5.865   1.030  0.1588 -0.8110 -0.9683
 2813TIP3    H229999   3.322   6.005   1.034 -1.2317 -0.2184 -1.2659
 2814TIP3   OH230000   5.889   0.117   1.940  0.3670 -0.1725 -0.3246
 2814TIP3    H130001   5.926   0.154   2.021  0.6322 -1.6063  0.2381
 2814TIP3    H230002   5.845   0.191   1.898  1.1717  0.8534  0.5794
 2815TIP3   OH230003   4.123   6.074   1.126  0.2451  0.1060  0.1701
 2815TIP3    H130004   4.193   6.035   1.178 -0.4139  0.3229  1.2534
 2815TIP3    H230005   4.099   6.154   1.173 -0.4876  0.2163 -0.3664
 2816TIP3   OH230006   0.237   4.340   2.136 -0.0376  0.2033 -0.0539
 2816TIP3    H130007   0.320   4.312   2.176  0.6457  0.0482 -1.5208
 2816TIP3    H230008   0.203   4.262   2.093 -0.4797  0.4945 -0.2447
 2817TIP3   OH230009   0.706   1.249   1.454 -0.0140 -0.1684  0.5884
 2817TIP3    H130010   0.703   1.332   1.501  1.8112 -0.2950  0.9999
 2817TIP3    H230011   0.704   1.183   1.523 -0.0134 -0.4335  0.3350
 2818TIP3   OH230012   1.540   5.359   8.403 -0.0531  0.1232 -0.2144
 2818TIP3    H130013   1.498   5.442   8.425 -0.5178 -0.3684  0.8230
 2818TIP3    H230014   1.497   5.332   8.321 -0.0628  0.7780 -0.4349
 2819TIP3   OH230015   4.696   3.005   0.315  0.1175 -0.2543  0.8626
 2819TIP3    H130016   4.623   2.980   0.371 -0.4618  0.3016  0.3753
 2819TIP3    H230017   4.773   3.001   0.371 -0.2130 -1.3308  1.2601
 2820TIP3   OH230018   6.597   1.188   6.789  0.6916 -0.6718  0.2481
 2820TIP3    H130019   6.553   1.270   6.767  0.7578 -0.7090 -0.0353
 2820TIP3    H230020   6.529   1.133   6.828  0.0313 -1.3697 -1.7409
 2821TIP3   OH230021   1.145   4.647   1.707 -0.6204 -0.3550 -0.3910
 2821TIP3    H130022   1.080   4.625   1.774 -0.5119 -0.3664 -0.2907
 2821TIP3    H230023   1.124   4.588   1.634 -0.0718 -1.0924  0.0285
 2822TIP3   OH230024   4.974   2.758   0.717  0.3841 -0.3101  0.6671
 2822TIP3    H130025   5.036   2.690   0.745  0.3897  0.0383  1.5419
 2822TIP3    H230026   4.938   2.793   0.799 -1.4417 -0.9222  0.1865
 2823TIP3   OH230027   3.724   4.744   2.227  0.1616 -0.1909 -0.0169
 2823TIP3    H130028   3.661   4.781   2.290 -0.1598  2.0321 -1.5300
 2823TIP3    H230029   3.672   4.684   2.173 -0.0339 -0.4577  0.4590
 2824TIP3   OH230030   0.607   2.053   0.518  0.0849  0.2473  0.2163
 2824TIP3    H130031   0.555   2.101   0.582  0.5075 -0.7702  1.3735
 2824TIP3    H230032   0.560   2.064   0.435 -0.2302  1.9700  0.5885
 2825TIP3   OH230033   2.700   5.783   0.106 -0.0454  0.3147 -0.4516
 2825TIP3    H130034   2.774   5.843   0.095 -0.8374  1.0385 -2.0998
 2825TIP3    H230035   2.692   5.773   0.201 -0.1566  3.2114 -0.0554
 2826TIP3   OH230036   1.506   5.455   0.624  0.0568  0.2783 -0.2436
 2826TIP3    H130037   1.476   5.535   0.581  0.1654 -0.5945 -2.0225
 2826TIP3    H230038   1.582   5.483   0.676  0.0555  1.3374 -0.7899
 2827TIP3   OH230039   5.936   3.003   0.401 -0.1390 -0.0401 -0.4730
 2827TIP3    H130040   5.874   3.076   0.398 -0.1254 -0.0205 -0.2459
 2827TIP3    H230041   5.883   2.926   0.421 -0.3528 -0.3129 -1.9647
 2828TIP3   OH230042   2.503   1.285   7.750 -0.3989  0.0418  0.7807
 2828TIP3    H130043   2.574   1.244   7.701 -1.0187 -0.3662  0.2241
 2828TIP3    H230044   2.545   1.316   7.831  0.9035  1.7602 -0.4677
 2829TIP3   OH230045   4.764   2.858   0.934  0.5782 -0.2554 -0.4185
 2829TIP3    H130046   4.838   2.919   0.926  1.3256 -0.9774  0.6826
 2829TIP3    H230047   4.723   2.883   1.017  1.9704 -2.3345  0.9871
 2830TIP3   OH230048   4.052   5.803   0.718 -0.1286  0.4668  0.1938
 2830TIP3    H130049   4.050   5.873   0.784 -1.9123  0.7297 -0.0646
 2830TIP3    H230050   3.979   5.746   0.742  0.7956 -0.8636 -0.0884
 2831TIP3   OH230051   4.476   3.816   7.448  0.1176 -0.5973  0.5939
 2831TIP3    H130052   4.412   3.841   7.516 -0.0958  0.5686  0.0011
 2831TIP3    H230053   4.492   3.898   7.400  0.5386 -1.3205 -0.5280
 2832TIP3   OH230054   3.770   1.235   7.809 -0.6358  0.1861 -0.2541
 2832TIP3    H130055   3.779   1.142   7.787  1.2715 -0.3076  2.1332
 2832TIP3    H230056   3.681   1.242   7.844 -1.0901 -0.5572 -1.2133
 2833TIP3   OH230057   4.785   4.873   0.747  0.6642  0.3295 -0.3832
 2833TIP3    H130058   4.859   4.826   0.787  1.3023  1.5032 -0.1213
 2833TIP3    H230059   4.768   4.827   0.665 -0.8855 -2.3628  1.2999
 2834TIP3   OH230060   0.730   6.446   7.214 -0.3193  0.0445  0.1852
 2834TIP3    H130061   0.744   6.443   7.309 -1.0407 -0.2263  0.2912
 2834TIP3    H230062   0.814   6.421   7.177 -0.7810 -2.7896  0.8179
 2835TIP3   OH230063   5.838   1.517   2.359 -0.2328 -0.2606 -0.1820
 2835TIP3    H130064   5.926   1.551   2.346 -0.6463  0.8759 -0.1342
 2835TIP3    H230065   5.842   1.471   2.443  0.4913 -0.8507 -0.5319
 2836TIP3   OH230066   3.163   0.510   7.082  0.2354  0.1005 -0.2516
 2836TIP3    H130067   3.136   0.596   7.051 -0.4923  0.5221  1.4098
 2836TIP3    H230068   3.082   0.465   7.104  0.6504  0.4120  2.3544
 2837TIP3   OH230069   4.657   3.533   1.725  0.2653  0.2025  0.3459
 2837TIP3    H130070   4.704   3.456   1.693  0.9494  0.3944  0.8684
 2837TIP3    H230071   4.571   3.527   1.685  0.5946 -0.3878 -0.2844
 2838TIP3   OH230072   0.656   5.580   1.401 -0.2375 -0.1319 -0.0070
 2838TIP3    H130073   0.707   5.534   1.468 -0.0821  1.1542  0.7785
 2838TIP3    H230074   0.565   5.564   1.427 -0.1876 -0.0644  0.2123
 2839TIP3   OH230075   2.536   2.661   1.279 -0.1167  0.3794  0.5540
 2839TIP3    H130076   2.516   2.750   1.309  1.1725  0.6207  0.7446
 2839TIP3    H230077   2.516   2.662   1.185 -1.3471  0.4737  0.7946
 2840TIP3   OH230078   0.374   5.912   0.558 -0.0885  0.1834  0.0607
 2840TIP3    H130079   0.316   5.921   0.634  0.7318 -1.8497  1.0310
 2840TIP3    H230080   0.441   5.979   0.571 -1.2488  1.4247 -0.1687
 2841TIP3   OH230081   3.519   6.136   7.513 -0.4586 -0.6917  0.1447
 2841TIP3    H130082   3.564   6.192   7.575 -0.0766  1.1085 -1.6363
 2841TIP3    H230083   3.534   6.047   7.545  2.3513 -0.0400  0.9298
 2842TIP3   OH230084   5.767   2.368   7.398  0.2893  0.6850 -0.5019
 2842TIP3    H130085   5.854   2.409   7.397  1.2772 -1.1630  1.2665
 2842TIP3    H230086   5.755   2.336   7.308  1.5531  0.7834 -0.7285
 2843TIP3   OH230087   3.216   5.750   0.175 -0.0147  0.8025 -0.1921
 2843TIP3    H130088   3.232   5.756   0.081 -0.9245  0.1741 -0.4027
 2843TIP3    H230089   3.205   5.841   0.204  0.0416  0.9797 -0.7307
 2844TIP3   OH230090   6.782   2.497   7.980  0.2950 -0.4203 -0.6109
 2844TIP3    H130091   6.701   2.522   7.935  0.7148  1.0027 -0.6220
 2844TIP3    H230092   6.782   2.401   7.977 -1.1704 -0.4382 -0.9886
 2845TIP3   OH230093   4.699   5.994   0.543  0.7870  0.2613  0.3238
 2845TIP3    H130094   4.679   5.933   0.613  1.7565 -0.5466 -0.0765
 2845TIP3    H230095   4.658   5.955   0.465  2.9967 -0.9146 -0.3109
 2846TIP3   OH230096   1.779   6.696   7.929  0.8817  0.1978 -0.6018
 2846TIP3    H130097   1.837   6.660   7.996  1.1048 -0.4060 -1.1093
 2846TIP3    H230098   1.739   6.620   7.888  0.4167  0.5776 -0.8647
 2847TIP3   OH230099   5.317   3.719   0.410 -0.3050 -0.1204  0.0099
 2847TIP3    H130100   5.286   3.791   0.463 -2.1110  0.4048 -1.6380
 2847TIP3    H230101   5.385   3.757   0.354 -1.3226  0.3958 -0.9254
 2848TIP3   OH230102   3.038   0.610   2.391 -0.0858  0.2409  0.5226
 2848TIP3    H130103   3.099   0.679   2.367  1.8632 -1.2785  0.9003
 2848TIP3    H230104   3.041   0.607   2.487 -1.9788  1.1591  0.6592
 2849TIP3   OH230105   2.635   3.513   7.457  0.8999  0.4849  0.8538
 2849TIP3    H130106   2.659   3.579   7.522 -0.4382  0.1968  1.6856
 2849TIP3    H230107   2.553   3.476   7.490 -0.3054  0.9292 -1.3978
 2850TIP3   OH230108   2.886   5.132   0.543 -0.5370  0.1591 -0.6346
 2850TIP3    H130109   2.809   5.167   0.498  0.0258 -0.3617 -2.0808
 2850TIP3    H230110   2.947   5.113   0.472  0.5239 -0.4052  0.4107
 2851TIP3   OH230111   5.271   6.270   8.060  0.3726 -0.3864  0.0205
 2851TIP3    H130112   5.334   6.315   8.004  0.9308 -1.5354 -0.2843
 2851TIP3    H230113   5.321   6.203   8.106 -0.3646 -0.4230  0.8065
 2852TIP3   OH230114   0.716   4.381   7.338  0.0129 -0.2306  0.7492
 2852TIP3    H130115   0.797   4.386   7.287 -0.5313 -2.2819 -0.4382
 2852TIP3    H230116   0.732   4.310   7.401 -1.1266 -1.2491 -0.0740
 2853TIP3   OH230117   4.737   0.889   2.821  0.4474  0.1812  0.3256
 2853TIP3    H130118   4.679   0.815   2.802  0.8622 -0.4610  1.4676
 2853TIP3    H230119   4.680   0.966   2.816  0.4759  0.1705 -3.3993
 2854TIP3   OH230120   2.951   4.353   2.244  0.1965  0.0923  0.3406
 2854TIP3    H130121   2.994   4.281   2.290 -1.7026 -0.6446  1.0805
 2854TIP3    H230122   2.997   4.431   2.274  0.1685 -0.5303  2.1310
 2855TIP3   OH230123   0.952   6.493   8.657 -0.1531  0.8445 -0.5119
 2855TIP3    H130124   0.904   6.560   8.607 -0.5280  0.7727 -0.2523
 2855TIP3    H230125   0.994   6.438   8.590 -0.0013  1.2215 -0.7301
 2856TIP3   OH230126   1.695   3.210   8.375 -0.2176 -0.3488  0.8032
 2856TIP3    H130127   1.611   3.166   8.383 -0.4311  0.3238  2.8279
 2856TIP3    H230128   1.718   3.235   8.465  0.7459  2.0434 -0.0225
 2857TIP3   OH230129   1.069   1.125   7.312  0.0056  0.2310 -0.0177
 2857TIP3    H130130   1.020   1.055   7.355  0.2266  0.5872  0.8564
 2857TIP3    H230131   1.007   1.164   7.250 -0.2070 -0.5409 -0.2922
 2858TIP3   OH230132   1.208   6.735   7.713 -0.3832  0.1322 -0.4136
 2858TIP3    H130133   1.218   6.803   7.780  0.5983 -1.8013  1.5177
 2858TIP3    H230134   1.296   6.720   7.680 -0.7059  0.2919 -1.3771
 2859TIP3   OH230135   0.337   5.633   1.173  0.1201 -0.4402 -0.2905
 2859TIP3    H130136   0.358   5.581   1.250  0.2297 -0.3891 -0.2865
 2859TIP3    H230137   0.384   5.715   1.186 -2.5096  0.9720  1.2710
 2860TIP3   OH230138   2.881   0.760   2.219  0.2017  0.1252  0.7126
 2860TIP3    H130139   2.788   0.737   2.222  0.1582 -2.3898 -5.4573
 2860TIP3    H230140   2.918   0.720   2.298 -3.3969 -2.2596  1.4381
 2861TIP3   OH230141   5.000   5.323   8.042 -0.2332 -0.1391  0.2120
 2861TIP3    H130142   4.936   5.251   8.046  0.1056 -0.5871 -1.4615
 2861TIP3    H230143   4.956   5.391   7.991  1.1020 -1.0914 -2.4347
 2862TIP3   OH230144   5.695   1.127   0.784  0.0643  0.1698  0.2929
 2862TIP3    H130145   5.754   1.155   0.853 -0.0127  0.6208  0.1766
 2862TIP3    H230146   5.680   1.034   0.801 -0.2857  0.3693  1.1218
 2863TIP3   OH230147   1.089   2.000   8.627  0.5212  0.2658  0.0604
 2863TIP3    H130148   1.117   2.089   8.647  2.0994 -0.1545 -0.1137
 2863TIP3    H230149   1.121   1.947   8.700  0.1803 -0.2444 -0.1515
 2864TIP3   OH230150   1.301   1.028   1.609  0.0110  0.0852 -0.3211
 2864TIP3    H130151   1.325   1.117   1.584 -0.4531  0.3637  0.1957
 2864TIP3    H230152   1.214   1.015   1.570  0.1321 -0.1842 -0.4995
 2865TIP3   OH230153   6.075   6.799   1.612  0.3980 -0.1438 -0.7559
 2865TIP3    H130154   5.990   6.834   1.640  0.2155 -0.6248 -0.6928
 2865TIP3    H230155   6.055   6.748   1.534  0.8423  0.8369 -1.5389
 2866TIP3   OH230156   4.766   4.308   1.415 -0.4863  0.6971 -0.4321
 2866TIP3    H130157   4.809   4.388   1.384 -0.7560  0.4399 -1.5291
 2866TIP3    H230158   4.689   4.300   1.359 -1.0178  0.2091  0.3475
 2867TIP3   OH230159   5.865   6.715   1.955 -0.0806  0.2777  0.1965
 2867TIP3    H130160   5.870   6.810   1.957  0.6590  0.2791 -0.8471
 2867TIP3    H230161   5.849   6.694   1.862  0.1958 -0.6264  0.3447
 2868TIP3   OH230162   1.786   0.423   1.455  0.2418  0.1117  0.5926
 2868TIP3    H130163   1.788   0.357   1.385  0.9243  0.5623  0.1797
 2868TIP3    H230164   1.779   0.506   1.409  1.3238  0.4547  1.0318
 2869TIP3   OH230165   3.004   5.688   8.564 -0.8427 -0.1146 -0.4014
 2869TIP3    H130166   3.052   5.765   8.532 -0.8494 -0.3406 -0.9659
 2869TIP3    H230167   2.912   5.712   8.554 -0.9127  0.7926  1.7933
 2870TIP3   OH230168   6.659   0.949   1.704 -0.6763  0.4383 -0.4947
 2870TIP3    H130169   6.622   1.004   1.635 -3.3056  1.7401  1.7443
 2870TIP3    H230170   6.594   0.879   1.715  0.5308 -0.7089 -0.4083
 2871TIP3   OH230171   3.014   4.159   7.207  0.2632  0.4442  0.1497
 2871TIP3    H130172   3.036   4.101   7.280 -0.2548  0.7471  0.5574
 2871TIP3    H230173   3.080   4.140   7.140 -0.4838 -1.3665 -0.1414
 2872TIP3   OH230174   2.976   1.129   1.371  0.1433 -1.0928 -0.3144
 2872TIP3    H130175   3.016   1.194   1.313 -0.0042 -0.2297  0.5239
 2872TIP3    H230176   3.036   1.054   1.369  0.9595 -0.4509 -0.3341
 2873TIP3   OH230177   5.572   3.263   6.740  0.1756 -0.1795  0.1259
 2873TIP3    H130178   5.653   3.215   6.726  0.0031 -0.2928 -0.5199
 2873TIP3    H230179   5.503   3.204   6.709 -0.0438  0.4345 -0.6058
 2874TIP3   OH230180   5.103   2.415   1.596  0.6134  0.2739  0.1082
 2874TIP3    H130181   5.188   2.406   1.640 -0.0051  0.3047  1.3534
 2874TIP3    H230182   5.039   2.387   1.662 -0.4701  1.8926 -0.2041
 2875TIP3   OH230183   3.199   5.103   6.504  0.4735  0.2532 -0.0166
 2875TIP3    H130184   3.283   5.129   6.541  0.7900 -2.4782  1.4526
 2875TIP3    H230185   3.216   5.018   6.464 -0.9138  1.1166 -2.6674
 2876TIP3   OH230186   2.630   5.220   0.444 -0.7943  0.3459 -0.3765
 2876TIP3    H130187   2.619   5.311   0.415 -0.9156 -0.0892 -1.7771
 2876TIP3    H230188   2.595   5.219   0.533  0.3333  1.9292  0.1249
 2877TIP3   OH230189   5.663   6.125   0.115 -0.5930 -0.1298 -0.2680
 2877TIP3    H130190   5.603   6.141   0.042 -0.9875 -0.2317  0.0313
 2877TIP3    H230191   5.622   6.169   0.190 -0.0907  0.1448 -0.1536
 2878TIP3   OH230192   5.040   4.780   7.939 -0.1457 -0.4157  0.2137
 2878TIP3    H130193   4.973   4.849   7.940  0.2130 -0.0698  0.7639
 2878TIP3    H230194   5.006   4.715   7.877 -1.1816 -0.4325  0.7738
 2879TIP3   OH230195   0.461   4.385   8.232  0.5732 -0.7032 -0.0389
 2879TIP3    H130196   0.484   4.306   8.280  1.2365 -0.8840 -0.6472
 2879TIP3    H230197   0.369   4.373   8.209  1.1212 -2.1359 -1.6848
 2880TIP3   OH230198   3.387   2.756   6.884  0.8065 -0.2562 -0.0567
 2880TIP3    H130199   3.472   2.741   6.925  0.9127 -2.2257 -0.8952
 2880TIP3    H230200   3.341   2.672   6.891 -0.8864  0.6042 -0.1040
 2881TIP3   OH230201   0.325   4.970   8.643  0.2084  0.5167 -0.1155
 2881TIP3    H130202   0.350   4.931   8.727  0.0041  1.0046  0.1782
 2881TIP3    H230203   0.301   5.060   8.665 -1.7127  0.1225 -0.3616
 2882TIP3   OH230204   5.345   4.622   7.802 -0.5997 -0.4048  0.6081
 2882TIP3    H130205   5.358   4.711   7.769 -1.1343 -0.9858 -1.2633
 2882TIP3    H230206   5.291   4.634   7.881 -1.1419  0.8967  0.0769
 2883TIP3   OH230207   6.668   1.886   7.584 -0.0935  0.2729  0.0166
 2883TIP3    H130208   6.743   1.829   7.603  0.1031 -0.6843 -3.1420
 2883TIP3    H230209   6.592   1.834   7.609  0.1429 -0.8864 -1.5554
 2884TIP3   OH230210   6.857   1.400   7.226 -0.2503 -0.0789  0.2507
 2884TIP3    H130211   6.883   1.389   7.135 -0.0365 -1.5461  0.4591
 2884TIP3    H230212   6.814   1.318   7.249 -0.9399  0.5445  1.2690
 2885TIP3   OH230213   4.492   5.629   2.811 -0.3045 -0.5719 -0.6990
 2885TIP3    H130214   4.588   5.629   2.817 -0.3778 -0.0891  1.1119
 2885TIP3    H230215   4.472   5.697   2.747  0.5489 -0.3003 -0.6932
 2886TIP3   OH230216   6.787   1.923   1.293 -0.8960  0.0848  0.3522
 2886TIP3    H130217   6.840   1.954   1.219 -1.0150 -0.3648  0.0763
 2886TIP3    H230218   6.701   1.906   1.255 -0.7572 -0.8561  0.4333
 2887TIP3   OH230219   5.452   4.937   1.386  0.6048  1.0556 -0.1711
 2887TIP3    H130220   5.511   5.011   1.371  1.0207  0.5294 -1.2324
 2887TIP3    H230221   5.436   4.938   1.480  3.5895  0.3110  0.4707
 2888TIP3   OH230222   6.464   6.048   8.523 -0.2734  0.3345 -0.4082
 2888TIP3    H130223   6.384   6.097   8.509  0.3295  1.8395  1.0004
 2888TIP3    H230224   6.448   5.999   8.604 -0.9157 -1.9896 -1.8637
 2889TIP3   OH230225   5.259   2.352   8.638 -0.0774 -0.0627 -0.2589
 2889TIP3    H130226   5.183   2.404   8.666 -0.0134 -0.2587  0.3018
 2889TIP3    H230227   5.318   2.355   8.714 -0.2331 -1.2672 -0.0670
 2890TIP3   OH230228   1.458   0.071   2.054  0.5352  0.7245  0.2799
 2890TIP3    H130229   1.514   0.136   2.012  1.4415  0.4203  0.9951
 2890TIP3    H230230   1.518   0.013   2.101  0.0013 -2.0686 -2.1638
 2891TIP3   OH230231   2.157   6.442   2.683 -0.5719 -0.0610 -0.0191
 2891TIP3    H130232   2.101   6.423   2.758 -0.2650 -0.1205  0.1960
 2891TIP3    H230233   2.164   6.537   2.681 -0.5270 -0.0630  0.0649
 2892TIP3   OH230234   3.222   3.426   0.400  0.0269  0.1120 -1.0472
 2892TIP3    H130235   3.304   3.433   0.351  0.5397 -2.4815 -0.6931
 2892TIP3    H230236   3.155   3.417   0.332  0.4751 -1.1662 -1.3578
 2893TIP3   OH230237   6.783   2.359   0.468  0.7676 -0.6624 -0.0355
 2893TIP3    H130238   6.848   2.394   0.407  0.4114  0.6320  0.2970
 2893TIP3    H230239   6.824   2.366   0.554 -0.7949  3.0505  0.6189
 2894TIP3   OH230240   5.252   1.847   1.608  0.2516 -0.2281 -0.3926
 2894TIP3    H130241   5.195   1.782   1.568  0.5806  1.0605 -3.2113
 2894TIP3    H230242   5.197   1.925   1.619  0.1847 -0.5295  1.7534
 2895TIP3   OH230243   1.583   1.578   6.642  0.5562 -0.1003  0.3695
 2895TIP3    H130244   1.584   1.625   6.726 -1.9190  0.9986 -0.1452
 2895TIP3    H230245   1.636   1.634   6.585  0.3807  0.3390  0.6229
 2896TIP3   OH230246   3.191   3.531   8.078  0.7977  0.0315  0.5076
 2896TIP3    H130247   3.198   3.494   8.166 -0.4308 -2.8578 -0.5115
 2896TIP3    H230248   3.118   3.593   8.084  1.4530  0.7287  1.7371
 2897TIP3   OH230249   2.082   5.652   7.656  0.6473 -0.1021 -0.7291
 2897TIP3    H130250   2.143   5.632   7.585  0.2291 -0.7477 -0.9165
 2897TIP3    H230251   2.138   5.664   7.733  1.0208 -0.6296 -0.9100
 2898TIP3   OH230252   0.424   5.116   8.414 -0.6738  0.5797  0.6990
 2898TIP3    H130253   0.500   5.174   8.416 -0.2888  0.1462 -0.3319
 2898TIP3    H230254   0.435   5.058   8.490  1.9940 -1.8287 -1.3021
 2899TIP3   OH230255   4.163   3.006   6.895  0.1305 -0.7142 -0.5502
 2899TIP3    H130256   4.098   3.054   6.947  0.4339 -1.9388  1.0457
 2899TIP3    H230257   4.115   2.931   6.860  0.1013 -0.2634 -1.5184
 2900TIP3   OH230258   3.982   4.355   1.709 -0.1633  0.2126  0.3865
 2900TIP3    H130259   3.962   4.301   1.633 -1.1491  0.8904  0.1467
 2900TIP3    H230260   4.001   4.293   1.779 -0.5090 -0.4332 -0.0836
 2901TIP3   OH230261   5.781   4.715   1.788 -0.0104 -0.1205  0.1074
 2901TIP3    H130262   5.848   4.774   1.755 -1.1842  1.5228  0.4935
 2901TIP3    H230263   5.826   4.632   1.803  1.7160  0.6783 -0.4364
 2902TIP3   OH230264   0.463   4.287   8.575  0.1418  0.6920  0.1450
 2902TIP3    H130265   0.525   4.223   8.538  0.3851 -0.1773  1.9218
 2902TIP3    H230266   0.400   4.302   8.506  0.7790 -0.5625 -0.7495
 2903TIP3   OH230267   5.589   6.011   7.957  0.3119  0.2547  0.0626
 2903TIP3    H130268   5.640   5.981   7.882  0.7175 -0.8212  0.7567
 2903TIP3    H230269   5.510   5.957   7.957  0.2199  0.3844  0.2910
 2904TIP3   OH230270   2.188   0.456   1.036 -0.3055 -0.0319 -0.0549
 2904TIP3    H130271   2.118   0.434   1.098  2.2950 -1.2519  2.6864
 2904TIP3    H230272   2.215   0.545   1.061  0.6487 -0.4646  0.4822
 2905TIP3   OH230273   4.904   6.860   8.088 -0.5179 -0.3531 -0.3910
 2905TIP3    H130274   4.886   6.938   8.036 -0.0859 -0.1823 -0.2924
 2905TIP3    H230275   4.997   6.866   8.109 -0.6682 -0.4508  0.3490
 2906TIP3   OH230276   1.659   2.389   8.623 -0.2098  0.2654 -0.4938
 2906TIP3    H130277   1.678   2.373   8.716 -1.0786 -0.5340 -0.4403
 2906TIP3    H230278   1.719   2.459   8.598  1.2788 -0.7072  0.2064
 2907TIP3   OH230279   4.709   0.107   0.666  0.1165 -0.1100 -0.4905
 2907TIP3    H130280   4.759   0.188   0.654  1.8685 -1.3473 -2.3723
 2907TIP3    H230281   4.756   0.059   0.734 -1.1011  0.5238  0.8499
 2908TIP3   OH230282   5.733   0.270   1.762 -0.0090 -0.1458 -0.4749
 2908TIP3    H130283   5.713   0.338   1.697  0.1508  1.1947  0.8325
 2908TIP3    H230284   5.719   0.188   1.715 -1.8219  0.7570 -1.6398
 2909TIP3   OH230285   5.647   2.726   1.544  0.2689 -0.1720  0.1991
 2909TIP3    H130286   5.665   2.693   1.632  1.1297  0.1314  0.1376
 2909TIP3    H230287   5.578   2.668   1.511 -1.0733  0.5527  1.5845
 2910TIP3   OH230288   2.207   3.212   8.534 -0.4282 -0.7892  0.3789
 2910TIP3    H130289   2.248   3.136   8.575 -1.4154 -1.5687 -0.0540
 2910TIP3    H230290   2.117   3.185   8.517 -0.9362  0.6393  0.6383
 2911TIP3   OH230291   6.615   6.589   8.064  0.2953 -0.1749 -0.0662
 2911TIP3    H130292   6.590   6.587   8.157 -0.2140  0.3489 -0.1833
 2911TIP3    H230293   6.606   6.498   8.034 -0.4236 -0.1860  0.1727
 2912TIP3   OH230294   6.505   2.931   1.034 -0.3170  0.7085 -0.1318
 2912TIP3    H130295   6.593   2.961   1.057 -0.0812  1.4191 -1.7807
 2912TIP3    H230296   6.498   2.844   1.073  0.4452  1.3404  1.4848
 2913TIP3   OH230297   1.194   0.383   8.153 -0.3845  0.0078 -0.3303
 2913TIP3    H130298   1.130   0.320   8.185  0.2801  0.3927  1.9271
 2913TIP3    H230299   1.276   0.334   8.150 -0.0624  0.4702  0.4943
 2914TIP3   OH230300   4.638   2.205   0.190 -0.2045 -0.4003  0.1563
 2914TIP3    H130301   4.667   2.275   0.131 -0.3934 -0.3561  0.1143
 2914TIP3    H230302   4.681   2.224   0.273  0.0154 -0.4277  0.0502
 2915TIP3   OH230303   0.772   0.784   0.353 -0.2906  0.1698 -0.3761
 2915TIP3    H130304   0.837   0.753   0.415 -0.0582  0.4314 -0.4829
 2915TIP3    H230305   0.794   0.877   0.340 -2.5308  1.1418  1.9288
 2916TIP3   OH230306   5.007   0.852   1.495 -0.0738  0.6616  0.3607
 2916TIP3    H130307   4.975   0.820   1.579  1.5171 -0.7607  0.4795
 2916TIP3    H230308   5.099   0.871   1.510  0.0673  1.0526 -0.8881
 2917TIP3   OH230309   1.770   2.951   1.760 -0.2756  0.0635 -0.0931
 2917TIP3    H130310   1.729   3.036   1.774  2.1351  1.2337  0.3814
 2917TIP3    H230311   1.848   2.953   1.816  0.4508 -2.0149 -0.9424
 2918TIP3   OH230312   1.317   2.398   7.391  0.0703  0.4276 -0.9754
 2918TIP3    H130313   1.373   2.326   7.417 -1.5294 -0.9119 -1.0620
 2918TIP3    H230314   1.306   2.387   7.296 -1.0102  0.1467 -0.8268
 2919TIP3   OH230315   3.706   6.461   1.516 -0.2859 -0.6440 -0.2142
 2919TIP3    H130316   3.690   6.508   1.598 -1.1185 -0.5623 -0.4133
 2919TIP3    H230317   3.641   6.497   1.455  0.9975  0.0424 -1.2205
 2920TIP3   OH230318   3.214   1.703   1.907 -0.8921  0.4926  0.1951
 2920TIP3    H130319   3.144   1.746   1.858 -0.3188 -0.0058 -1.1245
 2920TIP3    H230320   3.275   1.774   1.929 -1.0448  0.6938 -0.0310
 2921TIP3   OH230321   2.870   3.102   7.548 -0.2609  0.2325  0.0677
 2921TIP3    H130322   2.918   3.165   7.601 -0.8153  0.0552  0.7877
 2921TIP3    H230323   2.852   3.148   7.466  1.2800  0.2485 -0.2893
 2922TIP3   OH230324   5.413   5.494   6.726  0.3193  0.3766  0.3601
 2922TIP3    H130325   5.343   5.550   6.759  1.3983  1.5258  0.7611
 2922TIP3    H230326   5.387   5.475   6.635  0.0509  1.7533  0.1234
 2923TIP3   OH230327   6.506   4.650   0.804  0.3281  0.4552 -1.3712
 2923TIP3    H130328   6.548   4.576   0.761  1.3101  1.3186 -1.9525
 2923TIP3    H230329   6.431   4.671   0.748  0.6144  0.5003 -1.7453
 2924TIP3   OH230330   2.007   2.138   2.145  0.6816 -0.6730  0.2080
 2924TIP3    H130331   2.047   2.118   2.229 -0.3136  0.2910  0.9376
 2924TIP3    H230332   1.972   2.055   2.114 -0.0017 -0.8219  1.3305
 2925TIP3   OH230333   0.249   2.788   2.270  0.0812 -0.6413 -1.2036
 2925TIP3    H130334   0.204   2.795   2.186  1.5149 -1.0456 -2.0436
 2925TIP3    H230335   0.326   2.735   2.252  1.3366  0.6788 -0.0079
 2926TIP3   OH230336   5.245   3.916   0.600  0.4927  0.2635  0.2736
 2926TIP3    H130337   5.327   3.962   0.617  0.3110  0.3400  0.9579
 2926TIP3    H230338   5.181   3.987   0.590 -0.0701  0.1906  2.7244
 2927TIP3   OH230339   3.806   2.824   0.044 -0.6957 -0.1225 -0.0034
 2927TIP3    H130340   3.795   2.733   0.017  0.4136 -0.3820  0.3601
 2927TIP3    H230341   3.827   2.870  -0.037  1.0286 -0.6151  0.1316
 2928TIP3   OH230342   0.829   0.701   7.518  0.2136  0.4114 -0.2213
 2928TIP3    H130343   0.809   0.623   7.466  1.6633  0.0187 -0.2408
 2928TIP3    H230344   0.836   0.669   7.607  0.3901  0.5988 -0.1674
 2929TIP3   OH230345   6.133   3.185   6.910  0.1630 -0.6391  0.1168
 2929TIP3    H130346   6.199   3.181   6.979  0.7177  1.4853 -0.2114
 2929TIP3    H230347   6.052   3.209   6.956  0.4454  0.3859  0.0930
 2930TIP3   OH230348   1.845   0.313   6.740  0.0651 -0.2863  0.1641
 2930TIP3    H130349   1.878   0.223   6.740  0.3408 -0.2276 -1.7998
 2930TIP3    H230350   1.921   0.366   6.760 -0.0174 -0.4613  0.9617
 2931TIP3   OH230351   1.358   4.949   1.250  0.4368  0.0487 -0.2504
 2931TIP3    H130352   1.389   5.036   1.273 -0.3612 -0.1135  1.5987
 2931TIP3    H230353   1.429   4.890   1.276  0.1673 -0.0044  0.3824
 2932TIP3   OH230354   1.472   1.981   2.678  0.7386 -0.4791 -0.0322
 2932TIP3    H130355   1.562   1.946   2.676  1.1200  0.4720 -1.3477
 2932TIP3    H230356   1.478   2.063   2.628 -0.7678 -0.1476  0.3034
 2933TIP3   OH230357   6.179   0.485   0.948 -0.1275  0.1307 -0.6671
 2933TIP3    H130358   6.103   0.427   0.938 -0.2450  0.2759 -0.6191
 2933TIP3    H230359   6.254   0.426   0.943 -0.2835 -0.2171  0.7050
 2934TIP3   OH230360   5.736   2.997   0.639 -0.5341 -0.7074  0.4313
 2934TIP3    H130361   5.743   2.911   0.598 -1.4789 -0.2616 -0.7535
 2934TIP3    H230362   5.649   3.029   0.612 -0.7556  0.0713  1.9363
 2935TIP3   OH230363   1.576   5.636   7.240  0.2699 -0.4628 -0.4259
 2935TIP3    H130364   1.670   5.637   7.225  0.3544 -0.1096  0.1327
 2935TIP3    H230365   1.540   5.688   7.168  0.7201  1.7227  0.8702
 2936TIP3   OH230366   3.760   2.007   2.240 -0.3374 -0.3389  0.3632
 2936TIP3    H130367   3.708   2.088   2.241  1.4428  0.8889 -0.9645
 2936TIP3    H230368   3.791   1.997   2.330  0.4354  1.1769  0.2918
 2937TIP3   OH230369   2.407   5.587   1.137 -0.3075  0.5313  0.1233
 2937TIP3    H130370   2.493   5.588   1.096  0.3302 -0.2521  1.3754
 2937TIP3    H230371   2.392   5.679   1.162 -0.1414  0.7846 -0.6819
 2938TIP3   OH230372   4.532   3.260   7.620  0.1987 -0.2382 -0.2055
 2938TIP3    H130373   4.489   3.345   7.614 -0.9356 -0.7776  0.0158
 2938TIP3    H230374   4.590   3.258   7.544  0.1589  0.6864 -0.2724
 2939TIP3   OH230375   4.688   0.495   1.558 -0.6095 -0.0368  0.2907
 2939TIP3    H130376   4.689   0.568   1.496 -0.4650 -0.5894 -0.3750
 2939TIP3    H230377   4.725   0.531   1.639 -1.7259  0.9642  0.3742
 2940TIP3   OH230378   2.334   4.519   7.348 -0.0166  0.1721 -0.1686
 2940TIP3    H130379   2.310   4.464   7.423  0.7290  3.5243  2.8577
 2940TIP3    H230380   2.251   4.540   7.306 -0.3510 -2.7030 -1.1357
 2941TIP3   OH230381   3.134   3.047   0.128  0.3959  0.4607 -0.5301
 2941TIP3    H130382   3.210   3.020   0.076  0.2644 -0.0378 -0.4617
 2941TIP3    H230383   3.133   3.143   0.119  0.3638  0.3822 -1.4611
 2942TIP3   OH230384   2.496   1.550   0.736 -0.3115 -0.3515 -0.1744
 2942TIP3    H130385   2.457   1.466   0.762 -0.0702 -0.4621 -0.1658
 2942TIP3    H230386   2.588   1.543   0.762 -0.8005  0.9037  2.1727
 2943TIP3   OH230387   2.206   6.177   6.740  0.0697  0.0823  0.6384
 2943TIP3    H130388   2.274   6.199   6.803  0.1719  1.6609  0.0233
 2943TIP3    H230389   2.202   6.081   6.741  1.9864 -0.0344  1.0095
 2944TIP3   OH230390   0.576   5.137   1.814  0.4739  0.4410  0.0447
 2944TIP3    H130391   0.665   5.117   1.787  1.4264 -0.8137  3.4840
 2944TIP3    H230392   0.538   5.051   1.836 -1.8530  0.8724 -1.8926
 2945TIP3   OH230393   6.305   3.647   2.796 -0.0488  0.2765  0.0369
 2945TIP3    H130394   6.228   3.703   2.784  0.0704  0.1452 -1.6061
 2945TIP3    H230395   6.270   3.566   2.832 -0.6309  0.3886 -0.2594
 2946TIP3   OH230396   1.522   0.343   1.637 -0.1028  0.4945  0.0032
 2946TIP3    H130397   1.506   0.420   1.691 -2.4262 -0.2504  0.4808
 2946TIP3    H230398   1.490   0.367   1.550  1.5500  0.9083 -0.5301
 2947TIP3   OH230399   0.245   6.460   1.182 -0.0408  0.5091 -0.5797
 2947TIP3    H130400   0.156   6.482   1.152  0.7545  1.3093 -2.5177
 2947TIP3    H230401   0.267   6.530   1.244 -0.7817  0.2392  0.0060
 2948TIP3   OH230402   3.510   5.572   8.186  0.0315  0.7999 -0.0009
 2948TIP3    H130403   3.583   5.511   8.200  0.5408  1.6115  1.0914
 2948TIP3    H230404   3.457   5.531   8.118  1.5623  0.2389 -0.9059
 2949TIP3   OH230405   0.444   4.471   6.833 -0.2190 -0.0819  0.0679
 2949TIP3    H130406   0.514   4.406   6.830 -0.7495 -0.6678  0.1679
 2949TIP3    H230407   0.384   4.438   6.901 -0.7869  0.2038 -0.2918
 2950TIP3   OH230408   2.696   1.617   7.948  0.3469 -0.9205 -0.5272
 2950TIP3    H130409   2.788   1.641   7.934  0.0561 -0.5004 -1.8359
 2950TIP3    H230410   2.696   1.522   7.950  0.8013 -0.9243 -0.6027
 2951TIP3   OH230411   3.946   4.055   2.166 -0.1850  0.3364 -0.7117
 2951TIP3    H130412   4.037   4.082   2.176 -0.3156  0.0732  1.8541
 2951TIP3    H230413   3.945   3.963   2.191 -1.3021  0.6527  0.5813
 2952TIP3   OH230414   6.487   6.512   1.685 -0.8655 -0.0412 -0.4305
 2952TIP3    H130415   6.569   6.500   1.733 -0.4555  0.6382 -0.9549
 2952TIP3    H230416   6.419   6.500   1.751 -0.3286  0.0789  0.1549
 2953TIP3   OH230417   6.591   4.067   7.235 -0.0112 -0.5112 -0.5376
 2953TIP3    H130418   6.587   4.017   7.153 -0.3148 -0.9077 -0.2800
 2953TIP3    H230419   6.573   4.157   7.208 -0.1180 -0.6394 -0.9092
 2954TIP3   OH230420   4.652   4.260   7.811  0.5828  0.4289  0.3167
 2954TIP3    H130421   4.747   4.269   7.815  0.5972  0.2874  0.2920
 2954TIP3    H230422   4.635   4.169   7.837  0.3896  0.7361  1.3326
 2955TIP3   OH230423   4.522   5.157   1.458  0.1796 -0.2508  0.0148
 2955TIP3    H130424   4.437   5.118   1.439  0.1036  0.0535 -0.2748
 2955TIP3    H230425   4.547   5.120   1.543 -0.5686  0.2117  0.4472
 2956TIP3   OH230426   5.932   6.868   7.524  0.2408 -0.0858  0.0670
 2956TIP3    H130427   5.998   6.846   7.458  0.0562 -0.9805  0.1576
 2956TIP3    H230428   5.849   6.842   7.483 -0.1447  1.6347 -0.3134
 2957TIP3   OH230429   3.964   5.644   1.511 -0.2356 -0.4466  0.1830
 2957TIP3    H130430   3.980   5.558   1.549 -0.1808 -0.1605  0.8175
 2957TIP3    H230431   3.956   5.627   1.417  0.3039 -1.0748  0.2378
 2958TIP3   OH230432   1.771   3.607   7.439  0.2227 -0.4017  0.2235
 2958TIP3    H130433   1.839   3.541   7.453  0.4573 -0.4232 -0.9715
 2958TIP3    H230434   1.732   3.585   7.355 -0.3048  0.4596  0.2258
 2959TIP3   OH230435   5.211   0.572   1.843  0.5704 -0.2657 -0.1245
 2959TIP3    H130436   5.240   0.624   1.918 -0.7937 -0.7150  0.7580
 2959TIP3    H230437   5.290   0.557   1.792  2.4024 -3.1802  3.1746
 2960TIP3   OH230438   5.119   1.675   1.458  0.1697  0.3737 -0.5812
 2960TIP3    H130439   5.033   1.698   1.492  0.4620  1.8539 -0.7556
 2960TIP3    H230440   5.108   1.676   1.363 -0.4956 -3.1520 -0.6969
 2961TIP3   OH230441   4.003   5.066   1.692 -0.3593 -0.2488 -0.3146
 2961TIP3    H130442   3.919   5.111   1.679  0.0625  0.3106 -1.2029
 2961TIP3    H230443   4.054   5.088   1.614 -0.6079 -3.3079 -1.5231
 2962TIP3   OH230444   3.491   6.266   1.283 -0.4247 -0.2324 -0.2184
 2962TIP3    H130445   3.480   6.361   1.292  2.1440  0.1935 -0.8079
 2962TIP3    H230446   3.576   6.256   1.239 -0.7737 -2.8126 -0.4368
 2963TIP3   OH230447   0.466   4.858   0.961 -0.5899 -0.3114  0.3750
 2963TIP3    H130448   0.507   4.793   1.019 -0.3860  0.0134  0.5976
 2963TIP3    H230449   0.373   4.850   0.979 -0.4846  0.2316  1.2261
 2964TIP3   OH230450   5.819   4.722   7.732 -0.5289  0.1228  0.3364
 2964TIP3    H130451   5.735   4.680   7.750  0.2037 -1.7102 -0.2933
 2964TIP3    H230452   5.799   4.790   7.668 -1.6396  0.2559  0.8005
 2965TIP3   OH230453   3.336   6.303   1.007 -0.3167  0.4128 -0.3633
 2965TIP3    H130454   3.342   6.265   1.094  0.6329 -0.8425 -0.9411
 2965TIP3    H230455   3.244   6.324   0.995 -0.5531  0.0066  0.6936
 2966TIP3   OH230456   4.488   1.662   8.250  0.1837  0.1002 -0.3571
 2966TIP3    H130457   4.476   1.569   8.269 -0.7552  0.7603  2.9104
 2966TIP3    H230458   4.414   1.705   8.294  0.5821  2.4023 -1.7879
 2967TIP3   OH230459   2.528   0.367   2.176 -0.1664 -0.1536 -0.5620
 2967TIP3    H130460   2.543   0.434   2.109 -0.4893 -0.0080 -0.4887
 2967TIP3    H230461   2.613   0.324   2.185  0.3754  1.0169  0.2314
 2968TIP3   OH230462   2.112   0.872   8.344  0.2675  0.8352 -0.4406
 2968TIP3    H130463   2.019   0.886   8.361  0.3640  2.3216 -0.9776
 2968TIP3    H230464   2.140   0.812   8.412 -1.0975  0.3237 -0.2994
 2969TIP3   OH230465   5.337   2.473   2.744 -0.3145 -0.3136 -0.2861
 2969TIP3    H130466   5.290   2.554   2.729  1.8241  1.3084  1.1566
 2969TIP3    H230467   5.367   2.446   2.657 -1.0396  0.4418 -0.7775
 2970TIP3   OH230468   3.669   3.451   1.234 -0.6306  0.2757 -0.4095
 2970TIP3    H130469   3.666   3.520   1.168  2.0982 -1.3312 -2.4464
 2970TIP3    H230470   3.584   3.408   1.228 -0.8822  0.9330 -2.0517
 2971TIP3   OH230471   1.263   3.370   0.992 -0.4741  0.1323 -0.6049
 2971TIP3    H130472   1.318   3.322   0.931  1.0868 -0.7326  1.3645
 2971TIP3    H230473   1.175   3.366   0.954  0.0331 -2.2687 -1.6735
 2972TIP3   OH230474   3.415   2.880   1.086 -0.2928 -0.3230 -0.2448
 2972TIP3    H130475   3.357   2.953   1.112 -0.2549 -0.2431 -0.3849
 2972TIP3    H230476   3.496   2.896   1.134 -0.7739 -1.0672  0.8553
 2973TIP3   OH230477   5.638   5.172   8.625  0.1618 -0.0720 -0.0292
 2973TIP3    H130478   5.552   5.163   8.585 -0.0691  1.1320  0.1668
 2973TIP3    H230479   5.660   5.264   8.615  0.4949  0.0807  1.8073
 2974TIP3   OH230480   2.701   0.403   8.020  0.4526  0.4658  0.4374
 2974TIP3    H130481   2.701   0.326   8.076 -2.4499  1.1049  1.5105
 2974TIP3    H230482   2.655   0.375   7.941 -2.3828  1.4517  1.6141
 2975TIP3   OH230483   5.805   6.458   8.462 -0.2387  0.1287  0.1331
 2975TIP3    H130484   5.895   6.433   8.441  0.0851 -0.4133  2.0389
 2975TIP3    H230485   5.813   6.512   8.540 -1.4222  1.8185 -0.8382
 2976TIP3   OH230486   1.916   4.689   8.134  0.2317 -0.5931  0.5693
 2976TIP3    H130487   1.895   4.661   8.223 -0.2539  2.0562  1.3672
 2976TIP3    H230488   2.011   4.677   8.126  0.0883 -2.1180  0.9303
 2977TIP3   OH230489   3.765   2.376   8.254 -0.1169 -0.0447 -0.3619
 2977TIP3    H130490   3.799   2.394   8.341 -0.5974 -1.3569  0.1240
 2977TIP3    H230491   3.800   2.289   8.232 -0.9923 -0.2604 -0.9575
 2978TIP3   OH230492   4.900   4.728   7.462  0.1611  0.2108 -0.4152
 2978TIP3    H130493   4.813   4.756   7.488 -1.0293 -2.8220 -0.7722
 2978TIP3    H230494   4.887   4.684   7.378  1.9338 -0.8458 -0.1783
 2979TIP3   OH230495   1.194   5.766   2.606 -0.6763 -0.3119  0.2764
 2979TIP3    H130496   1.227   5.729   2.524  1.2768  0.3191  0.7225
 2979TIP3    H230497   1.154   5.692   2.651  0.7940 -1.3349 -0.0111
 2980TIP3   OH230498   4.542   5.279   1.745 -0.2880  0.3796 -0.3854
 2980TIP3    H130499   4.526   5.366   1.708 -1.4248  1.6110  2.6662
 2980TIP3    H230500   4.629   5.285   1.785 -0.6043  0.3541  0.3349
 2981TIP3   OH230501   3.082   1.746   6.976 -0.0755 -0.5641 -0.3616
 2981TIP3    H130502   3.089   1.784   6.889 -1.4647  0.5624 -0.0228
 2981TIP3    H230503   3.156   1.686   6.983 -0.3896 -1.2779 -2.6055
 2982TIP3   OH230504   1.428   4.138   8.588 -0.0668 -0.1748  0.2710
 2982TIP3    H130505   1.346   4.090   8.580 -0.3257  0.3981 -0.5953
 2982TIP3    H230506   1.404   4.222   8.627  0.0460  0.1641 -0.3905
 2983TIP3   OH230507   2.502   2.248   8.307 -0.9946  0.1000  0.1408
 2983TIP3    H130508   2.500   2.265   8.401 -2.2478  0.3281  0.0788
 2983TIP3    H230509   2.418   2.206   8.288  0.0169 -1.7734 -0.5445
 2984TIP3   OH230510   1.806   4.058   2.313 -0.3211  0.1631  0.2511
 2984TIP3    H130511   1.893   4.020   2.323 -0.3570 -0.2563 -0.9037
 2984TIP3    H230512   1.758   3.994   2.259 -0.0973  2.2021 -2.5867
 2985TIP3   OH230513   2.196   1.040   1.947 -0.1393  0.1571  0.0103
 2985TIP3    H130514   2.232   1.004   2.028 -0.3758 -1.5286 -0.5969
 2985TIP3    H230515   2.128   0.978   1.921 -0.6690  1.1331 -1.0227
 2986TIP3   OH230516   5.843   6.065   0.497  0.6154  0.4264  0.0289
 2986TIP3    H130517   5.861   5.990   0.441 -1.7756  0.7328 -1.3060
 2986TIP3    H230518   5.789   6.030   0.568 -0.1323  0.7843 -0.3532
 2987TIP3   OH230519   3.631   6.322   0.501 -0.5310 -0.2025  0.2320
 2987TIP3    H130520   3.638   6.243   0.554  0.4038  0.1212  0.6148
 2987TIP3    H230521   3.560   6.304   0.440 -1.0750 -0.8984  1.0504
 2988TIP3   OH230522   1.228   1.980   7.361 -0.1804  0.7722 -0.2199
 2988TIP3    H130523   1.218   1.982   7.456  0.5171 -1.1989 -0.0713
 2988TIP3    H230524   1.183   2.060   7.331  0.5922  2.0554  1.8165
 2989TIP3   OH230525   6.628   0.200   7.933 -0.4877 -0.6054  0.0680
 2989TIP3    H130526   6.702   0.235   7.982 -2.0655  1.7630  0.9562
 2989TIP3    H230527   6.610   0.115   7.973 -0.8807  0.6552  2.8252
 2990TIP3   OH230528   2.013   5.364   8.176 -0.0558 -0.6644  0.4657
 2990TIP3    H130529   1.941   5.395   8.231 -1.0831 -0.4404 -0.9278
 2990TIP3    H230530   1.992   5.273   8.157  0.2347 -0.7146  0.3824
 2991TIP3   OH230531   6.474   6.082   1.415 -0.0269 -0.1870  0.3370
 2991TIP3    H130532   6.502   6.173   1.424  2.8399 -0.9492  0.2912
 2991TIP3    H230533   6.459   6.071   1.321 -0.6845  0.2891  0.3801
 2992TIP3   OH230534   2.485   5.072   2.704 -0.2312  0.2910  0.0935
 2992TIP3    H130535   2.423   5.099   2.771 -0.3343  1.3170 -0.3984
 2992TIP3    H230536   2.474   5.135   2.633 -1.1793 -1.5970 -1.5516
 2993TIP3   OH230537   2.921   1.965   7.692  0.1047  0.4569  0.1457
 2993TIP3    H130538   2.867   1.891   7.665  0.9025 -0.8986  2.0279
 2993TIP3    H230539   2.869   2.042   7.670 -1.3331 -0.6962 -0.6768
 2994TIP3   OH230540   6.784   4.697   0.586  0.0044  0.2690 -0.7212
 2994TIP3    H130541   6.709   4.660   0.541  0.7550  0.5846 -2.2818
 2994TIP3    H230542   6.848   4.714   0.517  0.8563  1.6051  0.3487
 2995TIP3   OH230543   1.298   4.050   2.610  0.3348 -0.2293 -0.2106
 2995TIP3    H130544   1.333   3.970   2.569  1.6558  0.5037 -0.5658
 2995TIP3    H230545   1.255   4.096   2.538  0.3504 -0.1950 -0.1979
 2996TIP3   OH230546   0.485   6.147   6.880  0.0269  0.1772 -0.1203
 2996TIP3    H130547   0.447   6.184   6.960  0.8640  1.4982 -0.3101
 2996TIP3    H230548   0.551   6.211   6.853  1.4069 -1.3649 -0.5744
 2997TIP3   OH230549   4.828   4.686   8.498  0.0607 -0.6624  0.5884
 2997TIP3    H130550   4.848   4.608   8.549  0.5556 -1.1582 -0.3355
 2997TIP3    H230551   4.898   4.691   8.433 -2.2809 -2.0559 -2.2997
 2998TIP3   OH230552   5.375   4.350   2.876  0.3523 -0.1024 -0.3947
 2998TIP3    H130553   5.302   4.287   2.871  0.5579 -0.3572 -4.9326
 2998TIP3    H230554   5.356   4.413   2.806  3.7372  0.6795 -0.7549
 2999TIP3   OH230555   1.977   1.179   1.698  0.0463 -0.4622  0.5066
 2999TIP3    H130556   1.961   1.213   1.787 -0.3299 -0.9439  0.6225
 2999TIP3    H230557   2.017   1.253   1.652 -0.9328  0.2143  0.7079
 3000TIP3   OH230558   0.292   2.479   0.009  0.1392 -0.0078 -0.6676
 3000TIP3    H130559   0.256   2.499  -0.078 -1.2519 -0.4237 -0.2176
 3000TIP3    H230560   0.311   2.386   0.006 -0.2184 -0.0896 -0.4263
 3001TIP3   OH230561   6.420   0.684   2.324 -0.3455 -0.7951 -0.3287
 3001TIP3    H130562   6.435   0.771   2.360  0.0949  0.1178 -2.5299
 3001TIP3    H230563   6.327   0.683   2.302 -0.6654 -1.4340  0.9492
 3002TIP3   OH230564   2.635   4.958   8.020  0.2304 -0.2385  0.0209
 3002TIP3    H130565   2.700   5.025   8.003 -0.7314  0.4543 -1.0971
 3002TIP3    H230566   2.678   4.897   8.080  1.3292  1.0377  0.5793
 3003TIP3   OH230567   1.954   0.682   1.037 -0.0091 -0.1005 -0.3923
 3003TIP3    H130568   1.961   0.770   1.000 -2.1628  0.2839 -0.0592
 3003TIP3    H230569   2.005   0.686   1.118 -1.5317  1.4799  0.5834
 3004TIP3   OH230570   5.528   3.506   8.136  0.7612  0.7116  0.2932
 3004TIP3    H130571   5.575   3.438   8.184 -1.2423 -0.0618  1.2771
 3004TIP3    H230572   5.457   3.532   8.194 -1.7358 -0.1983 -2.1411
 3005TIP3   OH230573   4.779   1.734   7.988  0.3135 -0.1978 -0.3081
 3005TIP3    H130574   4.871   1.761   7.981  0.3272 -0.1463  0.0297
 3005TIP3    H230575   4.746   1.783   8.063 -0.1778  0.3039 -0.8428
 3006TIP3   OH230576   0.814   5.078   0.242 -0.1626  0.2411  0.2399
 3006TIP3    H130577   0.754   5.147   0.214 -0.7773 -0.7536 -0.9936
 3006TIP3    H230578   0.898   5.100   0.200 -0.2672  0.4330  0.1321
 3007TIP3   OH230579   3.716   5.693   0.732 -0.1251 -0.8179  0.6130
 3007TIP3    H130580   3.646   5.748   0.767  0.4070 -1.2726  2.5528
 3007TIP3    H230581   3.672   5.615   0.698 -0.9079  0.7820 -2.3630
 3008TIP3   OH230582   4.278   5.567   0.560 -0.5893 -0.0288 -0.2195
 3008TIP3    H130583   4.234   5.643   0.521  2.0365  1.3266 -0.7916
 3008TIP3    H230584   4.308   5.515   0.485  0.7059  0.3112  0.0238
 3009TIP3   OH230585   4.582   2.189   1.725  0.2701 -0.3951 -0.1126
 3009TIP3    H130586   4.535   2.226   1.799  0.6793  1.4786 -0.7201
 3009TIP3    H230587   4.514   2.155   1.668 -0.0158 -2.4336  1.3588
 3010TIP3   OH230588   2.972   1.799   7.427 -0.6950  0.0964 -0.2304
 3010TIP3    H130589   2.905   1.793   7.495 -1.5719  0.5520 -1.0344
 3010TIP3    H230590   3.053   1.819   7.474 -1.0171 -0.9156  0.7977
 3011TIP3   OH230591   0.880   1.254   2.500  0.0229 -0.6776  0.5523
 3011TIP3    H130592   0.844   1.190   2.562  2.6837 -2.1867  0.7046
 3011TIP3    H230593   0.953   1.208   2.458  0.6735  1.5744 -0.9643
 3012TIP3   OH230594   2.159   5.096   2.570  0.0069  0.2083 -0.3524
 3012TIP3    H130595   2.195   5.098   2.659  0.6179  1.4308 -0.6041
 3012TIP3    H230596   2.170   5.006   2.542 -0.4968 -0.2727  0.9312
 3013TIP3   OH230597   6.627   4.669   7.492 -0.2317 -0.1450  0.1916
 3013TIP3    H130598   6.547   4.712   7.465  0.5286  0.8302 -0.5484
 3013TIP3    H230599   6.645   4.605   7.423 -0.0043  0.1273 -0.0049
 3014TIP3   OH230600   6.374   5.551   0.739 -0.4177  0.2092 -0.1322
 3014TIP3    H130601   6.407   5.492   0.807  1.8213  0.4103 -0.9533
 3014TIP3    H230602   6.343   5.494   0.669  1.0527 -0.0513 -0.6082
 3015TIP3   OH230603   0.068   5.223   1.482 -0.3951 -0.3588 -0.6794
 3015TIP3    H130604  -0.012   5.171   1.474 -0.7573  0.3722 -2.1306
 3015TIP3    H230605   0.063   5.287   1.411 -0.1095  1.8659  1.1571
 3016TIP3   OH230606   6.491   3.200   0.860  0.3714 -0.2409 -0.4925
 3016TIP3    H130607   6.494   3.270   0.925  0.3721 -0.0852 -0.6584
 3016TIP3    H230608   6.514   3.120   0.908 -0.1086 -0.2026 -0.2016
 3017TIP3   OH230609   5.117   5.355   7.730 -0.1505  0.1239  0.4305
 3017TIP3    H130610   5.048   5.413   7.761  1.0218  1.4232  0.7070
 3017TIP3    H230611   5.198   5.405   7.741  0.7383 -0.9295 -0.9057
 3018TIP3   OH230612   5.568   2.086   1.704  0.4574  0.4390  0.5206
 3018TIP3    H130613   5.537   2.016   1.761  0.5005 -0.0988 -0.1133
 3018TIP3    H230614   5.642   2.124   1.751  0.1594  0.3514  1.0696
 3019TIP3   OH230615   4.943   3.136   6.795  0.0156 -0.2114  0.7860
 3019TIP3    H130616   4.954   3.147   6.701 -0.2106  0.4919  0.8348
 3019TIP3    H230617   4.955   3.043   6.810 -1.2708 -0.5465 -0.1246
 3020TIP3   OH230618   0.059   5.067   2.633 -0.3384 -0.0687  0.6717
 3020TIP3    H130619   0.059   5.031   2.544 -2.1854 -1.8926  1.3240
 3020TIP3    H230620  -0.026   5.110   2.641  1.0138  2.8177  0.6134
 3021TIP3   OH230621   6.604   6.591   0.214  0.1099  0.1647  0.6446
 3021TIP3    H130622   6.541   6.651   0.174 -0.0955 -1.2418 -1.2542
 3021TIP3    H230623   6.558   6.507   0.218  1.3443 -0.5287  0.6511
 3022TIP3   OH230624   5.571   1.397   1.363 -0.1282  0.3570 -0.2353
 3022TIP3    H130625   5.500   1.334   1.375 -0.1542 -0.0972 -2.3460
 3022TIP3    H230626   5.534   1.480   1.392 -0.4005 -0.3781  1.7313
 3023TIP3   OH230627   3.738   5.159   1.642 -0.1009 -0.2614  0.2293
 3023TIP3    H130628   3.702   5.099   1.707 -0.3169  0.8710  1.1873
 3023TIP3    H230629   3.693   5.136   1.561 -0.3851 -1.1867  0.6328
 3024TIP3   OH230630   1.354   3.253   8.628 -0.3336  0.5483 -0.0405
 3024TIP3    H130631   1.263   3.226   8.643 -0.5807  1.4579  0.1402
 3024TIP3    H230632   1.375   3.309   8.703  0.4998  0.0684  0.0977
 3025TIP3   OH230633   5.485   4.570   1.419 -0.3882  0.1218 -0.0830
 3025TIP3    H130634   5.563   4.626   1.419 -0.7333  0.6460  1.0733
 3025TIP3    H230635   5.509   4.495   1.473 -0.1139 -0.6006 -1.1750
 3026TIP3   OH230636   1.918   6.479   1.435 -0.9527  0.2273 -0.2440
 3026TIP3    H130637   1.927   6.513   1.346  1.3047 -0.5216 -0.3655
 3026TIP3    H230638   1.866   6.399   1.426 -2.2481  1.0844 -0.6049
 3027TIP3   OH230639   0.985   4.456   1.021 -0.6952  0.1519 -0.6388
 3027TIP3    H130640   1.058   4.482   0.965  2.0838  0.8300  2.9003
 3027TIP3    H230641   0.927   4.532   1.022  0.2644  0.9098 -0.9796
 3028TIP3   OH230642   4.923   1.790   1.634  0.4911 -0.0569 -0.3605
 3028TIP3    H130643   4.900   1.858   1.571 -0.8712 -0.3034 -0.1694
 3028TIP3    H230644   4.929   1.837   1.718 -2.6265 -0.3885  0.1871
 3029TIP3   OH230645   2.877   3.823   7.454  0.0884  0.1406 -0.3400
 3029TIP3    H130646   2.857   3.754   7.392 -0.0101  0.2412 -0.4210
 3029TIP3    H230647   2.970   3.843   7.439  0.8103 -1.6055  1.3025
 3030TIP3   OH230648   3.832   1.282   6.539  0.4270 -0.3946  0.2619
 3030TIP3    H130649   3.872   1.205   6.579 -0.7880 -0.9084  0.5316
 3030TIP3    H230650   3.898   1.314   6.477  1.1965 -1.2726  0.6049
 3031TIP3   OH230651   6.733   6.332   2.394  0.0576  0.4592  0.1631
 3031TIP3    H130652   6.644   6.325   2.357  0.6869 -1.9831 -1.1063
 3031TIP3    H230653   6.746   6.249   2.440  2.1583  0.1791 -0.8497
 3032TIP3   OH230654   5.805   1.425   7.928  0.3867 -0.7042  0.0145
 3032TIP3    H130655   5.882   1.390   7.884 -0.3491 -1.9805 -0.3086
 3032TIP3    H230656   5.795   1.373   8.007 -1.0085 -1.6157 -0.7156
 3033TIP3   OH230657   4.569   6.382   7.596 -0.2331  0.2418  0.7450
 3033TIP3    H130658   4.495   6.422   7.641 -0.1854  2.1338 -0.7173
 3033TIP3    H230659   4.541   6.292   7.579 -1.1328  0.1601  2.4623
 3034TIP3   OH230660   0.956   4.098   1.988 -0.1655 -0.5331 -0.7351
 3034TIP3    H130661   0.969   4.024   1.928  0.5747 -1.6209  0.6853
 3034TIP3    H230662   0.914   4.059   2.065  2.2233  0.0112  0.9869
 3035TIP3   OH230663   4.743   4.644   2.025 -0.0868 -0.4181  0.4415
 3035TIP3    H130664   4.735   4.734   1.994  0.2281 -0.4530  0.2532
 3035TIP3    H230665   4.694   4.591   1.962 -0.3360 -0.3704  0.5950
 3036TIP3   OH230666   3.400   1.782   6.836  0.3408  0.6519 -0.5241
 3036TIP3    H130667   3.312   1.773   6.798 -0.5519 -0.4527  1.6303
 3036TIP3    H230668   3.447   1.704   6.807 -0.4326 -0.3408  0.7980
 3037TIP3   OH230669   4.505   3.650   8.519 -0.3589  0.3479  0.3569
 3037TIP3    H130670   4.489   3.694   8.436  0.9678 -0.9882 -0.6528
 3037TIP3    H230671   4.586   3.687   8.552 -0.0441 -0.2414  0.2587
 3038TIP3   OH230672   3.303   5.512   8.030 -0.1889 -0.0332 -0.0639
 3038TIP3    H130673   3.272   5.517   7.940  0.3655  0.1506 -0.2521
 3038TIP3    H230674   3.241   5.453   8.074 -1.1385  0.8010 -0.2630
 3039TIP3   OH230675   0.114   6.535   1.743  0.0819 -0.2765  0.1063
 3039TIP3    H130676   0.208   6.522   1.730  0.1957  2.1495 -2.2908
 3039TIP3    H230677   0.075   6.524   1.657 -1.7379 -0.2866  0.8745
 3040TIP3   OH230678   5.758   4.222   0.347 -0.1888  0.1641 -0.1701
 3040TIP3    H130679   5.779   4.150   0.287  1.9761  0.9834 -0.4900
 3040TIP3    H230680   5.840   4.271   0.355 -1.3732  2.1301  0.6842
 3041TIP3   OH230681   5.663   3.308   8.257  0.1096  0.1382 -0.4151
 3041TIP3    H130682   5.741   3.254   8.268 -0.0048  0.0637  0.0531
 3041TIP3    H230683   5.636   3.329   8.346  1.0334  2.2678 -0.5804
 3042TIP3   OH230684   3.319   3.815   8.187 -0.1868 -0.0971 -0.2479
 3042TIP3    H130685   3.366   3.874   8.246 -0.2351 -0.8828  0.6145
 3042TIP3    H230686   3.259   3.767   8.244 -0.6791 -0.4485 -1.0411
 3043TIP3   OH230687   6.724   4.822   1.519  0.1666  0.2744  0.2733
 3043TIP3    H130688   6.725   4.908   1.476 -0.8777 -0.1612 -0.6749
 3043TIP3    H230689   6.638   4.816   1.559 -0.4553 -1.0165 -1.1627
 3044TIP3   OH230690   3.673   1.056   2.182  0.1896 -0.0714  0.6191
 3044TIP3    H130691   3.675   1.107   2.263  0.2643 -0.8650  1.1250
 3044TIP3    H230692   3.678   0.965   2.210  1.2511 -0.3325 -0.3327
 3045TIP3   OH230693   1.403   6.510   2.151  0.1318  0.3671 -0.3036
 3045TIP3    H130694   1.439   6.423   2.168 -1.5464 -0.5355 -1.0529
 3045TIP3    H230695   1.479   6.567   2.144  1.2701 -0.9871  0.4333
 3046TIP3   OH230696   4.287   4.151   7.660  0.0459  0.0380  0.2285
 3046TIP3    H130697   4.316   4.140   7.751 -0.0188  0.0857  0.2545
 3046TIP3    H230698   4.356   4.203   7.619 -0.0412  0.2193  0.3110
 3047TIP3   OH230699   5.249   3.908   8.446  0.8072  0.2807 -0.6108
 3047TIP3    H130700   5.173   3.854   8.466  0.8063  0.6653  0.4608
 3047TIP3    H230701   5.247   3.918   8.350  0.4064 -0.9997 -0.7518
 3048TIP3   OH230702   5.567   2.609   0.181  0.0018  0.0023 -0.1415
 3048TIP3    H130703   5.531   2.526   0.212  0.5696 -0.2551 -0.1570
 3048TIP3    H230704   5.623   2.639   0.253  1.1983 -0.5184 -0.8176
 3049TIP3   OH230705   1.805   3.748   0.567 -0.3528 -0.4214  0.3569
 3049TIP3    H130706   1.750   3.702   0.503  0.7387  2.0484 -2.5566
 3049TIP3    H230707   1.751   3.820   0.598  0.4386  0.7991 -0.9720
 3050TIP3   OH230708   5.280   0.902   1.636 -0.5480  0.1561  0.7077
 3050TIP3    H130709   5.292   0.977   1.578 -1.5940 -0.5995 -0.5439
 3050TIP3    H230710   5.351   0.910   1.700  0.3364  1.3134 -0.3548
 3051TIP3   OH230711   3.869   0.434   0.404  0.1672 -0.1430  0.6012
 3051TIP3    H130712   3.932   0.438   0.332 -0.4402 -0.8683  0.0053
 3051TIP3    H230713   3.922   0.417   0.481  0.6492 -1.5102 -0.0045
 3052TIP3   OH230714   4.893   5.554   7.872  0.3164 -0.8814 -0.0875
 3052TIP3    H130715   4.810   5.549   7.920 -0.5388 -2.2306 -1.5760
 3052TIP3    H230716   4.882   5.630   7.814  0.5817 -0.3845  0.5124
 3053TIP3   OH230717   0.915   2.581   6.521  0.1002 -0.3321 -0.0494
 3053TIP3    H130718   0.977   2.654   6.523  0.9191 -0.8476  5.0895
 3053TIP3    H230719   0.965   2.508   6.484  1.2017  0.2860  0.1723
 3054TIP3   OH230720   6.553   1.086   1.129 -0.2726 -0.2221 -0.4371
 3054TIP3    H130721   6.612   1.033   1.182 -0.7010 -1.2834 -1.0026
 3054TIP3    H230722   6.466   1.069   1.165 -0.3801  0.3990 -0.3832
 3055TIP3   OH230723   4.721   6.003   0.849  0.0407  0.1468 -0.2601
 3055TIP3    H130724   4.813   5.975   0.854 -0.7130 -2.2946  1.8430
 3055TIP3    H230725   4.702   6.038   0.936 -0.7356  1.8377 -1.0607
 3056TIP3   OH230726   0.779   4.260   8.043  0.2588  0.2636 -0.2647
 3056TIP3    H130727   0.830   4.188   8.006  1.0729  1.2039 -1.0282
 3056TIP3    H230728   0.689   4.228   8.044  0.4113 -0.2962 -1.8149
 3057TIP3   OH230729   0.455   3.163   0.212  0.1287 -0.1010  0.3538
 3057TIP3    H130730   0.520   3.229   0.187  0.9506 -0.0487  2.4279
 3057TIP3    H230731   0.478   3.085   0.161  0.6486  0.4763 -0.3073
 3058TIP3   OH230732   3.742   5.252   0.811 -0.5470  0.2695  0.6462
 3058TIP3    H130733   3.709   5.254   0.721 -0.5458  0.9495  0.6557
 3058TIP3    H230734   3.712   5.335   0.849 -1.8986 -0.7043  1.7674
 3059TIP3   OH230735   6.024   3.261   7.280 -0.2108  0.3608 -0.4005
 3059TIP3    H130736   6.108   3.230   7.315 -1.6179 -0.6541  2.4401
 3059TIP3    H230737   5.979   3.181   7.253 -0.6366  0.8037 -1.0288
 3060TIP3   OH230738   2.985   0.595   0.551  0.2624  0.1799 -0.2739
 3060TIP3    H130739   2.981   0.669   0.491  1.6223  0.0635 -0.5502
 3060TIP3    H230740   3.012   0.522   0.496  1.8997  0.1524  0.5153
 3061TIP3   OH230741   0.127   0.162   8.508  0.5760 -0.5899 -0.1886
 3061TIP3    H130742   0.091   0.143   8.594  2.2728 -1.9853  0.2616
 3061TIP3    H230743   0.077   0.106   8.448  1.1475 -1.6002  0.2634
 3062TIP3   OH230744   0.139   2.497   1.711  0.0682 -0.2969 -0.1243
 3062TIP3    H130745   0.053   2.511   1.750  1.0991 -0.4263  2.4049
 3062TIP3    H230746   0.196   2.561   1.755  1.4506 -0.8097 -1.0792
 3063TIP3   OH230747   4.797   4.775   6.683  0.2425  0.0626  0.0412
 3063TIP3    H130748   4.838   4.688   6.684 -1.6967 -0.9237 -0.9385
 3063TIP3    H230749   4.847   4.825   6.747  1.6618 -1.6439  0.3716
 3064TIP3   OH230750   3.332   1.959   7.877 -0.0424 -0.5806 -0.0415
 3064TIP3    H130751   3.367   1.953   7.966 -0.4030  0.5217  0.1809
 3064TIP3    H230752   3.266   2.028   7.881 -0.4122 -0.8549 -1.0559
 3065TIP3   OH230753   2.112   2.249   6.605 -0.3346  0.6052  0.4658
 3065TIP3    H130754   2.206   2.253   6.624 -0.3735 -1.2779  1.3431
 3065TIP3    H230755   2.072   2.311   6.666  0.1587 -0.5112  1.9938
 3066TIP3   OH230756   4.700   2.486   1.566 -0.5385 -0.3164  0.2032
 3066TIP3    H130757   4.638   2.528   1.625 -1.1400 -0.7488 -0.1080
 3066TIP3    H230758   4.758   2.436   1.624  1.5018  2.4615  0.7765
 3067TIP3   OH230759   4.880   6.840   0.831  0.2878 -0.1585  0.1007
 3067TIP3    H130760   4.843   6.755   0.809  0.3768  0.2340 -1.7405
 3067TIP3    H230761   4.946   6.822   0.898  0.5932 -1.5959 -0.5604
 3068TIP3   OH230762   0.866   3.100   2.550 -0.0553  0.5754 -0.0854
 3068TIP3    H130763   0.810   3.047   2.607 -0.6235  0.6861 -0.5368
 3068TIP3    H230764   0.891   3.042   2.479 -1.0845  1.0439 -0.8442
 3069TIP3   OH230765   2.632   6.291   0.409  0.4289  0.2984  0.7814
 3069TIP3    H130766   2.648   6.334   0.325  2.1526 -0.5656  0.6265
 3069TIP3    H230767   2.569   6.222   0.389 -1.3983  1.8533  0.8010
 3070TIP3   OH230768   4.070   4.153   7.176  0.1831 -0.2831  0.3857
 3070TIP3    H130769   4.099   4.145   7.085 -1.9739 -1.1767 -0.2833
 3070TIP3    H230770   4.073   4.247   7.193 -1.2373  0.1294 -1.3121
 3071TIP3   OH230771   0.595   2.350   0.108 -0.4820 -0.3929 -0.1183
 3071TIP3    H130772   0.673   2.375   0.159 -1.5807 -0.0163  1.4695
 3071TIP3    H230773   0.609   2.390   0.022  0.3339  1.0960  0.6522
 3072TIP3   OH230774   6.121   6.184   1.988  0.0566  0.1820  0.4522
 3072TIP3    H130775   6.056   6.230   1.934 -0.7942  0.4614  1.6698
 3072TIP3    H230776   6.081   6.179   2.075  0.8858 -1.3129  0.7897
 3073TIP3   OH230777   3.170   0.494   1.347 -0.2514 -0.4505  0.4597
 3073TIP3    H130778   3.098   0.514   1.287 -0.9142 -1.5812  0.8314
 3073TIP3    H230779   3.243   0.471   1.291 -0.1174  0.8467  0.0721
 3074TIP3   OH230780   0.998   6.824   2.258 -0.3788  0.5016 -0.0328
 3074TIP3    H130781   0.982   6.838   2.351 -2.4839 -1.0206 -0.0970
 3074TIP3    H230782   1.092   6.807   2.252 -0.3090 -0.0233  1.9009
 3075TIP3   OH230783   3.144   0.857   2.028  0.2268  0.1641  0.1970
 3075TIP3    H130784   3.087   0.928   2.001  0.1935 -0.1417 -0.5676
 3075TIP3    H230785   3.118   0.837   2.117 -0.1050  0.7714  0.2372
 3076TIP3   OH230786   0.031   0.793   8.266 -0.6253 -0.5284 -0.0565
 3076TIP3    H130787   0.108   0.737   8.261 -1.2227 -1.5476  1.3530
 3076TIP3    H230788  -0.006   0.775   8.353 -2.3067  0.1139 -0.6003
 3077TIP3   OH230789   5.156   0.487   2.750 -0.0795 -0.0104  0.2152
 3077TIP3    H130790   5.212   0.512   2.677 -0.3660  0.7390  0.2424
 3077TIP3    H230791   5.212   0.498   2.827  0.3967 -1.3185  0.0974
 3078TIP3   OH230792   5.208   3.219   0.191 -0.1699  0.1311  0.3742
 3078TIP3    H130793   5.145   3.188   0.126  0.5831  1.2794 -0.9552
 3078TIP3    H230794   5.175   3.304   0.219 -0.2839 -0.1825  1.2495
 3079TIP3   OH230795   4.286   6.183   0.346  0.4889  0.2429  0.4736
 3079TIP3    H130796   4.328   6.190   0.260 -0.1821 -0.4429  0.0863
 3079TIP3    H230797   4.268   6.274   0.371 -0.6435  0.3983 -0.7805
 3080TIP3   OH230798   3.046   5.688   0.919  0.1707  0.1128 -0.2147
 3080TIP3    H130799   3.120   5.630   0.899 -0.6545 -1.6687  1.5008
 3080TIP3    H230800   2.971   5.643   0.882 -0.2859  0.9814 -0.3518
 3081TIP3   OH230801   3.451   2.344   8.081 -0.5152 -0.1150  0.2191
 3081TIP3    H130802   3.465   2.317   8.172  1.3099 -0.5915 -0.1524
 3081TIP3    H230803   3.395   2.277   8.043  0.9090 -1.4052  0.3111
 3082TIP3   OH230804   4.681   3.617   8.071  0.5289  0.0986  0.1742
 3082TIP3    H130805   4.761   3.591   8.025  0.9437  0.9519  0.3932
 3082TIP3    H230806   4.686   3.570   8.154  1.7519  1.5113  0.9661
 3083TIP3   OH230807   5.067   0.925   0.718  0.2855  0.6627 -0.5282
 3083TIP3    H130808   5.119   0.845   0.715  0.6574  0.9348 -1.7036
 3083TIP3    H230809   4.976   0.895   0.720  0.4150  0.2190 -1.2542
 3084TIP3   OH230810   3.851   2.143   0.845 -0.4075  0.1609  0.0129
 3084TIP3    H130811   3.900   2.062   0.859  0.3783  0.5221 -0.5215
 3084TIP3    H230812   3.834   2.145   0.751  0.2863  0.9908 -0.1058
 3085TIP3   OH230813   4.005   6.328   8.094  0.2175  0.1154  0.4264
 3085TIP3    H130814   4.025   6.408   8.046  1.3638 -0.7590 -0.5909
 3085TIP3    H230815   4.086   6.305   8.138  0.1100 -0.9003  0.1049
 3086TIP3   OH230816   6.768   0.467   1.096  0.0178 -0.3302  0.0784
 3086TIP3    H130817   6.735   0.453   1.185 -1.3878 -0.3102 -0.4125
 3086TIP3    H230818   6.820   0.388   1.077  0.3874 -0.2999  0.9325
 3087TIP3   OH230819   1.999   0.896   1.301  0.0793 -0.2764  0.4706
 3087TIP3    H130820   2.036   0.810   1.322  1.0905  0.5063  2.1601
 3087TIP3    H230821   2.021   0.910   1.209  1.6412 -1.0217  0.6991
 3088TIP3   OH230822   3.730   4.884   7.481 -0.0958 -0.4501  0.2487
 3088TIP3    H130823   3.754   4.925   7.398 -1.8044 -0.8252 -0.4683
 3088TIP3    H230824   3.752   4.949   7.547 -2.0837  1.4398 -0.7978
 3089TIP3   OH230825   2.804   4.063   7.046 -0.4200 -0.8078  0.3273
 3089TIP3    H130826   2.857   4.005   6.991  3.0864  1.1153  1.3472
 3089TIP3    H230827   2.832   4.044   7.136 -1.0438  0.6784  0.8790
 3090TIP3   OH230828   1.804   3.706   1.748  0.2055  0.2971  0.4987
 3090TIP3    H130829   1.875   3.693   1.685  1.0933 -0.2835  1.5754
 3090TIP3    H230830   1.745   3.767   1.705  1.4134  0.8822 -0.3934
 3091TIP3   OH230831   4.865   1.696   8.355 -0.2802  0.5658 -0.3453
 3091TIP3    H130832   4.887   1.760   8.424 -0.5368  0.6190 -0.3120
 3091TIP3    H230833   4.829   1.749   8.284 -1.5798  0.3501  0.1372
 3092TIP3   OH230834   5.203   4.551   0.013  0.4936  0.1212  0.3702
 3092TIP3    H130835   5.234   4.529   0.101  0.7836 -0.0995  0.2146
 3092TIP3    H230836   5.233   4.640  -0.001 -0.2932  0.4689  0.8261
 3093TIP3   OH230837   4.773   4.957   2.220 -0.2481 -0.2686 -0.1213
 3093TIP3    H130838   4.764   4.940   2.126 -0.8017 -0.1379 -0.0996
 3093TIP3    H230839   4.720   5.035   2.235 -0.1273 -0.2655  0.2937
 3094TIP3   OH230840   3.410   5.006   1.685  0.1162 -0.6105  0.0966
 3094TIP3    H130841   3.395   5.050   1.601 -0.8756 -0.3340  0.4047
 3094TIP3    H230842   3.505   4.996   1.691  0.1952 -0.7037 -1.0945
 3095TIP3   OH230843   3.631   0.545   0.087 -0.1586 -0.2953  0.0363
 3095TIP3    H130844   3.712   0.585   0.053 -1.6684  2.0110 -1.0884
 3095TIP3    H230845   3.627   0.460   0.045  0.6803  0.3797 -1.4782
 3096TIP3   OH230846   5.933   2.052   8.328 -0.5285  0.0782  0.0495
 3096TIP3    H130847   5.990   1.992   8.281 -0.2316  2.1352 -2.4340
 3096TIP3    H230848   5.987   2.129   8.345 -1.6972  0.8474  0.4418
 3097TIP3   OH230849   3.268   2.581   0.790  0.0328  0.1519  0.2987
 3097TIP3    H130850   3.321   2.560   0.866 -0.0815  0.8928  0.5917
 3097TIP3    H230851   3.207   2.648   0.820 -0.3457  0.0962 -0.3137
 3098TIP3   OH230852   0.646   4.843   2.806 -0.4260  0.9614 -0.9073
 3098TIP3    H130853   0.729   4.799   2.828 -0.2063  1.3803 -0.8893
 3098TIP3    H230854   0.606   4.786   2.740 -0.8567 -0.0435  0.1914
 3099TIP3   OH230855   1.086   2.171   7.247 -0.3236 -0.3596  0.6746
 3099TIP3    H130856   1.056   2.259   7.272 -0.9206 -0.1712 -0.5742
 3099TIP3    H230857   1.158   2.187   7.185 -2.2446 -0.6036 -1.7980
 3100TIP3   OH230858   2.623   0.647   2.221 -0.0477 -0.1670  0.5239
 3100TIP3    H130859   2.566   0.722   2.236 -1.6622 -1.1055 -0.6393
 3100TIP3    H230860   2.623   0.601   2.305  1.6100  1.4937  1.5011
 3101TIP3   OH230861   5.893   2.238   2.144 -0.4527  0.0602 -0.0511
 3101TIP3    H130862   5.969   2.268   2.194  1.3780  0.4235 -2.8639
 3101TIP3    H230863   5.888   2.144   2.162 -0.2178  0.2691  1.2066
 3102TIP3   OH230864   0.096   6.085   1.635 -0.5570 -0.1273  0.4194
 3102TIP3    H130865   0.057   6.014   1.686  0.5264 -1.5076 -0.6063
 3102TIP3    H230866   0.121   6.044   1.552  2.4715  0.7987  0.7683
 3103TIP3   OH230867   0.677   2.443   7.710 -0.0243  0.1589 -0.4520
 3103TIP3    H130868   0.652   2.371   7.651 -3.0014  0.4925  0.2241
 3103TIP3    H230869   0.676   2.521   7.654  0.9428  0.0015 -0.7077
 3104TIP3   OH230870   0.472   2.943   0.068  0.1247  0.1813  0.3728
 3104TIP3    H130871   0.500   2.851   0.066 -1.9391 -0.4899 -0.2569
 3104TIP3    H230872   0.453   2.964  -0.023 -3.1061 -0.0557  0.8836
 3105TIP3   OH230873   4.676   2.479   0.125 -0.1875  0.0375  0.3998
 3105TIP3    H130874   4.608   2.532   0.085 -0.2197  2.0650  2.8998
 3105TIP3    H230875   4.696   2.524   0.208  1.9909 -2.1925  1.2000
 3106TIP3   OH230876   5.122   0.119   8.461  0.1449 -0.4295  0.2140
 3106TIP3    H130877   5.178   0.043   8.447  0.5408 -0.0907 -0.0317
 3106TIP3    H230878   5.176   0.195   8.440  0.2488  0.0268  1.9281
 3107TIP3   OH230879   1.158   4.538   0.816 -0.2411 -0.4550  0.3556
 3107TIP3    H130880   1.227   4.602   0.835 -0.2991 -0.7527  1.6407
 3107TIP3    H230881   1.206   4.461   0.783 -0.0307 -0.3685  0.4546
 3108TIP3   OH230882   2.214   6.809   7.362  0.1657 -0.1757  0.1184
 3108TIP3    H130883   2.220   6.734   7.303  0.9242  0.2708 -0.3888
 3108TIP3    H230884   2.234   6.885   7.308  5.5699 -0.0663  1.7041
 3109TIP3   OH230885   6.035   0.330   2.990 -0.0372 -0.1068  0.3986
 3109TIP3    H130886   5.992   0.401   2.942 -1.0632  0.0388  1.4742
 3109TIP3    H230887   6.004   0.250   2.947  1.0243  0.0757 -0.7387
 3110TIP3   OH230888   6.718   1.477   0.269 -0.6808 -0.2376 -0.3668
 3110TIP3    H130889   6.714   1.558   0.219 -1.7475  0.7949  1.2515
 3110TIP3    H230890   6.802   1.481   0.314 -0.6900 -0.0556 -0.3615
 3111TIP3   OH230891   1.680   0.669   8.182 -0.1557  0.1524  0.8133
 3111TIP3    H130892   1.747   0.735   8.202 -0.2254  1.4063 -2.5018
 3111TIP3    H230893   1.597   0.716   8.194 -0.2713  0.0965  0.2307
 3112TIP3   OH230894   3.709   1.026   7.564 -0.3100  0.1815 -0.2924
 3112TIP3    H130895   3.683   1.114   7.534 -1.2488  0.5367  1.4130
 3112TIP3    H230896   3.681   0.968   7.494 -1.8819  1.0277 -0.4129
 3113TIP3   OH230897   2.435   4.423   7.784  0.9943 -0.2911  0.2124
 3113TIP3    H130898   2.411   4.496   7.727  1.2391  0.8998  1.5865
 3113TIP3    H230899   2.420   4.345   7.731 -2.8104  0.4953 -0.1511
 3114TIP3   OH230900   2.919   3.866   1.342  0.1718  0.1264 -0.3057
 3114TIP3    H130901   2.926   3.799   1.410  3.2697  1.6836  1.1170
 3114TIP3    H230902   2.826   3.884   1.335 -0.3726 -1.1342  2.5364
 3115TIP3   OH230903   6.056   3.745   7.580 -0.5370 -0.1972 -0.7051
 3115TIP3    H130904   6.150   3.731   7.594 -0.5506 -2.9057 -2.6491
 3115TIP3    H230905   6.013   3.674   7.626 -1.6284  0.6418 -0.3786
 3116TIP3   OH230906   4.114   3.560   0.207  0.1317  0.3228 -0.9116
 3116TIP3    H130907   4.169   3.558   0.128  1.2349  0.7138 -0.1733
 3116TIP3    H230908   4.096   3.653   0.221 -1.7954  0.1508 -1.8330
 3117TIP3   OH230909   3.305   3.243   7.418 -0.0084 -0.5702  0.2371
 3117TIP3    H130910   3.385   3.242   7.366  1.0481  1.3830  1.6937
 3117TIP3    H230911   3.238   3.277   7.359  0.9040  0.4696 -0.2330
 3118TIP3   OH230912   1.074   6.634   1.153 -0.5588 -0.2177  0.3158
 3118TIP3    H130913   1.077   6.730   1.156 -0.6715 -0.1372 -1.2263
 3118TIP3    H230914   1.150   6.605   1.203  2.2779  0.8077 -2.9950
 3119TIP3   OH230915   4.839   0.135   1.969 -0.5912  0.1433 -1.0983
 3119TIP3    H130916   4.765   0.096   1.921 -2.3399  1.6929  0.2149
 3119TIP3    H230917   4.848   0.080   2.046  1.4769 -1.6562 -2.4948
 3120TIP3   OH230918   4.814   0.752   7.501 -0.3988 -0.6043 -0.4578
 3120TIP3    H130919   4.801   0.787   7.590 -2.0143 -1.9598 -0.0919
 3120TIP3    H230920   4.901   0.713   7.503  0.1254  0.5515  0.1044
 3121TIP3   OH230921   2.202   0.249   7.824 -0.6098 -0.1058  0.6417
 3121TIP3    H130922   2.209   0.195   7.745 -1.2466  0.8235 -0.0703
 3121TIP3    H230923   2.161   0.191   7.889 -0.7739 -0.6544  0.0621
 3122TIP3   OH230924   0.860   0.085   7.688  0.2468  0.2725 -0.4378
 3122TIP3    H130925   0.919   0.102   7.762 -0.7343  1.0917  0.1937
 3122TIP3    H230926   0.906   0.020   7.635  1.2207  0.0713  0.6023
 3123TIP3   OH230927   1.194   5.048   8.527 -0.0190 -0.1862 -0.1981
 3123TIP3    H130928   1.214   5.009   8.612 -0.8458 -0.3080 -0.0537
 3123TIP3    H230929   1.227   4.986   8.463  1.1496  0.1808  0.0177
 3124TIP3   OH230930   4.651   3.778   0.657  0.3385  0.7147  0.2076
 3124TIP3    H130931   4.649   3.819   0.744  0.7295 -1.1266  1.1241
 3124TIP3    H230932   4.580   3.714   0.659  1.1655 -0.2438 -0.3582
 3125TIP3   OH230933   2.609   1.079   0.901  0.1853  0.0079 -0.4214
 3125TIP3    H130934   2.686   1.135   0.910  1.1199 -1.2520 -0.3581
 3125TIP3    H230935   2.580   1.065   0.992 -0.4296  0.8625 -0.4690
 3126TIP3   OH230936   0.096   1.421   1.371  0.4533 -0.2355 -0.2580
 3126TIP3    H130937   0.069   1.490   1.312  0.1516  1.7182  2.0155
 3126TIP3    H230938   0.168   1.377   1.326 -0.4188  0.4590 -2.4547
 3127TIP3   OH230939   4.563   2.575   7.307 -0.1314 -0.0309 -0.5479
 3127TIP3    H130940   4.557   2.493   7.357 -2.0034  0.2089 -0.2758
 3127TIP3    H230941   4.653   2.578   7.275  0.5442 -1.1967  1.1205
 3128TIP3   OH230942   5.345   6.715   8.558 -0.6116  0.4706 -0.3791
 3128TIP3    H130943   5.380   6.638   8.513  0.0918  1.3262 -1.3237
 3128TIP3    H230944   5.257   6.688   8.585 -0.2076 -0.8218 -0.2772
 3129TIP3   OH230945   3.486   4.400   0.602  0.2209 -0.3040 -0.3617
 3129TIP3    H130946   3.410   4.361   0.560  1.0559 -0.8514 -1.3992
 3129TIP3    H230947   3.462   4.492   0.614 -0.2816 -0.2686 -1.4900
 3130TIP3   OH230948   2.929   0.107   2.544 -0.3365 -0.2191 -0.0489
 3130TIP3    H130949   3.004   0.082   2.491 -0.1446 -0.9281  0.5338
 3130TIP3    H230950   2.877   0.026   2.552  0.3617 -0.5181  1.9909
 3131TIP3   OH230951   4.667   3.534   7.380  0.0461 -0.4831  0.3174
 3131TIP3    H130952   4.630   3.498   7.300  1.4009  0.0498 -0.5839
 3131TIP3    H230953   4.598   3.522   7.446 -0.9072 -1.3727 -0.7950
 3132TIP3   OH230954   3.414   2.869   0.813 -0.0277 -0.0975 -0.2858
 3132TIP3    H130955   3.328   2.829   0.798 -1.2665  2.2435  0.0474
 3132TIP3    H230956   3.423   2.871   0.908  0.8228 -1.0932 -0.3291
 3133TIP3   OH230957   5.341   1.103   8.447  0.2553 -0.0465 -0.4166
 3133TIP3    H130958   5.393   1.173   8.405  0.7360 -0.5236 -0.6252
 3133TIP3    H230959   5.343   1.125   8.540 -0.8655  1.0562 -0.6294
 3134TIP3   OH230960   2.748   4.947   2.048  0.1211 -0.3628  0.3085
 3134TIP3    H130961   2.815   4.997   2.001  0.0540  0.0126  0.6094
 3134TIP3    H230962   2.769   4.855   2.029  0.2868 -0.2236 -0.1862
 3135TIP3   OH230963   4.866   2.323   1.742 -0.2259 -0.5599  0.6266
 3135TIP3    H130964   4.832   2.338   1.830  1.2764 -0.3258  1.1959
 3135TIP3    H230965   4.861   2.228   1.730 -0.6660 -0.5672  0.8608
 3136TIP3   OH230966   5.728   2.433   6.722  0.2466  0.4452 -0.0639
 3136TIP3    H130967   5.648   2.383   6.736  0.5064 -0.1472 -0.6066
 3136TIP3    H230968   5.775   2.426   6.805  0.2428 -0.1662 -0.1042
 3137TIP3   OH230969   2.943   4.627   2.524 -0.0688 -0.2921  0.4504
 3137TIP3    H130970   2.986   4.682   2.589 -0.8470  0.6941  0.1558
 3137TIP3    H230971   2.895   4.561   2.576  0.6099 -0.5109  0.8106
 3138TIP3   OH230972   0.579   1.613   1.080 -0.0784 -0.8356 -0.2681
 3138TIP3    H130973   0.635   1.557   1.135  0.8784  1.4780  1.3039
 3138TIP3    H230974   0.640   1.660   1.024 -0.8385 -1.1074 -1.3538
 3139TIP3   OH230975   4.803   6.656   7.796 -0.1538  0.0175  0.0977
 3139TIP3    H130976   4.827   6.741   7.834 -1.1742  0.9747 -1.3256
 3139TIP3    H230977   4.767   6.607   7.870  0.9472  0.5945  1.0581
 3140TIP3   OH230978   0.393   0.465   8.451 -0.1738  0.0169 -0.4938
 3140TIP3    H130979   0.316   0.482   8.506 -1.1364 -1.7200 -1.2329
 3140TIP3    H230980   0.437   0.391   8.493  1.2304  1.0781  0.0007
 3141TIP3   OH230981   2.465   2.920   1.364 -0.2579 -0.3784 -0.2422
 3141TIP3    H130982   2.385   2.970   1.377 -1.6827 -2.5094 -0.2533
 3141TIP3    H230983   2.519   2.940   1.440 -0.1721  2.1006 -0.8774
 3142TIP3   OH230984   6.077   2.328   2.320 -0.1615  0.3224  0.1735
 3142TIP3    H130985   6.050   2.415   2.289  1.6915  0.6165 -0.7478
 3142TIP3    H230986   6.109   2.343   2.409 -1.4054  0.2532  0.6554
 3143TIP3   OH230987   6.298   0.695   8.014  0.2701 -0.1021 -0.3852
 3143TIP3    H130988   6.258   0.622   8.060 -1.3681  0.2713 -1.1459
 3143TIP3    H230989   6.370   0.722   8.071 -0.5236 -0.8325  1.0328
 3144TIP3   OH230990   5.030   0.394   0.928  0.3051  0.1345  0.2273
 3144TIP3    H130991   5.101   0.373   0.868 -0.5372  1.0937 -1.1539
 3144TIP3    H230992   5.074   0.417   1.010  1.5071 -0.6218 -0.1806
 3145TIP3   OH230993   4.803   0.111   7.860  0.1412  0.1323 -0.2620
 3145TIP3    H130994   4.881   0.161   7.882  0.1651  0.4443 -1.0154
 3145TIP3    H230995   4.810   0.096   7.765 -1.2723  1.1484 -0.5507
 3146TIP3   OH230996   6.248   5.943   7.114  0.3378  0.0433 -0.2144
 3146TIP3    H130997   6.288   5.887   7.181  0.3583 -0.3089 -0.5183
 3146TIP3    H230998   6.323   5.980   7.067  0.3311  0.5119  0.1281
 3147TIP3   OH230999   0.238   1.964   8.208  0.2341 -0.3954 -0.8401
 3147TIP3    H131000   0.190   1.977   8.126 -0.3216  2.3250 -0.1830
 3147TIP3    H231001   0.308   1.903   8.185 -0.6399 -0.6833 -3.0174
 3148TIP3   OH231002   2.106   5.969   0.826  0.3878  0.3945 -0.8181
 3148TIP3    H131003   2.147   5.961   0.740  2.7441 -0.7381  0.3332
 3148TIP3    H231004   2.175   5.947   0.888 -1.3392  0.8168  1.3818
 3149TIP3   OH231005   5.488   3.111   7.674 -0.2682  0.2442  0.1772
 3149TIP3    H131006   5.465   3.174   7.606 -0.0027 -0.5486 -0.6741
 3149TIP3    H231007   5.410   3.056   7.683  0.9874 -2.2601 -2.5025
 3150TIP3   OH231008   0.665   6.535   1.833  0.0301 -0.3202  0.3153
 3150TIP3    H131009   0.747   6.497   1.803  1.6997  3.5852 -0.7049
 3150TIP3    H231010   0.675   6.543   1.928 -0.3663 -2.2246  0.5524
 3151TIP3   OH231011   4.616   2.656   8.264 -0.5324  0.3993 -0.0334
 3151TIP3    H131012   4.643   2.596   8.335  2.4869 -0.3667 -1.6683
 3151TIP3    H231013   4.628   2.743   8.301  0.7934  0.0079  0.5331
 3152TIP3   OH231014   5.723   4.233   3.187 -0.3028  0.0904 -0.3188
 3152TIP3    H131015   5.657   4.282   3.138  0.5494  0.3368 -1.2483
 3152TIP3    H231016   5.677   4.202   3.265 -1.3856  0.6537 -0.7171
 3153TIP3   OH231017   5.591   5.028   8.128 -0.3314 -0.0248 -0.4166
 3153TIP3    H131018   5.668   5.071   8.091  0.1757  0.5849  1.2507
 3153TIP3    H231019   5.626   4.976   8.200 -0.9370 -3.2575 -2.2716
 3154TIP3   OH231020   1.807   6.414   0.471 -0.1723 -0.7607  0.1812
 3154TIP3    H131021   1.772   6.339   0.423  0.6434 -0.8078 -0.3739
 3154TIP3    H231022   1.786   6.490   0.416  0.4243 -0.7726 -0.0775
 3155TIP3   OH231023   0.171   5.519   1.738 -0.6164  0.3710  0.1051
 3155TIP3    H131024   0.230   5.575   1.790  0.0878  1.7665 -2.0637
 3155TIP3    H231025   0.098   5.577   1.716 -1.8190 -0.7515  1.0122
 3156TIP3   OH231026   5.570   6.311   8.180  0.0729 -0.0697 -0.1882
 3156TIP3    H131027   5.525   6.249   8.238 -0.0837  0.2370  0.0224
 3156TIP3    H231028   5.639   6.260   8.140  0.6787 -0.1022  0.8642
 3157TIP3   OH231029   1.525   4.057   7.047  0.1455  0.4040 -0.3298
 3157TIP3    H131030   1.440   4.084   7.014  0.2117 -0.5201 -1.3189
 3157TIP3    H231031   1.589   4.102   6.991  0.4345  2.7626  1.6893
 3158TIP3   OH231032   6.805   1.664   7.641 -0.1379 -0.4267  0.3263
 3158TIP3    H131033   6.812   1.678   7.735 -2.1260 -0.3589  0.5088
 3158TIP3    H231034   6.802   1.569   7.631 -2.2162 -0.4525  0.6141
 3159TIP3   OH231035   4.022   3.327   1.066  0.0515 -0.2219  0.3402
 3159TIP3    H131036   4.030   3.302   1.158 -1.0108  1.2918  0.8866
 3159TIP3    H231037   4.095   3.283   1.023  1.2976 -0.0057  2.1141
 3160TIP3   OH231038   2.705   3.163   8.273 -0.5227 -0.4285  0.0399
 3160TIP3    H131039   2.649   3.173   8.350  0.9259  0.3434  1.0186
 3160TIP3    H231040   2.657   3.209   8.203 -3.1236 -3.3081 -0.2930
 3161TIP3   OH231041   0.901   3.707   1.083 -0.1589 -0.0995  0.2555
 3161TIP3    H131042   0.882   3.629   1.135  1.7767 -0.8653 -0.0957
 3161TIP3    H231043   0.830   3.711   1.019 -1.6293 -0.1205  1.8128
 3162TIP3   OH231044   4.967   3.257   1.945 -0.0574 -0.5319 -0.5586
 3162TIP3    H131045   5.033   3.194   1.972 -0.2496 -0.8730 -0.8806
 3162TIP3    H231046   4.997   3.341   1.981  1.6273 -0.2946 -2.3970
 3163TIP3   OH231047   5.022   1.163   1.112  0.2083  0.2577  0.1736
 3163TIP3    H131048   4.953   1.228   1.122 -0.1598 -0.2086  0.6984
 3163TIP3    H231049   4.976   1.081   1.099  0.6534 -0.0768  0.6625
 3164TIP3   OH231050   0.474   2.630   8.250 -0.3210  0.7253 -0.1249
 3164TIP3    H131051   0.510   2.590   8.171  0.9603  2.0165 -0.2075
 3164TIP3    H231052   0.546   2.631   8.312 -0.2496  2.9927 -0.1618
 3165TIP3   OH231053   4.884   4.021   0.728  0.0096  0.4549  0.6403
 3165TIP3    H131054   4.865   3.942   0.780  0.9805  0.1454  0.5346
 3165TIP3    H231055   4.831   4.089   0.770 -3.9980 -0.9540 -1.5785
 3166TIP3   OH231056   1.523   0.568   8.542  0.3394 -0.3638 -0.0342
 3166TIP3    H131057   1.477   0.637   8.495  0.0321 -0.6861 -0.2056
 3166TIP3    H231058   1.546   0.504   8.475 -1.3213 -1.5086  0.4291
 3167TIP3   OH231059   3.240   3.355   8.612  0.1966 -0.4018 -0.3024
 3167TIP3    H131060   3.229   3.442   8.651 -2.5035 -0.2001 -1.3374
 3167TIP3    H231061   3.321   3.322   8.651  2.2573  3.2016 -1.0891
 3168TIP3   OH231062   3.641   4.166   1.196  0.6239  0.5833  0.1814
 3168TIP3    H131063   3.714   4.191   1.139  1.7353 -0.5370  1.0636
 3168TIP3    H231064   3.655   4.216   1.276  0.0669  0.8141  0.1400
 3169TIP3   OH231065   2.602   3.241   8.521 -0.1632  0.3778 -0.3170
 3169TIP3    H131066   2.515   3.216   8.492 -0.2741  0.1855  0.1615
 3169TIP3    H231067   2.608   3.335   8.505  0.3196  0.0679 -2.3129
 3170TIP3   OH231068   2.868   2.728   0.273  0.0639  0.5335  0.4926
 3170TIP3    H131069   2.847   2.798   0.212  3.1941  1.1371 -0.0379
 3170TIP3    H231070   2.949   2.690   0.241 -0.2693 -1.8087  2.1024
 3171TIP3   OH231071   2.517   3.901   7.586  0.1595  0.0223 -0.3793
 3171TIP3    H131072   2.580   3.832   7.608 -1.1354 -0.6677  1.3845
 3171TIP3    H231073   2.461   3.862   7.519  1.4079  0.5660 -1.8011
 3172TIP3   OH231074   3.501   2.257   8.372 -0.2191 -0.1189 -1.0347
 3172TIP3    H131075   3.440   2.200   8.419  0.9452  0.0911  0.8713
 3172TIP3    H231076   3.588   2.224   8.398  0.4763  1.6423 -0.9813
 3173TIP3   OH231077   3.552   3.494   7.902  0.1357  0.0810 -0.1780
 3173TIP3    H131078   3.466   3.537   7.894  0.0043 -0.4754 -2.4482
 3173TIP3    H231079   3.606   3.536   7.835  0.7231 -1.6005 -0.7950
 3174TIP3   OH231080   3.808   6.378   1.834  0.6932  0.1856 -0.4374
 3174TIP3    H131081   3.746   6.405   1.902  1.2663 -2.7136  1.4088
 3174TIP3    H231082   3.883   6.438   1.845  0.8027 -0.2512  1.6022
 3175TIP3   OH231083   3.845   3.196   0.759  0.3827  0.3244  0.4019
 3175TIP3    H131084   3.795   3.121   0.790 -0.6221 -0.1015 -2.0383
 3175TIP3    H231085   3.816   3.269   0.814  0.0658 -0.7186  1.6400
 3176TIP3   OH231086   2.214   3.137   0.372 -0.5356 -0.5437 -0.2088
 3176TIP3    H131087   2.272   3.099   0.438 -0.9006  4.0748  3.3027
 3176TIP3    H231088   2.271   3.150   0.296  1.8574 -0.3435  1.4786
 3177TIP3   OH231089   3.642   3.732   0.532  0.3958 -0.2924  0.0596
 3177TIP3    H131090   3.604   3.660   0.582 -0.4775 -1.6804 -2.4224
 3177TIP3    H231091   3.734   3.709   0.523  0.3027 -0.6534  0.0115
 3178TIP3   OH231092   4.579   6.462   0.705 -0.2096 -0.1796  0.1366
 3178TIP3    H131093   4.519   6.421   0.768 -0.7727 -1.0581 -0.9432
 3178TIP3    H231094   4.575   6.406   0.628  0.7988  0.6431 -0.5436
 3179TIP3   OH231095   3.389   6.551   0.772  0.4154  0.0777 -0.2781
 3179TIP3    H131096   3.346   6.485   0.717 -2.0102 -0.8311  2.4455
 3179TIP3    H231097   3.458   6.502   0.817  0.3448  0.0465 -0.2034
 3180TIP3   OH231098   3.235   3.845   6.376 -0.2245  0.2426  0.2106
 3180TIP3    H131099   3.141   3.853   6.358 -0.3800 -0.6233  0.5663
 3180TIP3    H231100   3.255   3.921   6.431 -0.9785 -0.1758  1.0976
 3181TIP3   OH231101   5.952   4.517   7.853  0.9480  0.0130  0.0213
 3181TIP3    H131102   5.887   4.581   7.826  3.0867  1.9789 -0.7876
 3181TIP3    H231103   5.984   4.479   7.772  1.6096 -0.0903  0.3219
 3182TIP3   OH231104   4.139   3.343   7.387 -0.2243 -0.0561 -0.2681
 3182TIP3    H131105   4.170   3.252   7.396  0.4202  0.1737 -0.1029
 3182TIP3    H231106   4.082   3.341   7.310  0.7106 -0.3690 -0.9779
 3183TIP3   OH231107   0.237   6.308   8.537 -0.0624 -0.1262 -0.4764
 3183TIP3    H131108   0.314   6.258   8.510 -0.1634 -0.4916 -0.1038
 3183TIP3    H231109   0.244   6.391   8.490  0.5386 -0.1721 -0.4793
 3184TIP3   OH231110   3.006   2.993   2.430 -0.7190  0.3692  0.6356
 3184TIP3    H131111   3.018   3.019   2.338  2.4289  1.2276  1.1811
 3184TIP3    H231112   2.974   2.903   2.425  0.0900  0.1343 -1.3088
 3185TIP3   OH231113   3.698   0.291   6.741  0.6331 -0.3986 -0.3027
 3185TIP3    H131114   3.636   0.240   6.688  0.4286  0.3311 -0.7719
 3185TIP3    H231115   3.697   0.248   6.827 -0.6240 -0.3137 -0.2634
 3186TIP3   OH231116   2.120   1.433   1.111  0.1604 -0.3056  0.2163
 3186TIP3    H131117   2.026   1.421   1.127 -0.3086  1.5892 -0.7932
 3186TIP3    H231118   2.160   1.351   1.139 -1.7140 -0.8969  1.3438
 3187TIP3   OH231119   2.673   6.623   6.168 -0.1516 -0.2371 -0.0009
 3187TIP3    H131120   2.630   6.573   6.238  0.6564 -0.1786  0.5450
 3187TIP3    H231121   2.616   6.699   6.156  0.4943  0.5627  1.6940
 3188TIP3   OH231122   2.645   0.866   7.734  0.7468  0.3071  0.0484
 3188TIP3    H131123   2.623   0.946   7.686  1.5403  1.3730  1.3803
 3188TIP3    H231124   2.606   0.795   7.682 -0.8601  1.6209 -0.6452
 3189TIP3   OH231125   3.501   3.135   1.996  0.2320  0.2206 -0.3820
 3189TIP3    H131126   3.537   3.192   2.064  1.2654 -2.3501  1.3639
 3189TIP3    H231127   3.467   3.195   1.930  0.1980  2.8286  1.8621
 3190TIP3   OH231128   4.969   5.447   8.431 -0.4395 -0.0636 -0.5057
 3190TIP3    H131129   4.964   5.357   8.462 -1.6804 -0.0418 -0.5902
 3190TIP3    H231130   4.881   5.466   8.397  0.0246  0.9084 -1.2343
 3191TIP3   OH231131   3.050   5.326   0.350 -0.1446 -0.2315  1.1872
 3191TIP3    H131132   3.135   5.291   0.377  0.2116 -0.7484 -0.5077
 3191TIP3    H231133   3.059   5.421   0.357  0.8808 -0.2421  0.2231
 3192TIP3   OH231134   2.989   0.545   7.343 -0.2946 -0.0873 -0.9828
 3192TIP3    H131135   2.955   0.486   7.276 -1.1147  1.5232 -2.0550
 3192TIP3    H231136   3.005   0.627   7.297  0.0976  0.7647  0.5943
 3193TIP3   OH231137   1.797   4.571   0.670  0.4257 -0.2079 -0.5466
 3193TIP3    H131138   1.746   4.587   0.590  1.0135  1.7293 -0.5763
 3193TIP3    H231139   1.876   4.527   0.639  0.0624 -0.6615 -0.8523
 3194TIP3   OH231140   3.499   3.575   8.180 -0.2285 -0.4895  0.3960
 3194TIP3    H131141   3.411   3.579   8.217 -1.1924 -3.5804 -1.2240
 3194TIP3    H231142   3.488   3.605   8.090  0.6539  0.1744  0.4921
 3195TIP3   OH231143   6.733   2.869   7.833 -0.3073 -0.3766  0.0805
 3195TIP3    H131144   6.827   2.860   7.852 -0.5729 -1.6238  0.9058
 3195TIP3    H231145   6.728   2.947   7.778  1.0321  0.7940  1.5101
 3196TIP3   OH231146   3.477   1.575   1.694 -0.7075  0.1634  0.0618
 3196TIP3    H131147   3.390   1.534   1.694 -0.9666  0.6529  1.9806
 3196TIP3    H231148   3.459   1.669   1.698 -0.0723  0.2787  0.2577
 3197TIP3   OH231149   4.739   2.437   8.463 -0.1314  0.5368 -0.2402
 3197TIP3    H131150   4.814   2.496   8.462  0.4749 -0.2198 -0.6379
 3197TIP3    H231151   4.690   2.461   8.541  1.1780  0.2494  0.7054
 3198TIP3   OH231152   4.600   4.059   8.490  0.0729  0.3530 -0.2495
 3198TIP3    H131153   4.651   4.026   8.564 -0.7422 -0.9740 -0.2328
 3198TIP3    H231154   4.652   4.130   8.454  1.5368 -0.4244  0.2501
 3199TIP3   OH231155   4.922   0.898   2.632 -0.3331  0.8383 -0.1365
 3199TIP3    H131156   4.880   0.867   2.712  0.6025 -0.8702 -0.2628
 3199TIP3    H231157   4.884   0.844   2.563  0.8847  0.3489 -0.4495
 3200TIP3   OH231158   4.247   5.301   6.729  0.6464 -0.5821 -0.0168
 3200TIP3    H131159   4.258   5.380   6.676 -2.8002 -0.3731 -0.6664
 3200TIP3    H231160   4.323   5.247   6.709  1.4511  1.1968 -2.0976
 3201TIP3   OH231161   6.651   6.223   1.928  0.1275  0.7278 -0.2941
 3201TIP3    H131162   6.693   6.257   1.849  1.8047  0.1686  0.3280
 3201TIP3    H231163   6.559   6.214   1.903 -0.4119  5.1264 -0.6705
 3202TIP3   OH231164   1.681   1.182   7.321  0.1865  0.2351  0.3211
 3202TIP3    H131165   1.600   1.216   7.357 -1.4139 -0.5108 -2.3335
 3202TIP3    H231166   1.726   1.260   7.286  1.2469  0.8057  2.7237
 3203TIP3   OH231167   1.461   0.058   0.321  0.1996 -0.1602 -0.0794
 3203TIP3    H131168   1.401   0.017   0.383  0.8294  0.6943  1.1643
 3203TIP3    H231169   1.438   0.151   0.324  1.0021  0.0499 -0.2258
 3204TIP3   OH231170   3.631   5.486   2.490 -0.4732 -0.9268  0.1574
 3204TIP3    H131171   3.663   5.418   2.550 -0.0713 -0.3389  0.6173
 3204TIP3    H231172   3.694   5.487   2.418 -1.0022 -1.6925 -0.3290
 3205TIP3   OH231173   1.046   2.679   0.636  0.1818 -0.3384 -0.0358
 3205TIP3    H131174   1.057   2.773   0.621 -0.2283  0.1691  2.4616
 3205TIP3    H231175   1.096   2.661   0.715 -1.0507 -1.8827  0.4431
 3206TIP3   OH231176   0.566   0.921   7.527 -0.2967 -0.3158 -0.6102
 3206TIP3    H131177   0.615   0.969   7.459  1.5009 -1.5208 -0.2284
 3206TIP3    H231178   0.574   0.977   7.605 -0.7926  0.1923 -0.9166
 3207TIP3   OH231179   3.325   5.579   7.417 -0.0916  0.1492  0.2486
 3207TIP3    H131180   3.334   5.539   7.503  1.4243 -0.1125  0.0034
 3207TIP3    H231181   3.376   5.522   7.359 -1.4339  0.0766 -0.9243
 3208TIP3   OH231182   6.115   4.561   2.264 -0.0231 -0.2845  0.4305
 3208TIP3    H131183   6.147   4.600   2.345 -2.0915 -0.1613  1.2509
 3208TIP3    H231184   6.122   4.631   2.199 -1.6424  0.8049  1.3667
 3209TIP3   OH231185   3.800   2.532   0.007 -0.2832  0.2940  0.0660
 3209TIP3    H131186   3.782   2.454   0.059 -0.8095  0.9545  0.9036
 3209TIP3    H231187   3.819   2.499  -0.081 -1.4086 -0.7237  0.1797
 3210TIP3   OH231188   2.656   3.743   8.334 -0.2640 -0.4599  0.3878
 3210TIP3    H131189   2.607   3.820   8.306  1.5385  0.3440 -0.7450
 3210TIP3    H231190   2.733   3.779   8.378  0.7679 -1.5858 -0.4511
 3211TIP3   OH231191   2.147   1.173   6.820  0.3187 -0.4363 -0.0283
 3211TIP3    H131192   2.193   1.159   6.738 -0.9958 -1.3668 -0.6323
 3211TIP3    H231193   2.055   1.155   6.800 -0.1022 -0.1580  1.5132
 3212TIP3   OH231194   6.571   5.619   7.811 -0.1840  0.3779  0.5924
 3212TIP3    H131195   6.518   5.696   7.792 -0.5266  0.7290  2.7019
 3212TIP3    H231196   6.609   5.594   7.727  0.7164  3.3939  0.0058
 3213TIP3   OH231197   0.247   2.248   7.291  0.4751 -0.6808 -0.4834
 3213TIP3    H131198   0.300   2.190   7.236  0.4706 -2.4671  1.2847
 3213TIP3    H231199   0.311   2.307   7.332  0.7013 -0.6757 -0.8404
 3214TIP3   OH231200   6.089   3.557   8.509  0.2468  0.1457  0.0843
 3214TIP3    H131201   6.152   3.488   8.489 -0.5853 -0.5387 -0.2568
 3214TIP3    H231202   6.131   3.637   8.478  0.8301 -0.3358 -0.4106
 3215TIP3   OH231203   0.625   0.581   1.999  0.5181  0.2174  0.1997
 3215TIP3    H131204   0.611   0.599   2.092  0.0850 -0.3621  0.2574
 3215TIP3    H231205   0.585   0.495   1.986 -2.1835  1.5599 -1.1560
 3216TIP3   OH231206   1.081   0.845   7.677  0.2397  0.2894 -0.1928
 3216TIP3    H131207   0.987   0.844   7.660  0.1325  2.4675  0.0563
 3216TIP3    H231208   1.110   0.756   7.656 -2.0722 -0.8302  0.9432
 3217TIP3   OH231209   1.056   4.104   1.199 -0.0810  0.4837  0.1725
 3217TIP3    H131210   1.066   4.100   1.294 -3.1724  2.7238  0.7683
 3217TIP3    H231211   1.113   4.176   1.172 -0.1651  0.6897  0.5381
 3218TIP3   OH231212   0.086   1.748   0.798  0.6057 -0.1516 -0.9021
 3218TIP3    H131213   0.140   1.726   0.874 -2.3844  0.4265  1.5696
 3218TIP3    H231214   0.050   1.665   0.768 -0.5290 -0.1100  0.2611
 3219TIP3   OH231215   1.383   3.350   6.319  0.4430  0.1726 -0.0003
 3219TIP3    H131216   1.402   3.319   6.407 -1.2348 -1.2959 -0.0878
 3219TIP3    H231217   1.420   3.438   6.315  1.7320 -0.2585  1.6974
 3220TIP3   OH231218   6.428   3.107   2.607  0.2834  0.2367 -0.0897
 3220TIP3    H131219   6.478   3.037   2.564 -0.3113  0.2547 -0.8305
 3220TIP3    H231220   6.339   3.072   2.614  0.4304  0.1106  1.4356
 3221TIP3   OH231221   3.771   4.669   0.188  0.7456  0.2354 -0.0901
 3221TIP3    H131222   3.676   4.671   0.200  0.9400 -0.3692  1.9089
 3221TIP3    H231223   3.797   4.761   0.190  0.1204  0.5179 -2.0076
 3222TIP3   OH231224   5.734   1.328   1.706  0.2603 -0.1039  0.6119
 3222TIP3    H131225   5.713   1.417   1.735  1.8576  1.3066 -2.1232
 3222TIP3    H231226   5.717   1.329   1.612 -0.2875 -2.9458  0.5980
 3223TIP3   OH231227   0.925   0.682   0.844  0.0181  0.0980  0.2162
 3223TIP3    H131228   0.895   0.603   0.889  1.4595 -1.3981 -1.2922
 3223TIP3    H231229   0.908   0.753   0.906 -1.4048 -1.3571  1.6007
 3224TIP3   OH231230   0.249   6.149   0.235 -0.1215  0.4091  0.3381
 3224TIP3    H131231   0.225   6.238   0.262 -0.8018  0.3575 -0.0838
 3224TIP3    H231232   0.344   6.151   0.228 -0.1366  1.1306  0.2446
 3225TIP3   OH231233   0.120   1.391   7.958  0.2466 -0.2099  0.3663
 3225TIP3    H131234   0.172   1.453   7.907 -2.1783  1.2390 -0.5072
 3225TIP3    H231235   0.167   1.381   8.040  1.9056  0.9465 -0.3942
 3226TIP3   OH231236   0.343   4.568   0.432  0.6145 -0.5288 -0.9449
 3226TIP3    H131237   0.262   4.522   0.410  0.6764 -0.4614 -1.3240
 3226TIP3    H231238   0.320   4.621   0.509  0.4959 -1.0527 -0.6128
 3227TIP3   OH231239   2.978   4.016   1.841  0.1197  0.1118 -0.6448
 3227TIP3    H131240   3.054   4.068   1.816  2.0451 -0.6534  2.9587
 3227TIP3    H231241   2.919   4.077   1.885 -0.0956  0.2122 -1.0726
 3228TIP3   OH231242   5.993   0.417   1.833 -0.9185  0.1196 -0.2143
 3228TIP3    H131243   5.932   0.358   1.788  0.4430  0.4164 -2.5986
 3228TIP3    H231244   5.992   0.497   1.781  0.0953  0.8045  0.7895
 3229TIP3   OH231245   5.208   4.230   7.393 -0.0551 -0.5928  1.0502
 3229TIP3    H131246   5.220   4.300   7.458 -1.4712  0.3226  0.3546
 3229TIP3    H231247   5.267   4.254   7.322  0.2548 -0.7052  1.2624
 3230TIP3   OH231248   6.814   5.141   0.888  0.0929 -0.0859  0.1738
 3230TIP3    H131249   6.777   5.061   0.925 -1.9785  0.7664  0.0701
 3230TIP3    H231250   6.739   5.186   0.849  1.2163  1.8637  0.1617
 3231TIP3   OH231251   3.670   3.435   7.073  0.3372  0.3663  0.3020
 3231TIP3    H131252   3.685   3.373   7.001 -2.4469  0.8515 -0.8211
 3231TIP3    H231253   3.624   3.383   7.140  1.6580  0.2738  1.1786
 3232TIP3   OH231254   0.597   2.894   7.795 -0.0975  0.4950 -0.4607
 3232TIP3    H131255   0.558   2.809   7.815 -0.9655  1.0860  0.4727
 3232TIP3    H231256   0.662   2.876   7.728 -0.1577 -0.9276 -0.1555
 3233TIP3   OH231257   5.449   2.920   0.313  0.4893  0.0229 -0.1739
 3233TIP3    H131258   5.458   2.978   0.237 -2.0584  0.3391 -0.3226
 3233TIP3    H231259   5.538   2.889   0.330  1.6300  2.3980 -1.3227
 3234TIP3   OH231260   6.303   5.130   0.050 -0.2979  0.6812 -0.0978
 3234TIP3    H131261   6.226   5.144  -0.005 -0.0430  2.9291  0.0140
 3234TIP3    H231262   6.267   5.123   0.139 -0.6207 -1.9269 -0.3656
 3235TIP3   OH231263   0.484   5.915   6.466 -0.4027  0.5901 -0.3211
 3235TIP3    H131264   0.405   5.861   6.461  0.8774 -1.7960  2.3019
 3235TIP3    H231265   0.490   5.939   6.559  2.2827  0.0708 -0.2829
 3236TIP3   OH231266   0.337   1.956   7.869 -0.3141  0.2414 -0.4600
 3236TIP3    H131267   0.296   1.909   7.796 -1.5268  1.4389 -0.5834
 3236TIP3    H231268   0.264   1.988   7.921  0.5084  0.9673  0.2752
 3237TIP3   OH231269   2.127   4.130   0.406  0.0909 -0.3294 -0.2092
 3237TIP3    H131270   2.061   4.131   0.337  1.0845 -0.4387 -1.1980
 3237TIP3    H231271   2.114   4.212   0.454 -0.3534 -0.0567 -0.7871
 3238TIP3   OH231272   0.634   0.145   2.408 -0.4130 -0.3053  0.3812
 3238TIP3    H131273   0.587   0.092   2.473 -3.3480  1.3790 -0.2126
 3238TIP3    H231274   0.604   0.234   2.423  1.9939  0.7513 -0.6825
 3239TIP3   OH231275   4.367   3.115   7.121  0.0448 -0.0802  0.6610
 3239TIP3    H131276   4.350   3.148   7.209  0.0710 -0.8994  0.9885
 3239TIP3    H231277   4.324   3.177   7.063 -0.4779  0.1487  1.2794
 3240TIP3   OH231278   4.933   5.821   2.325 -0.1265 -0.2451 -0.2322
 3240TIP3    H131279   4.858   5.792   2.272  0.9433 -0.9326 -1.4134
 3240TIP3    H231280   4.947   5.749   2.386  0.9590 -1.1889 -1.5206
 3241TIP3   OH231281   0.283   3.432   1.333 -0.0637 -0.1695  0.1022
 3241TIP3    H131282   0.230   3.431   1.413 -1.0967 -1.5556 -0.5585
 3241TIP3    H231283   0.225   3.469   1.266 -0.0242 -1.1323 -0.4923
 3242TIP3   OH231284   3.363   3.220   8.291  0.1466 -0.2235 -0.0209
 3242TIP3    H131285   3.268   3.229   8.284  0.0262  1.0829  2.3617
 3242TIP3    H231286   3.393   3.304   8.326  1.7621 -1.6666  2.3618
 3243TIP3   OH231287   4.268   4.778   1.940  0.8624 -0.0497 -0.2626
 3243TIP3    H131288   4.226   4.789   2.025  1.5052 -0.1333  0.0700
 3243TIP3    H231289   4.272   4.867   1.904  1.1208  0.0679  0.0518
 3244TIP3   OH231290   3.986   4.817   8.648  0.0748 -0.3778 -0.5354
 3244TIP3    H131291   3.965   4.819   8.555 -1.0532 -4.0944 -0.5304
 3244TIP3    H231292   4.044   4.742   8.657  0.0058 -0.2088  1.7815
 3245TIP3   OH231293   5.151   1.353   1.354 -0.0890  0.1841 -1.1278
 3245TIP3    H131294   5.229   1.307   1.386 -0.7692 -0.4992 -0.4355
 3245TIP3    H231295   5.157   1.345   1.258  0.7705  0.2781 -1.0893
 3246TIP3   OH231296   1.789   0.687   0.645  0.6326  0.0635 -0.2896
 3246TIP3    H131297   1.867   0.680   0.590 -0.6406 -0.7885 -2.1006
 3246TIP3    H231298   1.768   0.597   0.667 -0.2300  0.2254 -0.4277
 3247TIP3   OH231299   0.929   0.696   8.528 -0.2671 -0.6407  0.3186
 3247TIP3    H131300   0.932   0.727   8.438  1.4369 -1.4166  0.0635
 3247TIP3    H231301   0.883   0.613   8.524 -1.2750 -0.0963  0.3730
 3248TIP3   OH231302   4.749   4.857   7.022  0.1607 -0.0569 -0.4200
 3248TIP3    H131303   4.834   4.878   6.985  0.1759  0.0154 -0.3424
 3248TIP3    H231304   4.687   4.909   6.971  0.2099  0.2703 -0.1423
 3249TIP3   OH231305   0.550   0.536   6.781 -0.1897 -0.3738 -0.2530
 3249TIP3    H131306   0.580   0.516   6.693 -0.8729 -0.1309 -0.5472
 3249TIP3    H231307   0.556   0.453   6.828 -0.8917 -0.7697 -0.8495
 3250TIP3   OH231308   5.414   5.495   2.315 -0.4012 -0.1284 -0.0462
 3250TIP3    H131309   5.472   5.499   2.392  1.6817  1.1984 -1.5678
 3250TIP3    H231310   5.443   5.417   2.267 -0.2370  0.2349 -0.5431
 3251TIP3   OH231311   5.002   3.760   8.477 -0.1761 -0.5297 -0.6007
 3251TIP3    H131312   4.931   3.741   8.538  1.5798 -0.5488  1.5576
 3251TIP3    H231313   5.027   3.675   8.442  0.5169 -0.8825  0.7009
 3252TIP3   OH231314   5.426   2.058   0.703  0.5034 -0.2995 -0.8586
 3252TIP3    H131315   5.368   2.125   0.738 -0.4997 -1.4150 -0.3224
 3252TIP3    H231316   5.514   2.085   0.731 -0.1057 -0.3182  1.2308
 3253TIP3   OH231317   6.393   1.517   0.890 -0.4337 -0.2384 -0.2272
 3253TIP3    H131318   6.300   1.532   0.872  0.2850  3.7691 -1.6221
 3253TIP3    H231319   6.404   1.544   0.981 -0.4682  0.1515 -0.3395
 3254TIP3   OH231320   1.762   0.861   0.844  0.2784  0.1698  0.4136
 3254TIP3    H131321   1.770   0.806   0.766  0.6969 -0.8347  1.1463
 3254TIP3    H231322   1.723   0.943   0.812  1.3040  0.1468 -1.0108
 3255TIP3   OH231323   4.016   1.583   1.799 -0.2758 -0.0902  0.5316
 3255TIP3    H131324   4.021   1.518   1.869 -0.7102 -1.4754 -0.6551
 3255TIP3    H231325   3.968   1.538   1.729 -2.0709  2.0683  0.2408
 3256TIP3   OH231326   0.787   5.961   0.853 -0.7364  0.2933  0.1435
 3256TIP3    H131327   0.830   6.047   0.854 -0.9743  0.4620  2.5949
 3256TIP3    H231328   0.846   5.905   0.903  0.3437 -1.5645 -2.9724
 3257TIP3   OH231329   0.717   4.137   0.048  0.7361  0.0734  0.4090
 3257TIP3    H131330   0.736   4.101   0.135  0.6740 -0.9040  0.0231
 3257TIP3    H231331   0.623   4.122   0.035  0.8566 -0.3147 -0.0576
 3258TIP3   OH231332   2.209   2.233   2.506 -0.0257 -0.1628 -0.2762
 3258TIP3    H131333   2.287   2.271   2.466 -1.5742  2.1641 -1.3082
 3258TIP3    H231334   2.213   2.261   2.598 -0.1074  0.8063 -0.5547
 3259TIP3   OH231335   2.086   2.253   1.753 -0.7721  0.1799  0.4934
 3259TIP3    H131336   2.152   2.187   1.776 -0.3881  0.1931 -0.5025
 3259TIP3    H231337   2.079   2.308   1.830 -1.7003 -1.4937  1.6805
 3260TIP3   OH231338   4.549   4.753   2.465 -0.5393  0.6018  0.5327
 3260TIP3    H131339   4.553   4.842   2.431 -1.5880  0.6652  0.5679
 3260TIP3    H231340   4.457   4.728   2.458 -0.2832 -0.4226  0.6711
 3261TIP3   OH231341   5.589   4.263   7.755  0.6484 -0.0249 -0.1199
 3261TIP3    H131342   5.609   4.236   7.845  1.5216 -1.8183 -0.7911
 3261TIP3    H231343   5.638   4.201   7.701  0.2443  1.1035 -1.8388
 3262TIP3   OH231344   2.441   4.810   0.164  0.1817 -0.1570  0.3835
 3262TIP3    H131345   2.486   4.889   0.197  0.3643 -0.6667  1.3978
 3262TIP3    H231346   2.481   4.738   0.213 -0.5798 -0.7948  0.0776
 3263TIP3   OH231347   0.431   3.730   7.679 -0.2766  0.0728  0.5353
 3263TIP3    H131348   0.485   3.705   7.605 -1.1067  0.9035 -0.3757
 3263TIP3    H231349   0.426   3.825   7.675 -1.5849  0.0328  0.7404
 3264TIP3   OH231350   3.516   5.497   1.886 -0.2659  0.3680 -0.0571
 3264TIP3    H131351   3.457   5.513   1.813 -3.3678 -3.1781  1.3668
 3264TIP3    H231352   3.510   5.577   1.940 -1.4002  1.2653 -1.4349
 3265TIP3   OH231353   5.443   3.079   8.431  0.4938 -0.3329  0.0249
 3265TIP3    H131354   5.378   3.072   8.362  1.1763 -0.1272 -0.6538
 3265TIP3    H231355   5.406   3.029   8.504 -0.4430 -0.1619 -0.3198
 3266TIP3   OH231356   0.609   0.992   0.633 -0.2518 -0.4628  0.2792
 3266TIP3    H131357   0.661   1.071   0.615  0.1434 -0.4892  1.2281
 3266TIP3    H231358   0.603   0.989   0.728 -0.3127 -1.5629  0.2489
 3267TIP3   OH231359   3.154   4.506   3.249 -0.2261  0.3314 -0.2823
 3267TIP3    H131360   3.116   4.578   3.300 -1.4754 -1.8007  1.9955
 3267TIP3    H231361   3.248   4.524   3.250 -0.6103  2.9921 -1.6318
 3268TIP3   OH231362   5.073   0.110   1.310  0.4273 -0.0376 -0.0231
 3268TIP3    H131363   5.117   0.126   1.227 -0.1933  0.8240 -0.2077
 3268TIP3    H231364   4.982   0.136   1.293  0.0343 -0.9869  0.5815
 3269TIP3   OH231365   2.410   2.672   0.427  0.1840  0.2722  0.0591
 3269TIP3    H131366   2.455   2.748   0.462  0.4452 -0.5762  1.6719
 3269TIP3    H231367   2.479   2.618   0.388 -0.0485  1.0010 -1.4297
 3270TIP3   OH231368   4.319   1.286   6.748  0.6953  0.0931  0.8153
 3270TIP3    H131369   4.339   1.193   6.764 -0.2248 -0.3043 -0.2709
 3270TIP3    H231370   4.282   1.288   6.660 -1.3022  1.1889  1.6216
 3271TIP3   OH231371   1.493   1.198   2.137 -0.3079  0.2771 -0.1902
 3271TIP3    H131372   1.561   1.249   2.183 -0.6196  0.6884 -0.1777
 3271TIP3    H231373   1.464   1.134   2.202 -0.6307  0.7495  0.1444
 3272TIP3   OH231374   4.656   6.740   6.624  0.0979 -0.0920  0.2119
 3272TIP3    H131375   4.706   6.796   6.684  1.4960  2.5737 -3.1408
 3272TIP3    H231376   4.565   6.757   6.646  0.5465  0.5044  1.7715
 3273TIP3   OH231377   1.902   2.908   2.267  0.1203  0.0177 -0.9980
 3273TIP3    H131378   1.952   2.949   2.197 -1.3980 -0.8451 -2.7031
 3273TIP3    H231379   1.811   2.930   2.246 -0.4314 -1.0674  0.1640
 3274TIP3   OH231380   2.588   1.508   8.372  0.0601 -0.0497  0.6843
 3274TIP3    H131381   2.522   1.442   8.351  0.2882 -0.6146  1.6814
 3274TIP3    H231382   2.671   1.467   8.347  0.2138 -0.2101  1.4380
 3275TIP3   OH231383   0.831   1.789   1.083 -0.0311  0.4249  0.0043
 3275TIP3    H131384   0.830   1.768   1.177 -0.9433 -1.0541 -0.3002
 3275TIP3    H231385   0.843   1.884   1.080  1.3696  0.3435  1.5717
 3276TIP3   OH231386   3.774   5.441   7.471 -0.0737  0.5574 -0.2495
 3276TIP3    H131387   3.685   5.429   7.440  0.1730  0.6589 -1.0150
 3276TIP3    H231388   3.827   5.385   7.415  0.2242 -0.3524  0.9111
 3277TIP3   OH231389   2.888   0.602   7.827  0.1644  0.0036 -0.4777
 3277TIP3    H131390   2.805   0.562   7.854  0.1655  0.0263 -0.4418
 3277TIP3    H231391   2.917   0.547   7.754  1.1059 -1.2004  0.7520
 3278TIP3   OH231392   0.321   5.200   0.815  0.1800  0.2163  0.0258
 3278TIP3    H131393   0.332   5.295   0.802 -0.2949  0.2488 -0.1592
 3278TIP3    H231394   0.410   5.167   0.823  0.3301  0.8291  1.1622
 3279TIP3   OH231395   2.252   0.841   2.148  0.2017 -0.2879 -0.7781
 3279TIP3    H131396   2.332   0.871   2.191  0.2235 -0.7985 -0.4533
 3279TIP3    H231397   2.267   0.748   2.131 -0.0712 -0.2410 -1.2925
 3280TIP3   OH231398   3.691   6.076   8.333  0.9626 -0.3873  0.2984
 3280TIP3    H131399   3.646   5.996   8.304 -0.4842 -0.2189  1.9655
 3280TIP3    H231400   3.718   6.057   8.423  2.0234  0.4616  0.1854
 3281TIP3   OH231401   0.537   5.913   8.094 -0.2112 -0.3692  0.7658
 3281TIP3    H131402   0.494   5.888   8.176  1.0407  1.2700  1.9826
 3281TIP3    H231403   0.543   6.008   8.098  2.9443 -0.4416  0.4297
 3282TIP3   OH231404   5.597   3.113   7.972  0.3538  0.8244 -0.2068
 3282TIP3    H131405   5.553   3.179   7.919 -0.3694  0.2528 -0.3369
 3282TIP3    H231406   5.541   3.035   7.965  0.8402  0.3989  0.4732
 3283TIP3   OH231407   2.216   2.396   0.671  0.0538  0.3014  0.0208
 3283TIP3    H131408   2.279   2.404   0.743 -0.7140 -1.1572  0.9305
 3283TIP3    H231409   2.239   2.312   0.629 -1.6580 -0.6215  0.8232
 3284TIP3   OH231410   1.572   2.979   7.306 -0.4514 -0.1856  0.5029
 3284TIP3    H131411   1.604   3.004   7.393  0.3031  2.4733 -0.4233
 3284TIP3    H231412   1.518   3.054   7.279  0.7740 -0.1107 -1.9903
 3285TIP3   OH231413   0.831   3.590   1.917 -0.0616  0.0475 -0.1729
 3285TIP3    H131414   0.866   3.501   1.926  2.4489  0.7596 -1.8244
 3285TIP3    H231415   0.798   3.593   1.827  1.7534  1.3083 -0.8525
 3286TIP3   OH231416   6.123   0.937   8.552 -0.4604  0.4907  0.2209
 3286TIP3    H131417   6.182   0.875   8.596  0.3668  0.5002 -0.8329
 3286TIP3    H231418   6.181   1.007   8.523 -1.4853  2.2181  2.0951
 3287TIP3   OH231419   6.254   2.654   8.578  0.0247 -0.8655  0.0726
 3287TIP3    H131420   6.237   2.594   8.505  0.9098 -0.3319 -0.5922
 3287TIP3    H231421   6.349   2.648   8.592  0.6784  2.3697 -1.8709
 3288TIP3   OH231422   6.146   0.798   1.950 -0.2875 -0.2594 -0.3647
 3288TIP3    H131423   6.167   0.724   2.006 -1.1001  0.4457  0.9323
 3288TIP3    H231424   6.140   0.872   2.010 -2.0323  0.3727 -1.2579
 3289TIP3   OH231425   3.872   4.124   2.422  0.2397  0.1468 -0.4254
 3289TIP3    H131426   3.892   4.101   2.332  1.5388 -1.3759  0.2007
 3289TIP3    H231427   3.935   4.074   2.474 -0.5174  0.9322  1.3336
 3290TIP3   OH231428   1.442   1.331   6.633  0.2831  0.0830  0.0425
 3290TIP3    H131429   1.501   1.287   6.571  1.9130 -0.0454  1.5800
 3290TIP3    H231430   1.471   1.422   6.632 -1.1024  0.5354 -0.9256
 3291TIP3   OH231431   6.846   6.855   0.889  0.5534 -0.4817 -0.5350
 3291TIP3    H131432   6.883   6.935   0.926 -0.9504 -0.1550  0.3425
 3291TIP3    H231433   6.917   6.819   0.836  1.0531  1.8115 -1.5801
 3292TIP3   OH231434   2.717   5.448   8.468  0.4596  0.4169  0.1233
 3292TIP3    H131435   2.703   5.477   8.558  0.2887 -0.8395  0.5326
 3292TIP3    H231436   2.724   5.528   8.417 -0.5746  1.1484  1.0838
 3293TIP3   OH231437   2.409   3.552   8.169  0.7664  0.2190 -0.0223
 3293TIP3    H131438   2.384   3.642   8.188 -1.2851 -0.0375 -1.2130
 3293TIP3    H231439   2.337   3.518   8.116  1.7850 -1.9382 -0.1191
 3294TIP3   OH231440   0.690   4.548   8.241 -0.9385 -0.3362  0.6661
 3294TIP3    H131441   0.720   4.554   8.150 -0.7551 -0.4296  0.7188
 3294TIP3    H231442   0.613   4.492   8.238 -0.6793 -0.6955  0.6235
 3295TIP3   OH231443   4.029   1.889   8.335  0.1134  0.3236  0.1795
 3295TIP3    H131444   4.023   1.831   8.411 -1.5704  0.4735  0.1919
 3295TIP3    H231445   3.939   1.899   8.305  0.3466  2.8466  0.1048
 3296TIP3   OH231446   6.803   2.599   6.638 -0.4988  0.6534 -0.2150
 3296TIP3    H131447   6.762   2.546   6.570  1.2408 -0.8688 -0.1381
 3296TIP3    H231448   6.880   2.637   6.597 -0.3328  1.0731  0.4534
 3297TIP3   OH231449   6.603   1.979   8.668 -0.5343 -0.3335  0.4577
 3297TIP3    H131450   6.659   2.006   8.741  1.5259  1.5010 -1.6515
 3297TIP3    H231451   6.514   2.002   8.697  0.0340 -0.8887  2.8496
 3298TIP3   OH231452   0.547   4.837   2.265  0.3961  0.4722 -0.3144
 3298TIP3    H131453   0.505   4.753   2.280  1.7625 -0.0791  0.5626
 3298TIP3    H231454   0.480   4.902   2.286 -0.1929 -0.3879  0.5010
 3299TIP3   OH231455   3.824   3.199   7.354 -0.7121  0.4658  0.6952
 3299TIP3    H131456   3.879   3.203   7.276 -0.5588  2.7439  0.8508
 3299TIP3    H231457   3.868   3.137   7.412 -0.1735 -0.3249 -0.5225
 3300TIP3   OH231458   2.953   6.477   0.222 -0.7151  0.3707 -0.1953
 3300TIP3    H131459   2.990   6.546   0.167  1.4625  0.2706  1.0461
 3300TIP3    H231460   2.916   6.414   0.159 -2.9074  2.6364 -1.3558
 3301TIP3   OH231461   0.808   0.917   2.033  0.1787 -0.3294 -0.3780
 3301TIP3    H131462   0.728   0.953   1.996  0.0945  0.0031  0.1249
 3301TIP3    H231463   0.835   0.981   2.099  0.6866 -0.5917 -0.3289
 3302TIP3   OH231464   5.838   5.453   1.297  0.3879  0.4331  0.0927
 3302TIP3    H131465   5.860   5.427   1.208 -0.3598  1.2837 -0.3499
 3302TIP3    H231466   5.754   5.411   1.315 -0.7737  2.3556 -0.5887
 3303TIP3   OH231467   5.151   1.973   7.338 -0.0724 -0.2070  0.8711
 3303TIP3    H131468   5.239   2.010   7.325 -1.0234  1.8056 -0.2232
 3303TIP3    H231469   5.095   2.021   7.277 -2.1117 -0.8252  2.1562
 3304TIP3   OH231470   0.111   3.793   8.103  0.4685 -0.3765 -0.0750
 3304TIP3    H131471   0.136   3.853   8.033 -0.5132 -0.1853 -0.2754
 3304TIP3    H231472   0.092   3.710   8.058  1.5260 -0.7584  0.1668
 3305TIP3   OH231473   3.995   0.037   2.001 -0.2989 -0.1161 -0.1114
 3305TIP3    H131474   3.977  -0.016   2.078 -1.0868  0.4874  0.1313
 3305TIP3    H231475   3.996   0.128   2.033 -1.2890  0.1919 -0.9083
 3306TIP3   OH231476   5.296   5.749   0.461 -0.7913  0.1251 -0.0362
 3306TIP3    H131477   5.228   5.798   0.414 -0.4240  0.5616 -0.1196
 3306TIP3    H231478   5.353   5.817   0.499 -0.5942 -0.2327  0.3154
 3307TIP3   OH231479   0.819   0.366   0.261 -0.4291 -0.2656 -0.0204
 3307TIP3    H131480   0.888   0.387   0.198  0.2964  0.8775  1.1010
 3307TIP3    H231481   0.855   0.393   0.345 -1.6442 -1.1307  0.8028
 3308TIP3   OH231482   4.164   5.890   8.374 -0.0952 -0.1044 -0.0617
 3308TIP3    H131483   4.205   5.879   8.460  1.4099  0.4707 -0.6629
 3308TIP3    H231484   4.175   5.806   8.331  0.8634  0.1605 -0.3652
 3309TIP3   OH231485   0.909   4.990   1.957 -0.3091  0.0267 -0.6339
 3309TIP3    H131486   0.970   5.050   1.916 -0.8406 -1.1113 -3.3053
 3309TIP3    H231487   0.960   4.948   2.026  1.0017  1.2208 -0.8188
 3310TIP3   OH231488   4.804   2.180   6.932  0.4812  0.1020  0.9245
 3310TIP3    H131489   4.769   2.188   6.844  0.5290 -0.3687  0.8613
 3310TIP3    H231490   4.838   2.091   6.937 -0.2043 -0.1281  1.6633
 3311TIP3   OH231491   5.151   2.531   7.694 -0.3275  0.6998 -0.2581
 3311TIP3    H131492   5.168   2.604   7.634 -0.3835  0.4668 -0.5545
 3311TIP3    H231493   5.172   2.567   7.781 -0.3984  1.0838 -0.3974
 3312TIP3   OH231494   6.326   3.238   7.106 -0.1482 -0.2593  0.5882
 3312TIP3    H131495   6.387   3.165   7.114 -1.4503 -1.4564  0.0670
 3312TIP3    H231496   6.332   3.284   7.189  0.0588 -1.4958  1.2854
 3313TIP3   OH231497   1.339   2.139   6.600 -0.1253  0.4372  0.8863
 3313TIP3    H131498   1.313   2.054   6.635  0.1646 -0.8856 -1.8305
 3313TIP3    H231499   1.374   2.120   6.513  1.6563  3.1554  0.8571
 3314TIP3   OH231500   3.803   3.603   0.825 -0.1547 -0.5423  0.4058
 3314TIP3    H131501   3.792   3.512   0.853  1.4421 -1.0594 -0.5133
 3314TIP3    H231502   3.830   3.597   0.733 -1.3359  0.9353 -0.0795
 3315TIP3   OH231503   2.236   4.212   2.028 -0.2922  0.2064  0.2933
 3315TIP3    H131504   2.156   4.182   1.986  1.1517  0.3104 -2.7649
 3315TIP3    H231505   2.231   4.307   2.025  1.7795  0.4237 -4.2572
 3316TIP3   OH231506   0.842   1.182   1.097  0.4117  0.2478  0.0717
 3316TIP3    H131507   0.812   1.116   1.160  0.7966 -0.3549 -0.3578
 3316TIP3    H231508   0.799   1.159   1.015 -1.2760  1.9283  0.4266
 3317TIP3   OH231509   3.668   0.246   0.541  0.0348  0.2450 -0.1434
 3317TIP3    H131510   3.705   0.232   0.628  1.2169  0.6790 -0.5517
 3317TIP3    H231511   3.742   0.279   0.489 -1.3776  2.9991 -0.5308
 3318TIP3   OH231512   1.702   5.351   7.649  0.3652 -0.3594  0.0533
 3318TIP3    H131513   1.661   5.414   7.589 -0.2360 -0.4014  0.4239
 3318TIP3    H231514   1.695   5.267   7.603 -1.2942 -0.6257  0.7492
 3319TIP3   OH231515   5.988   3.293   6.524 -0.1815 -0.0531 -1.3355
 3319TIP3    H131516   6.081   3.311   6.540 -0.5499  1.3120 -0.5365
 3319TIP3    H231517   5.972   3.210   6.570  0.2828  0.5345 -0.0567
 3320TIP3   OH231518   2.301   0.342   8.476 -0.3271 -0.8520 -0.6619
 3320TIP3    H131519   2.345   0.263   8.507  0.2309 -0.5388 -0.6434
 3320TIP3    H231520   2.217   0.342   8.521  0.0170 -0.9973 -0.0060
 3321TIP3   OH231521   0.234   3.336   2.084 -0.1272 -0.2194  0.2656
 3321TIP3    H131522   0.257   3.245   2.105 -2.2169 -1.0362 -0.6399
 3321TIP3    H231523   0.235   3.381   2.169 -0.2038 -1.3825  0.9096
 3322TIP3   OH231524   3.628   2.183   1.597  0.2849 -0.1480 -0.1475
 3322TIP3    H131525   3.715   2.224   1.600  1.7196 -2.7696 -2.0358
 3322TIP3    H231526   3.569   2.256   1.579  2.1749  1.6236  0.3735
 3323TIP3   OH231527   5.746   6.727   8.003  0.4651  0.0057  0.1908
 3323TIP3    H131528   5.732   6.777   7.923 -2.0481  0.7328  0.9875
 3323TIP3    H231529   5.841   6.724   8.014  0.8534  0.3771 -2.4652
 3324TIP3   OH231530   3.837   5.137   8.232  0.0284  0.4862 -0.0162
 3324TIP3    H131531   3.831   5.216   8.179 -2.3487  1.4578  1.5450
 3324TIP3    H231532   3.818   5.166   8.321  3.5065 -1.1418  1.4298
 3325TIP3   OH231533   0.870   5.365   8.122  0.1855  0.2481 -0.8624
 3325TIP3    H131534   0.880   5.343   8.030  0.7359  0.8315 -0.9470
 3325TIP3    H231535   0.824   5.290   8.160  0.6885 -0.3627 -1.4452
 3326TIP3   OH231536   3.396   5.244   7.860  0.0069  0.1461  0.3581
 3326TIP3    H131537   3.457   5.263   7.931  0.4902  0.4998 -0.1422
 3326TIP3    H231538   3.451   5.214   7.788 -0.0942  2.7324 -0.9316
 3327TIP3   OH231539   5.779   3.048   2.340 -0.2638 -0.0839  0.2013
 3327TIP3    H131540   5.766   3.142   2.353  0.0786 -0.1814  1.3110
 3327TIP3    H231541   5.844   3.023   2.406  2.6917 -0.3756 -2.5492
 3328TIP3   OH231542   5.532   0.593   8.658 -0.4120  0.0835 -0.0853
 3328TIP3    H131543   5.443   0.559   8.664 -0.0005 -0.9109  0.7956
 3328TIP3    H231544   5.535   0.665   8.721  0.1019 -1.6189  1.9984
 3329TIP3   OH231545   5.070   5.141   0.467 -0.0540  0.0039  0.0401
 3329TIP3    H131546   5.073   5.123   0.373 -0.6386 -0.9423  0.1796
 3329TIP3    H231547   4.981   5.174   0.482 -0.1101 -0.2742  0.3282
 3330TIP3   OH231548   4.981   6.058   2.194  0.5236 -0.3835 -0.2694
 3330TIP3    H131549   4.938   6.014   2.121  0.5103 -2.1096  0.7180
 3330TIP3    H231550   4.965   6.001   2.269  1.6711  0.6483  0.8093
 3331TIP3   OH231551   0.678   1.735   2.753 -0.3861  0.4154  0.1337
 3331TIP3    H131552   0.715   1.805   2.699 -0.6235  0.7962  0.4556
 3331TIP3    H231553   0.730   1.737   2.834 -0.0967 -0.0849 -0.0404
 3332TIP3   OH231554   0.840   1.708   0.292  0.3874 -0.7235 -0.2324
 3332TIP3    H131555   0.918   1.723   0.346  0.2177  0.5954 -0.3414
 3332TIP3    H231556   0.768   1.702   0.355  0.3479 -0.2866 -0.2323
 3333TIP3   OH231557   4.890   0.309   0.566  0.4066  0.4097 -0.0241
 3333TIP3    H131558   4.848   0.370   0.505  1.3001  0.1915 -0.8802
 3333TIP3    H231559   4.966   0.275   0.518  1.0928  0.1682  1.1807
 3334TIP3   OH231560   1.518   1.001   8.587  0.5818  0.0505  0.4810
 3334TIP3    H131561   1.602   1.034   8.556  1.1166  0.2348  2.0572
 3334TIP3    H231562   1.537   0.960   8.671 -1.0134  0.6366  1.1720
 3335TIP3   OH231563   6.018   4.703   0.782  0.1637 -0.0308  0.0714
 3335TIP3    H131564   5.934   4.704   0.735  0.5536  2.8184 -0.7678
 3335TIP3    H231565   6.000   4.747   0.864  1.0166  1.6303 -0.5900
 3336TIP3   OH231566   3.793   3.233   1.810 -0.2238 -0.0455 -0.1475
 3336TIP3    H131567   3.888   3.229   1.820 -0.2040 -0.1774 -0.3909
 3336TIP3    H231568   3.773   3.326   1.804 -0.1333 -0.0070  0.1249
 3337TIP3   OH231569   0.211   4.851   7.467  0.1331 -0.2430 -0.2212
 3337TIP3    H131570   0.192   4.941   7.440 -1.0398 -0.1944  0.6748
 3337TIP3    H231571   0.140   4.799   7.430  0.1685 -0.6178  0.2196
 3338TIP3   OH231572   2.775   4.427   1.650 -0.2072 -0.1390  0.1865
 3338TIP3    H131573   2.858   4.444   1.694  0.4167 -1.2036 -0.5570
 3338TIP3    H231574   2.778   4.334   1.627 -0.6063  0.3182 -1.9139
 3339TIP3   OH231575   2.228   6.699   7.819  0.2619  0.0492 -0.0435
 3339TIP3    H131576   2.308   6.738   7.855  0.3223  0.2359 -0.3849
 3339TIP3    H231577   2.204   6.633   7.884 -0.4563  1.3808  1.1081
 3340TIP3   OH231578   3.656   5.927   7.987 -0.6206  0.4856 -0.0704
 3340TIP3    H131579   3.618   5.971   7.912 -0.7358  0.6306  0.0728
 3340TIP3    H231580   3.750   5.944   7.980 -0.1985 -2.1305 -1.9244
 3341TIP3   OH231581   4.083   6.556   0.888  0.0698 -0.0737 -0.3899
 3341TIP3    H131582   4.124   6.640   0.870 -0.1713  0.1326  0.0109
 3341TIP3    H231583   4.080   6.551   0.983  0.7101 -0.8461 -0.3981
 3342TIP3   OH231584   5.036   2.204   0.999 -0.3364 -0.2047 -0.0471
 3342TIP3    H131585   5.122   2.180   1.034 -0.0479  0.1398 -0.5000
 3342TIP3    H231586   5.021   2.293   1.032 -1.7715 -1.2501  2.3071
 3343TIP3   OH231587   0.461   3.560   1.796  0.3169  0.1487  0.6431
 3343TIP3    H131588   0.504   3.477   1.815 -0.9799 -0.5577  0.6200
 3343TIP3    H231589   0.437   3.595   1.881 -0.2681 -0.1309  0.5957
 3344TIP3   OH231590   3.184   1.956   7.157 -0.2594 -0.0512 -0.4815
 3344TIP3    H131591   3.140   1.894   7.100  0.6178 -1.5623  0.4024
 3344TIP3    H231592   3.276   1.931   7.154 -0.3588 -1.3331  2.8308
 3345TIP3   OH231593   6.545   4.789   1.961 -0.9258 -0.0777  0.1475
 3345TIP3    H131594   6.554   4.870   1.911 -1.0370 -1.2660 -1.9372
 3345TIP3    H231595   6.534   4.721   1.894  1.0449 -2.0755  1.6986
 3346TIP3   OH231596   4.580   0.587   8.210 -0.4884  0.0040 -0.4394
 3346TIP3    H131597   4.599   0.550   8.296  1.5652  1.2906 -0.2651
 3346TIP3    H231598   4.492   0.623   8.218  0.3614  1.8700  1.8570
 3347TIP3   OH231599   5.602   3.428   1.453 -0.0038 -0.1609  0.3350
 3347TIP3    H131600   5.629   3.354   1.399  0.2604  0.4340 -0.3829
 3347TIP3    H231601   5.524   3.399   1.498  1.5221 -1.7855  2.1044
 3348TIP3   OH231602   4.532   0.007   7.904  0.6935 -0.3044 -0.4386
 3348TIP3    H131603   4.614   0.053   7.886  1.3650 -1.5335 -0.6480
 3348TIP3    H231604   4.552  -0.049   7.979  0.3538 -1.3341 -1.0881
 3349TIP3   OH231605   0.806   0.253   0.651  0.0056 -0.0102  0.4229
 3349TIP3    H131606   0.760   0.177   0.615 -1.5676  1.2360 -0.2748
 3349TIP3    H231607   0.823   0.309   0.576  1.5369  0.1725  0.8661
 3350TIP3   OH231608   1.712   0.943   0.513 -0.4323 -0.4644  0.0156
 3350TIP3    H131609   1.718   0.898   0.598 -2.0582 -1.5868 -0.4330
 3350TIP3    H231610   1.635   0.999   0.521 -0.4206 -0.3521 -0.6215
 3351TIP3   OH231611   1.879   5.982   0.429  0.1274  0.6582 -0.2548
 3351TIP3    H131612   1.938   6.037   0.480  0.3634  0.1150  0.0772
 3351TIP3    H231613   1.872   6.025   0.344  2.6153 -0.2651 -1.0346
 3352TIP3   OH231614   1.158   4.001   0.947 -0.1447 -0.1000 -0.4916
 3352TIP3    H131615   1.119   4.052   1.018 -3.6278 -2.5577 -0.3726
 3352TIP3    H231616   1.132   3.910   0.965  3.6650 -1.6821 -1.9664
 3353TIP3   OH231617   1.143   0.020   1.437 -0.6022  0.3249  0.2368
 3353TIP3    H131618   1.179  -0.005   1.353  0.8659  0.1577  0.8824
 3353TIP3    H231619   1.220   0.034   1.493 -1.5347  0.3217  1.5728
 3354TIP3   OH231620   2.635   5.935   7.918 -0.2158  0.7320 -0.2879
 3354TIP3    H131621   2.664   5.845   7.901  1.1075  1.2157 -0.7217
 3354TIP3    H231622   2.606   5.968   7.833 -1.1427  0.5780 -0.0410
 3355TIP3   OH231623   2.040   0.650   0.456  0.5212 -0.1091 -0.5290
 3355TIP3    H131624   2.048   0.554   0.457  0.2825 -0.1459  0.9423
 3355TIP3    H231625   1.990   0.670   0.378  0.3368 -1.2158 -0.7077
 3356TIP3   OH231626   5.525   2.461   7.770  0.0429  0.2466  0.5684
 3356TIP3    H131627   5.464   2.408   7.820 -0.9570 -0.1408 -1.0123
 3356TIP3    H231628   5.579   2.504   7.837 -0.7106 -0.8482  1.9401
 3357TIP3   OH231629   2.819   4.593   1.123  0.0170 -0.1852  0.0030
 3357TIP3    H131630   2.888   4.535   1.090  0.4263  0.2308  0.1218
 3357TIP3    H231631   2.852   4.681   1.105 -0.3789  0.0178  0.2802
 3358TIP3   OH231632   6.843   5.325   7.119 -0.2357 -0.5148  0.3319
 3358TIP3    H131633   6.912   5.358   7.061 -0.0211  0.8989  1.3171
 3358TIP3    H231634   6.768   5.311   7.062  0.1409  0.2813 -0.3874
 3359TIP3   OH231635   1.049   1.388   1.171 -0.4908  0.0609 -0.0919
 3359TIP3    H131636   1.041   1.382   1.266  1.4135 -0.0504  0.0906
 3359TIP3    H231637   0.970   1.346   1.138 -0.9443 -0.3464  1.4382
 3360TIP3   OH231638   4.552   2.347   0.739  0.2638  1.0712 -0.4224
 3360TIP3    H131639   4.503   2.427   0.760 -0.3644  0.4985  0.3567
 3360TIP3    H231640   4.643   2.375   0.735  0.1212  1.7021  0.4995
 3361TIP3   OH231641   1.338   5.736   1.892 -0.2674  0.3819 -0.1297
 3361TIP3    H131642   1.391   5.663   1.860  1.0685  1.5592 -0.7344
 3361TIP3    H231643   1.399   5.789   1.943 -1.8647 -0.3374  2.7240
 3362TIP3   OH231644   2.109   3.297   0.580  0.1634  0.4374  0.6426
 3362TIP3    H131645   2.128   3.233   0.512 -2.8959 -0.9293  0.9282
 3362TIP3    H231646   2.095   3.379   0.532 -2.0960 -0.5329 -0.5151
 3363TIP3   OH231647   3.754   1.224   0.853  0.1849 -0.5568  0.0818
 3363TIP3    H131648   3.741   1.157   0.920 -1.6295 -0.0694  0.2511
 3363TIP3    H231649   3.668   1.265   0.842  0.8626  0.5953 -1.2484
 3364TIP3   OH231650   1.033   1.834   7.084 -0.6677  0.0809  0.0934
 3364TIP3    H131651   1.080   1.906   7.041 -1.8420  1.8537  1.6371
 3364TIP3    H231652   1.036   1.856   7.177 -2.5389 -0.9805  0.4486
 3365TIP3   OH231653   3.484   4.840   7.408 -0.5496 -0.0741 -0.3017
 3365TIP3    H131654   3.491   4.798   7.322 -1.5203 -0.5236 -0.1787
 3365TIP3    H231655   3.573   4.866   7.430 -0.1723 -0.6716 -1.0893
 3366TIP3   OH231656   5.012   4.764   0.870 -0.6267  0.4648 -0.3581
 3366TIP3    H131657   5.085   4.708   0.895  0.4908  1.6093 -0.9366
 3366TIP3    H231658   4.962   4.777   0.950  0.8369  1.1429  0.4672
 3367TIP3   OH231659   6.443   4.864   1.524 -0.0937 -0.2004  0.5301
 3367TIP3    H131660   6.421   4.842   1.433  0.3375  0.3603  0.2816
 3367TIP3    H231661   6.386   4.938   1.545  1.5301  1.3110 -0.1419
 3368TIP3   OH231662   0.525   1.091   7.796  0.0987  1.0126 -0.2727
 3368TIP3    H131663   0.531   1.181   7.765 -0.4646  1.6546  1.3712
 3368TIP3    H231664   0.437   1.084   7.833 -0.2409 -0.5465 -1.2939
 3369TIP3   OH231665   1.966   3.820   1.946 -0.0607  0.8488  0.2393
 3369TIP3    H131666   2.046   3.769   1.933  0.8840  2.2332  0.3358
 3369TIP3    H231667   1.909   3.795   1.873  0.4290 -0.1948  0.1927
 3370TIP3   OH231668   2.368   0.870   1.284 -0.2965  0.0496 -0.6815
 3370TIP3    H131669   2.401   0.797   1.337  1.7076  1.3774 -0.0387
 3370TIP3    H231670   2.297   0.907   1.337  2.6252  2.3126  2.0065
 3371TIP3   OH231671   6.657   4.569   0.180 -0.1074  0.2695  0.0092
 3371TIP3    H131672   6.601   4.568   0.102  0.0133 -0.4154 -0.0767
 3371TIP3    H231673   6.744   4.593   0.147  0.4482 -2.1072 -0.4514
 3372TIP3   OH231674   0.807   3.474   1.210 -0.8853  0.3843  0.4824
 3372TIP3    H131675   0.726   3.489   1.259 -0.5526  0.7838  0.9177
 3372TIP3    H231676   0.829   3.382   1.227 -1.3309  0.2288  0.2283
 3373TIP3   OH231677   2.269   5.152   0.277  0.3235 -0.8271  0.1005
 3373TIP3    H131678   2.238   5.152   0.186 -1.5688  0.7348  0.6758
 3373TIP3    H231679   2.363   5.133   0.270  0.2331 -0.7165 -2.1888
 3374TIP3   OH231680   4.858   5.586   0.152  0.2168  0.2064 -0.0960
 3374TIP3    H131681   4.854   5.491   0.161  0.0145  0.2875  0.7659
 3374TIP3    H231682   4.937   5.602   0.101  0.2525 -0.4220 -0.2488
 3375TIP3   OH231683   5.404   5.449   0.155  0.1949  0.0663 -0.6908
 3375TIP3    H131684   5.326   5.499   0.180  2.1155  2.5097  0.7984
 3375TIP3    H231685   5.418   5.473   0.063 -1.0502 -0.8281 -1.1473
 3376TIP3   OH231686   1.736   6.663   7.577 -0.8093 -0.6790  0.2016
 3376TIP3    H131687   1.786   6.636   7.655 -0.0524 -1.5446 -0.5510
 3376TIP3    H231688   1.801   6.703   7.520 -1.0326 -1.4790 -0.6406
 3377TIP3   OH231689   4.433   4.164   8.694 -0.5007  0.0693 -0.7721
 3377TIP3    H131690   4.392   4.233   8.642  0.4232 -0.5737 -2.4249
 3377TIP3    H231691   4.507   4.135   8.641  1.9727  0.9678  1.9385
 3378TIP3   OH231692   1.025   0.211   1.883  0.5394 -0.0827 -0.2541
 3378TIP3    H131693   1.072   0.260   1.815  1.2291  1.2398  1.1027
 3378TIP3    H231694   0.958   0.272   1.914  1.2827 -0.0087  1.3329
 3379TIP3   OH231695   1.251   5.029   2.010 -0.0125  0.1506  0.3505
 3379TIP3    H131696   1.292   5.074   2.084 -1.0975 -0.7427  1.5539
 3379TIP3    H231697   1.164   5.005   2.043  0.5139 -2.8367 -0.1519
 3380TIP3   OH231698   4.353   0.900   2.596 -0.0627 -0.0208 -0.8560
 3380TIP3    H131699   4.374   0.992   2.582 -2.2400  0.9150  1.3237
 3380TIP3    H231700   4.258   0.897   2.603 -0.0264 -2.3709 -0.3696
 3381TIP3   OH231701   1.651   1.174   1.185 -0.0005 -0.5142  0.2803
 3381TIP3    H131702   1.627   1.116   1.257 -1.5397 -2.8487 -1.9689
 3381TIP3    H231703   1.570   1.219   1.162  0.3337 -0.2678 -0.4405
 3382TIP3   OH231704   6.245   2.910   8.423  0.0424  0.4241 -0.1028
 3382TIP3    H131705   6.306   2.867   8.482  1.2759  2.1447 -0.0652
 3382TIP3    H231706   6.202   2.977   8.476 -0.9881  0.0576 -0.4426
 3383TIP3   OH231707   1.160   2.688   8.309 -0.1438  0.1469 -0.5480
 3383TIP3    H131708   1.230   2.715   8.367 -1.2954  1.5396  0.2735
 3383TIP3    H231709   1.171   2.594   8.298  1.7468  0.3202 -0.3509
 3384TIP3   OH231710   4.590   5.355   0.803 -0.1171  0.0770 -0.1788
 3384TIP3    H131711   4.595   5.312   0.888 -0.2892  1.5744  0.6202
 3384TIP3    H231712   4.514   5.315   0.761  0.2888 -1.0549  0.1337
 3385TIP3   OH231713   4.305   5.964   1.335 -1.1093  0.0211  0.0138
 3385TIP3    H131714   4.370   5.906   1.296  0.9915  0.8265  2.0723
 3385TIP3    H231715   4.249   5.907   1.387  1.0619 -0.3259  2.2046
 3386TIP3   OH231716   0.174   1.332   0.022 -0.3287 -0.0646  0.2951
 3386TIP3    H131717   0.233   1.259   0.004  1.0432  0.6057  1.8225
 3386TIP3    H231718   0.218   1.409  -0.015 -0.8876  0.2507  0.2689
 3387TIP3   OH231719   6.076   0.663   1.725  0.2717  1.5940 -0.3835
 3387TIP3    H131720   6.112   0.730   1.784  3.8187  0.2576 -0.7661
 3387TIP3    H231721   6.152   0.633   1.675 -1.1983 -2.3590 -0.5953
 3388TIP3   OH231722   0.063   4.133   1.559  0.2948  0.6673 -0.2198
 3388TIP3    H131723   0.144   4.117   1.510  0.4905  1.4727 -0.1643
 3388TIP3    H231724   0.091   4.146   1.649 -0.1738 -2.1718  0.4410
 3389TIP3   OH231725   2.934   3.160   1.315 -0.1215  0.2551 -0.1912
 3389TIP3    H131726   2.847   3.198   1.301 -0.1896  0.4472  0.7355
 3389TIP3    H231727   2.946   3.162   1.410  0.9773  0.4170 -0.3243
 3390TIP3   OH231728   0.134   4.994   0.746  0.1371  0.2781 -0.7027
 3390TIP3    H131729   0.043   4.992   0.775  0.5760 -0.7854  0.6629
 3390TIP3    H231730   0.172   5.068   0.793  0.1503  0.3224 -0.7818
 3391TIP3   OH231731   4.662   4.292   0.050 -0.2262 -0.0115  0.2364
 3391TIP3    H131732   4.739   4.270   0.102  0.3235  1.6144  0.1740
 3391TIP3    H231733   4.592   4.238   0.086  0.6440 -0.5360  1.1813
 3392TIP3   OH231734   5.922   4.273   1.087  0.5691 -0.0933  0.2944
 3392TIP3    H131735   5.984   4.328   1.135  0.5810 -0.5661  0.8250
 3392TIP3    H231736   5.838   4.318   1.099  0.5048 -0.4037  1.0860
 3393TIP3   OH231737   2.217   3.767   8.194 -0.0410  0.3865  0.5895
 3393TIP3    H131738   2.155   3.694   8.199  0.1156  0.2184  0.1551
 3393TIP3    H231739   2.211   3.797   8.103 -0.1314  0.9395  0.7749
 3394TIP3   OH231740   4.754   4.857   0.012  0.3293 -0.0436  0.0476
 3394TIP3    H131741   4.785   4.794   0.077  2.9015  0.3555 -0.6806
 3394TIP3    H231742   4.769   4.814  -0.072 -0.9958  0.2768 -0.3835
 3395TIP3   OH231743   1.956   4.881   1.929 -0.1485 -0.4237 -0.2804
 3395TIP3    H131744   2.001   4.832   1.998 -2.0948 -1.4787  0.2923
 3395TIP3    H231745   1.903   4.945   1.975 -1.5906 -1.2413 -0.7212
 3396TIP3   OH231746   4.943   6.097   0.666  0.1190 -0.8110 -0.2931
 3396TIP3    H131747   4.860   6.073   0.625  1.1837  0.3716 -3.4601
 3396TIP3    H231748   4.965   6.022   0.721 -3.8282 -0.4208  2.2030
 3397TIP3   OH231749   2.085   3.932   2.185 -0.1913 -0.6513 -0.5547
 3397TIP3    H131750   2.156   3.994   2.169 -0.4969 -0.0984  0.1933
 3397TIP3    H231751   2.029   3.939   2.107 -0.0099 -0.2917 -0.6534
 3398TIP3   OH231752   5.351   2.322   1.654 -0.6874  0.6088  0.0941
 3398TIP3    H131753   5.444   2.308   1.676 -0.3004  2.0483 -0.4549
 3398TIP3    H231754   5.341   2.283   1.567 -0.2073  1.6484 -0.4546
 3399TIP3   OH231755   6.604   1.544   8.102 -0.2545  0.0590  0.9132
 3399TIP3    H131756   6.514   1.515   8.118 -0.3945 -0.3107 -0.4030
 3399TIP3    H231757   6.647   1.468   8.062  0.2543  0.6567  0.2996
 3400TIP3   OH231758   3.983   4.733   1.881 -0.2304 -0.6877 -0.0134
 3400TIP3    H131759   4.064   4.695   1.915  0.6820  1.2890  0.1900
 3400TIP3    H231760   3.957   4.797   1.947 -0.7144  0.2697 -1.0988
 3401TIP3   OH231761   5.419   4.774   7.478 -0.2958  0.1186  0.6340
 3401TIP3    H131762   5.438   4.692   7.433 -0.6665  0.4040 -0.0532
 3401TIP3    H231763   5.333   4.760   7.517  1.1622 -1.1841  3.7706
 3402TIP3   OH231764   6.059   5.996   8.276 -0.2625 -0.2194 -0.0077
 3402TIP3    H131765   6.106   5.976   8.195  1.2722  0.7065  0.6130
 3402TIP3    H231766   6.013   5.915   8.297  0.7414 -1.0447 -0.8598
 3403TIP3   OH231767   1.266   2.718   1.175 -0.5841  0.0866 -0.1342
 3403TIP3    H131768   1.176   2.697   1.147 -0.5480  1.2588 -1.2287
 3403TIP3    H231769   1.261   2.721   1.270 -1.8066  0.5174 -0.1930
 3404TIP3   OH231770   6.664   3.007   8.099  0.2918 -0.5449  0.5931
 3404TIP3    H131771   6.718   2.951   8.156 -0.6974 -2.8896 -0.6448
 3404TIP3    H231772   6.667   2.964   8.014 -1.6181  0.5839 -0.0889
 3405TIP3   OH231773   5.493   4.515   7.300 -0.5526  0.4477 -0.0882
 3405TIP3    H131774   5.550   4.458   7.352  2.3094  1.2034 -2.1304
 3405TIP3    H231775   5.440   4.454   7.248  1.3506 -0.4581 -1.1052
 3406TIP3   OH231776   3.820   4.449   0.605 -0.2649 -0.0214 -0.0076
 3406TIP3    H131777   3.858   4.531   0.574 -0.6830 -0.2340 -1.1383
 3406TIP3    H231778   3.725   4.461   0.598 -0.3388 -0.5019  0.0675
 3407TIP3   OH231779   5.080   0.455   7.878  0.0478 -0.2274  0.0342
 3407TIP3    H131780   5.076   0.417   7.791  0.1959  1.5195 -0.7774
 3407TIP3    H231781   5.125   0.538   7.866 -2.3855  1.3888  1.2529
 3408TIP3   OH231782   5.396   6.378   1.518 -0.4484 -0.2169 -0.0708
 3408TIP3    H131783   5.322   6.322   1.541  1.2855 -3.2427 -1.3551
 3408TIP3    H231784   5.381   6.459   1.568 -3.2611 -1.6629  1.6726
 3409TIP3   OH231785   6.600   2.690   7.251  0.2728  0.7729  0.0913
 3409TIP3    H131786   6.550   2.715   7.174 -1.0599 -0.2454  0.5832
 3409TIP3    H231787   6.542   2.630   7.299  1.2699  0.9618  1.6083
 3410TIP3   OH231788   0.361   5.328   0.272 -1.0308  0.2052 -0.5591
 3410TIP3    H131789   0.395   5.308   0.359  0.9643 -1.4320 -1.6220
 3410TIP3    H231790   0.404   5.410   0.247 -0.1076 -0.3270 -0.7407
 3411TIP3   OH231791   4.443   0.729   8.696  0.2313  0.4212  0.1235
 3411TIP3    H131792   4.369   0.729   8.757 -1.5156  1.5296 -1.8774
 3411TIP3    H231793   4.478   0.640   8.702 -2.5172 -0.7894 -0.2713
 3412TIP3   OH231794   6.133   6.400   0.230 -0.0284  0.8661 -0.0314
 3412TIP3    H131795   6.041   6.409   0.253 -0.2558 -0.2501 -0.4456
 3412TIP3    H231796   6.133   6.341   0.155  1.1051 -0.1045  0.7065
 3413TIP3   OH231797   5.665   1.756   0.806 -0.0600 -0.3568 -0.2816
 3413TIP3    H131798   5.651   1.663   0.825  0.9458 -0.5011 -0.1476
 3413TIP3    H231799   5.689   1.794   0.891 -1.8812  0.3439 -0.0380
 3414TIP3   OH231800   5.985   0.557   7.184  0.3420  0.1157  0.5724
 3414TIP3    H131801   6.033   0.499   7.244  1.4044  0.5967  0.2187
 3414TIP3    H231802   5.989   0.512   7.099  3.0537  1.6038 -0.2188
 3415TIP3   OH231803   1.587   2.619   7.195  0.1125  0.0832  0.3872
 3415TIP3    H131804   1.509   2.673   7.183 -0.7546 -0.6615  2.2205
 3415TIP3    H231805   1.567   2.538   7.148 -1.3837 -1.0872  2.7772
 3416TIP3   OH231806   4.627   2.839   1.817  0.0121 -0.2558  0.1339
 3416TIP3    H131807   4.594   2.868   1.902 -2.2486 -0.9468 -0.4549
 3416TIP3    H231808   4.677   2.914   1.784  2.1161 -0.4203  2.5890
 3417TIP3   OH231809   0.466   2.388   1.933 -0.0350 -0.5443 -0.2714
 3417TIP3    H131810   0.483   2.456   1.998 -0.7626 -0.6451  0.0306
 3417TIP3    H231811   0.481   2.431   1.849  0.6018 -0.3273 -0.0567
 3418TIP3   OH231812   2.184   2.370   2.784 -0.3380  0.6074  0.3310
 3418TIP3    H131813   2.199   2.439   2.720  1.7939 -1.9721 -2.2557
 3418TIP3    H231814   2.255   2.381   2.848  1.7150 -0.6337 -1.5897
 3419TIP3   OH231815   1.432   4.528   2.099  0.3036 -0.0734  0.0830
 3419TIP3    H131816   1.388   4.541   2.015  1.5176  3.8666 -0.1315
 3419TIP3    H231817   1.382   4.581   2.161  0.8514 -0.9600  1.3323
 3420TIP3   OH231818   4.102   5.957   7.876 -0.2787  0.7000  0.2660
 3420TIP3    H131819   4.104   5.864   7.899  3.5452  0.9472  1.5277
 3420TIP3    H231820   4.145   5.962   7.791  1.8875  1.4437  1.3264
 3421TIP3   OH231821   4.522   4.939   6.923  0.1763  0.0053  0.0680
 3421TIP3    H131822   4.508   4.938   6.828  1.1406 -0.2547 -0.0857
 3421TIP3    H231823   4.465   5.008   6.955 -1.5474 -1.1175 -0.4728
 3422TIP3   OH231824   3.086   2.298   2.330 -0.2517  0.3879  0.0148
 3422TIP3    H131825   3.143   2.372   2.309 -0.8150  1.0232  0.6896
 3422TIP3    H231826   3.002   2.338   2.355 -0.4216 -0.4500  0.8517
 3423TIP3   OH231827   3.998   2.229   1.150 -0.0008  0.4261  0.1489
 3423TIP3    H131828   4.057   2.194   1.084 -0.5547  1.0560 -0.6908
 3423TIP3    H231829   4.023   2.183   1.231  2.8959  1.9995  0.2649
 3424TIP3   OH231830   1.725   5.261   0.926 -0.4819  0.2406 -0.4418
 3424TIP3    H131831   1.668   5.233   0.998  1.0730  1.1925  1.2614
 3424TIP3    H231832   1.712   5.356   0.922 -0.5754  0.1903 -1.4724
 3425TIP3   OH231833   2.944   1.510   1.516 -0.1715 -0.7075 -0.5751
 3425TIP3    H131834   2.920   1.598   1.544  1.3278 -0.3847 -0.2684
 3425TIP3    H231835   2.900   1.500   1.431  0.0317  0.5116 -0.8424
 3426TIP3   OH231836   5.107   2.096   7.954  0.2537  0.1992 -0.8788
 3426TIP3    H131837   5.047   2.169   7.964  0.6183  0.5431 -1.1972
 3426TIP3    H231838   5.103   2.073   7.862 -1.7303 -1.8027 -0.3790
 3427TIP3   OH231839   4.796   0.180   7.306 -0.1562 -0.0299  0.2904
 3427TIP3    H131840   4.851   0.185   7.228  0.7119 -2.1564  0.6932
 3427TIP3    H231841   4.707   0.170   7.271 -0.0897  1.3753 -0.3705
 3428TIP3   OH231842   2.288   5.377   8.250  0.1002 -0.2114  0.0506
 3428TIP3    H131843   2.302   5.321   8.326  0.4629  0.9925  0.9006
 3428TIP3    H231844   2.193   5.379   8.238 -0.4540  3.0627  3.2637
 3429TIP3   OH231845   3.746   5.246   8.530 -0.1462 -0.1533  0.1028
 3429TIP3    H131846   3.833   5.208   8.542  0.1603  0.9002  1.4700
 3429TIP3    H231847   3.686   5.171   8.532  0.7004 -0.8952 -0.9090
 3430TIP3   OH231848   0.573   5.828   1.330 -0.1629  0.0990 -0.3397
 3430TIP3    H131849   0.656   5.869   1.303  0.3855 -0.5492  0.3117
 3430TIP3    H231850   0.599   5.761   1.393 -1.2208  0.1306  0.1561
 3431TIP3   OH231851   0.746   1.073   7.239  0.6040  0.2870  0.0767
 3431TIP3    H131852   0.653   1.058   7.222  0.4238 -0.0862  1.2569
 3431TIP3    H231853   0.770   1.144   7.181 -0.7808  1.3566  0.7404
 3432TIP3   OH231854   4.857   0.941   1.071  0.3383  0.4307 -0.7032
 3432TIP3    H131855   4.825   0.885   1.000  2.1837 -0.7938 -0.6468
 3432TIP3    H231856   4.778   0.979   1.110 -0.8297 -0.4201 -2.1574
 3433TIP3   OH231857   6.503   2.390   2.569 -0.2989 -0.0939  0.0249
 3433TIP3    H131858   6.545   2.473   2.545 -0.0734  0.0117  0.7353
 3433TIP3    H231859   6.571   2.324   2.556  0.4602  0.1940  2.0852
 3434TIP3   OH231860   1.804   3.978   0.268  0.5950  0.9385  0.2628
 3434TIP3    H131861   1.835   3.891   0.241  2.7555  1.8936 -0.5691
 3434TIP3    H231862   1.861   4.039   0.221 -1.0947  2.8345  0.5461
 3435TIP3   OH231863   3.116   0.811   6.613  0.1825 -0.2336 -0.3850
 3435TIP3    H131864   3.063   0.804   6.534  1.1055 -1.8737 -0.9129
 3435TIP3    H231865   3.099   0.730   6.661  0.6583  0.1372  0.4382
 3436TIP3   OH231866   4.217   5.963   0.142 -0.2469  0.3499  0.8225
 3436TIP3    H131867   4.155   6.028   0.176 -0.3641  1.1400 -0.8099
 3436TIP3    H231868   4.169   5.881   0.143 -0.6421  0.5838  1.4260
 3437TIP3   OH231869   6.161   6.634   1.959  0.5024  0.1842 -0.4930
 3437TIP3    H131870   6.080   6.627   1.909  1.5020 -1.8808 -1.9517
 3437TIP3    H231871   6.152   6.567   2.027  0.1755  1.3401  0.6426
 3438TIP3   OH231872   1.306   2.216   1.945  0.6697  0.6352 -0.4583
 3438TIP3    H131873   1.354   2.134   1.960  0.8107  0.8855  0.5366
 3438TIP3    H231874   1.264   2.235   2.029  2.0237  2.4514 -0.1034
 3439TIP3   OH231875   5.562   6.121   1.365  0.1469 -0.3049  0.1378
 3439TIP3    H131876   5.489   6.063   1.344 -0.0125  0.0681 -0.3712
 3439TIP3    H231877   5.530   6.208   1.342  0.3114  0.0127  1.0848
 3440TIP3   OH231878   0.438   3.660   0.294  0.2738 -0.1156 -0.7111
 3440TIP3    H131879   0.382   3.734   0.318 -3.6016 -2.2993 -2.0905
 3440TIP3    H231880   0.511   3.700   0.247 -1.0568  2.9055 -0.4539
 3441TIP3   OH231881   6.842   2.868   8.268 -0.1326 -0.3312 -0.2554
 3441TIP3    H131882   6.936   2.884   8.255 -0.0567 -0.0368  0.5967
 3441TIP3    H231883   6.833   2.773   8.261  0.8845 -0.8426  3.4124
 3442TIP3   OH231884   5.836   1.089   7.712 -0.4510  0.3032  0.1065
 3442TIP3    H131885   5.913   1.100   7.768  0.0145  0.5323 -0.5671
 3442TIP3    H231886   5.761   1.106   7.770  0.0477  1.4725  0.4405
 3443TIP3   OH231887   5.731   0.213   7.468  0.3581  0.6156  0.1680
 3443TIP3    H131888   5.686   0.189   7.550  0.4941  2.2033  0.7540
 3443TIP3    H231889   5.663   0.206   7.401  0.0298  0.0703  0.5418
 3444TIP3   OH231890   0.627   1.311   6.935 -0.7359  0.5641  0.7136
 3444TIP3    H131891   0.676   1.229   6.942  2.2455  2.2934  2.5006
 3444TIP3    H231892   0.581   1.319   7.019 -0.1639  1.1729  0.9781
 3445TIP3   OH231893   1.105   4.419   8.369  0.3261 -0.3047 -0.5352
 3445TIP3    H131894   1.105   4.514   8.381  1.0741 -0.3642  0.0196
 3445TIP3    H231895   1.180   4.402   8.312  0.7812 -0.6370  0.1453
 3446TIP3   OH231896   4.730   2.904   7.320  0.0893  0.9387  0.1271
 3446TIP3    H131897   4.708   2.933   7.232 -1.7121  2.6848  1.0705
 3446TIP3    H231898   4.645   2.889   7.363  0.9094 -1.4125  1.1429
 3447TIP3   OH231899   3.076   4.052   1.048  0.1089 -0.5137  0.0591
 3447TIP3    H131900   3.101   3.966   1.082 -0.4513 -1.0651 -0.8687
 3447TIP3    H231901   3.124   4.115   1.102 -1.2383 -1.3045  2.2865
 3448TIP3   OH231902   4.178   4.638   8.660 -0.3376 -0.2645  0.3686
 3448TIP3    H131903   4.158   4.556   8.616  0.7821  0.8424 -2.4491
 3448TIP3    H231904   4.250   4.617   8.719  2.2674 -0.8630 -2.7071
 3449TIP3   OH231905   5.732   5.842   0.646 -0.4817 -0.3132  0.4657
 3449TIP3    H131906   5.717   5.772   0.582 -1.4746  3.1004 -3.4399
 3449TIP3    H231907   5.647   5.853   0.688 -0.7765 -0.3942 -0.0929
 3450TIP3   OH231908   1.999   6.066   6.951 -0.5893  0.0384 -0.6227
 3450TIP3    H131909   2.004   6.079   6.856  0.9530 -1.5195 -0.8024
 3450TIP3    H231910   1.932   5.999   6.963  0.2391 -0.8368 -0.7649
 3451TIP3   OH231911   0.109   2.725   2.738  0.0683  0.0079 -0.0957
 3451TIP3    H131912   0.062   2.661   2.791  0.7222 -1.0774 -0.8008
 3451TIP3    H231913   0.040   2.785   2.707 -0.5639 -0.4052  0.4789
 3452TIP3   OH231914   2.059   5.216   7.477  0.3759  0.3916  0.4098
 3452TIP3    H131915   2.098   5.277   7.539 -0.3640  0.6975  0.5865
 3452TIP3    H231916   2.036   5.269   7.401 -0.9447  0.5007  0.8546
 3453TIP3   OH231917   6.170   2.000   7.548 -0.3127  0.3247  0.3024
 3453TIP3    H131918   6.097   1.950   7.511  0.7900 -0.1956 -1.2674
 3453TIP3    H231919   6.130   2.080   7.581 -1.4713  0.5085 -1.4169
 3454TIP3   OH231920   3.892   4.812   7.753 -0.2860 -0.4328 -0.3987
 3454TIP3    H131921   3.840   4.892   7.741 -0.9799 -0.3644  2.4270
 3454TIP3    H231922   3.926   4.818   7.842  0.1127 -3.0275 -0.2998
 3455TIP3   OH231923   6.343   0.186   0.503  0.4206 -0.4582  0.0333
 3455TIP3    H131924   6.250   0.210   0.510  0.3393 -1.1716  2.1665
 3455TIP3    H231925   6.344   0.105   0.453 -0.0363 -0.1063 -0.5564
 3456TIP3   OH231926   4.366   5.544   0.864 -0.1416 -0.1608  0.1124
 3456TIP3    H131927   4.359   5.528   0.769 -0.0115 -0.1999  0.1085
 3456TIP3    H231928   4.433   5.612   0.872  0.2816 -0.5816  0.2099
 3457TIP3   OH231929   3.601   4.840   8.236  0.1577  0.2947 -0.0430
 3457TIP3    H131930   3.525   4.878   8.193 -0.4345 -1.2190 -0.3909
 3457TIP3    H231931   3.601   4.748   8.209  0.8148 -0.2734  1.7396
 3458TIP3   OH231932   2.289   2.149   0.058 -0.0393  0.4400 -0.0378
 3458TIP3    H131933   2.268   2.208   0.131  1.2665  0.9281 -0.0507
 3458TIP3    H231934   2.204   2.132   0.017 -0.6465  1.0391  0.9182
 3459TIP3   OH231935   5.611   1.029   1.588 -0.6793  0.6684  0.2305
 3459TIP3    H131936   5.539   1.074   1.543 -1.2763 -0.1539  0.3375
 3459TIP3    H231937   5.571   0.997   1.669 -0.2616 -0.0164  0.1679
 3460TIP3   OH231938   0.546   3.997   7.221 -0.3961 -0.1774  0.0321
 3460TIP3    H131939   0.526   3.905   7.206  2.2893 -0.7217 -0.7139
 3460TIP3    H231940   0.476   4.045   7.176 -2.8481 -1.7580  1.9256
 3461TIP3   OH231941   3.469   5.425   7.237 -0.3730 -0.3291  0.3553
 3461TIP3    H131942   3.489   5.332   7.227  2.7269  0.2491  0.2670
 3461TIP3    H231943   3.462   5.458   7.148 -1.2705 -0.4132  0.3861
 3462TIP3   OH231944   3.801   4.902   7.138 -0.2417 -0.0718  0.5522
 3462TIP3    H131945   3.820   4.951   7.059  2.3139  1.5180  2.0002
 3462TIP3    H231946   3.781   4.813   7.108  1.6191  0.2388 -1.8164
 3463TIP3   OH231947   4.796   2.291   2.415  0.1200  0.3014  0.4630
 3463TIP3    H131948   4.701   2.288   2.426 -0.0826  0.9959 -0.8611
 3463TIP3    H231949   4.821   2.379   2.441  0.2975  0.3617  0.0898
 3464TIP3   OH231950   3.809   4.179   0.232  0.7556 -0.1170  0.0936
 3464TIP3    H131951   3.715   4.167   0.225  0.8475 -1.0157  0.1981
 3464TIP3    H231952   3.846   4.122   0.164  1.2285 -0.0232  0.2629
 3465TIP3   OH231953   2.952   4.142   1.428  0.0967 -0.5506  0.4911
 3465TIP3    H131954   2.991   4.055   1.426 -0.3987 -0.7846 -1.1569
 3465TIP3    H231955   2.884   4.137   1.495 -1.0990 -2.0175 -0.7375
 3466TIP3   OH231956   3.298   5.178   8.413 -0.3351  0.3889 -0.3376
 3466TIP3    H131957   3.243   5.233   8.469 -0.7694 -1.1554  0.8248
 3466TIP3    H231958   3.338   5.115   8.472  2.3912  1.1517 -1.2205
 3467TIP3   OH231959   5.855   4.554   2.115 -0.1045 -0.4430 -0.2380
 3467TIP3    H131960   5.766   4.589   2.125 -0.0572 -0.0814 -1.0643
 3467TIP3    H231961   5.912   4.627   2.138 -0.0127 -0.6968  0.3655
 3468TIP3   OH231962   4.871   6.582   2.287  0.2425  0.1813  0.3410
 3468TIP3    H131963   4.954   6.542   2.259  0.1466 -0.4026  0.8586
 3468TIP3    H231964   4.834   6.519   2.349  0.3254  1.3158  1.5821
 3469TIP3   OH231965   2.020   0.182   2.242 -0.1981 -0.2842 -0.3586
 3469TIP3    H131966   2.031   0.121   2.314  1.0747  1.9874  1.4939
 3469TIP3    H231967   1.952   0.242   2.271 -0.0640  0.3437 -1.2928
 3470TIP3   OH231968   5.551   3.871   0.333 -0.1707  0.0868 -0.3210
 3470TIP3    H131969   5.634   3.887   0.378  0.4662  2.3887 -2.1152
 3470TIP3    H231970   5.505   3.955   0.337 -1.9222 -0.8119 -0.4045
 3471TIP3   OH231971   3.677   2.467   0.621 -0.2333  0.2192  0.6810
 3471TIP3    H131972   3.641   2.553   0.599 -0.6606 -0.5046 -1.7622
 3471TIP3    H231973   3.755   2.459   0.565 -1.2573 -1.7022 -0.5656
 3472TIP3   OH231974   6.176   2.261   2.039 -0.2776  0.3199 -0.4156
 3472TIP3    H131975   6.261   2.241   2.000  0.3454  0.2279  0.9311
 3472TIP3    H231976   6.197   2.316   2.115 -1.4149  0.2677 -0.0408
 3473TIP3   OH231977   1.549   1.548   0.468  0.5610  0.0560  0.1637
 3473TIP3    H131978   1.489   1.483   0.431 -1.2530  0.8433  1.5339
 3473TIP3    H231979   1.521   1.631   0.429  1.6259  0.2741 -0.1556
 3474TIP3   OH231980   5.566   5.323   0.336  0.3668  0.2782 -0.7585
 3474TIP3    H131981   5.594   5.242   0.293 -4.0806 -2.2092  0.3728
 3474TIP3    H231982   5.501   5.360   0.277 -2.6883 -0.9141  1.5884
 3475TIP3   OH231983   1.675   1.324   6.842  0.4519  0.3659  0.4023
 3475TIP3    H131984   1.637   1.363   6.920  0.6552  0.1722  0.5990
 3475TIP3    H231985   1.620   1.247   6.824  1.5243 -0.6914  1.4614
 3476TIP3   OH231986   3.023   4.912   0.689 -0.0347 -0.0588 -0.2763
 3476TIP3    H131987   2.969   4.966   0.632 -0.7336  0.1139  0.5298
 3476TIP3    H231988   3.054   4.841   0.633 -1.0243 -0.1086 -0.7768
 3477TIP3   OH231989   1.090   2.933   0.879 -0.2291 -0.0273 -0.1327
 3477TIP3    H131990   1.139   2.875   0.821 -0.9625 -2.1674  1.2881
 3477TIP3    H231991   1.157   2.971   0.936  0.2039  0.2816 -0.8224
 3478TIP3   OH231992   4.210   2.882   7.235 -0.2867  0.2479  0.3038
 3478TIP3    H131993   4.118   2.854   7.232 -0.4167  0.7514 -0.6372
 3478TIP3    H231994   4.228   2.917   7.148  0.6204  0.7380  0.6726
 3479TIP3   OH231995   3.419   4.137   7.325 -0.1125  0.1138 -0.2789
 3479TIP3    H131996   3.450   4.227   7.328 -1.9770  1.0286 -3.3624
 3479TIP3    H231997   3.466   4.098   7.251  0.6966 -1.5225  1.0359
 3480TIP3   OH231998   3.324   5.103   1.920  0.1583  0.4035  0.1347
 3480TIP3    H131999   3.238   5.061   1.922 -0.3296  1.4083  1.0319
 3480TIP3    H232000   3.362   5.075   1.836 -1.1337  0.1395 -0.3842
 3481TIP3   OH232001   4.025   1.462   8.582  0.2828  0.5780  0.1871
 3481TIP3    H132002   3.930   1.453   8.587  0.3504 -0.8657 -0.5740
 3481TIP3    H232003   4.058   1.374   8.598  1.4545  0.8659 -0.5528
 3482TIP3   OH232004   2.920   2.203   2.599  0.0896 -0.2465 -0.0971
 3482TIP3    H132005   2.844   2.157   2.635 -0.2498  0.5247  0.1832
 3482TIP3    H232006   2.995   2.164   2.646 -0.3022  0.3714  1.0831
 3483TIP3   OH232007   3.688   0.674   8.493 -0.3731  0.1563 -0.1702
 3483TIP3    H132008   3.659   0.586   8.517 -1.7265  0.7823  0.5967
 3483TIP3    H232009   3.610   0.717   8.459 -0.4600  1.8965  1.9598
 3484TIP3   OH232010   0.659   5.777   0.336 -0.0088 -0.1106 -0.5230
 3484TIP3    H132011   0.629   5.702   0.386 -2.3616  0.6538 -0.7026
 3484TIP3    H232012   0.607   5.776   0.256  0.4294  1.2884 -0.8683
 3485TIP3   OH232013   5.044   5.937   6.327  0.2380 -0.9935 -0.0181
 3485TIP3    H132014   4.993   6.015   6.349 -0.4589 -0.3430 -3.3344
 3485TIP3    H232015   5.135   5.968   6.328  0.3841 -1.2874  2.6093
 3486TIP3   OH232016   0.548   0.846   1.973  0.4184  0.0481  0.1635
 3486TIP3    H132017   0.490   0.886   2.038 -0.1768 -1.1250  0.3846
 3486TIP3    H232018   0.586   0.771   2.018  1.1048  0.0512 -0.4043
 3487TIP3   OH232019   3.641   1.096   8.246  0.6237 -0.3464  0.2063
 3487TIP3    H132020   3.567   1.108   8.187  0.6870 -1.3209 -0.0990
 3487TIP3    H232021   3.613   1.133   8.329 -0.6433 -1.6850  0.4086
 3488TIP3   OH232022   1.646   3.013   0.415  0.2531  0.4729 -0.1456
 3488TIP3    H132023   1.563   3.004   0.462 -0.8681  1.2205 -1.9003
 3488TIP3    H232024   1.694   3.078   0.466 -0.3256  0.2200  0.7530
 3489TIP3   OH232025   5.240   4.185   2.387  0.2035 -0.1864 -0.0908
 3489TIP3    H132026   5.197   4.102   2.368  0.3024  0.0790 -1.5607
 3489TIP3    H232027   5.171   4.239   2.427  0.3430 -1.1976  1.6334
 3490TIP3   OH232028   5.721   0.583   1.096 -0.2223  0.1097  0.0676
 3490TIP3    H132029   5.739   0.587   1.190 -0.1851  1.6781  0.0186
 3490TIP3    H232030   5.808   0.590   1.056 -0.2398 -0.5466 -0.0956
 3491TIP3   OH232031   0.955   1.762   8.186 -0.5026 -0.1620  0.4274
 3491TIP3    H132032   0.918   1.674   8.176  0.4441 -0.6437  1.1240
 3491TIP3    H232033   0.960   1.776   8.280 -0.2942  0.4945  0.3233
 3492TIP3   OH232034   4.389   0.551   0.300  0.6338  0.7374  0.7205
 3492TIP3    H132035   4.442   0.584   0.373  0.9432  0.8548  0.4462
 3492TIP3    H232036   4.318   0.614   0.291  1.1437  1.2471  0.2894
 3493TIP3   OH232037   1.329   6.348   1.013  0.1283 -0.2503  0.5097
 3493TIP3    H132038   1.294   6.267   0.976 -2.4292  1.0509 -0.1866
 3493TIP3    H232039   1.345   6.327   1.105  0.3140 -1.7419  0.1694
 3494TIP3   OH232040   5.727   0.647   7.909  0.0382  0.1805 -0.3246
 3494TIP3    H132041   5.675   0.716   7.951 -1.3352 -1.8406  1.5063
 3494TIP3    H232042   5.664   0.600   7.854  0.7246 -0.2449 -0.7583
 3495TIP3   OH232043   6.751   6.551   1.901  0.3832  0.5738 -0.5402
 3495TIP3    H132044   6.760   6.535   1.995 -0.1945  2.1858 -0.1697
 3495TIP3    H232045   6.841   6.559   1.870  0.5810  1.7239  0.2371
 3496TIP3   OH232046   5.279   4.492   2.604  0.1899  0.0337 -0.2780
 3496TIP3    H132047   5.208   4.429   2.593  1.5389 -1.6357  0.2154
 3496TIP3    H232048   5.290   4.530   2.517 -0.8872 -0.1341 -0.5036
 3497TIP3   OH232049   3.137   2.614   0.363  0.4508 -0.2861 -0.0108
 3497TIP3    H132050   3.141   2.695   0.415  1.0997  1.0777 -2.0444
 3497TIP3    H232051   3.163   2.545   0.424 -0.7231  0.9020  1.9860
 3498TIP3   OH232052   1.073   3.183   0.713 -0.0170  0.0358 -0.2750
 3498TIP3    H132053   1.058   3.100   0.758 -1.4176  0.8783  0.9369
 3498TIP3    H232054   1.061   3.164   0.620  0.4648 -1.2563 -0.0824
 3499TIP3   OH232055   4.478   2.815   8.080 -0.1816  0.2848  0.1523
 3499TIP3    H132056   4.479   2.747   8.148  0.9284  1.6806  1.5963
 3499TIP3    H232057   4.395   2.860   8.093 -1.4099 -1.3325 -1.4699
 3500TIP3   OH232058   4.106   2.077   0.673  0.2489 -0.0837 -0.0299
 3500TIP3    H132059   4.030   2.093   0.616  0.5718  0.4497 -0.3171
 3500TIP3    H232060   4.159   2.013   0.626  0.1745 -0.1609 -0.0096
 3501TIP3   OH232061   1.061   6.416   0.971 -0.6733 -0.1346  0.4769
 3501TIP3    H132062   1.156   6.418   0.959 -0.9148  2.2521 -2.0929
 3501TIP3    H232063   1.047   6.463   1.053  0.3485 -0.0049  0.5956
 3502TIP3   OH232064   5.673   0.581   0.338 -0.4838 -0.0357 -0.5145
 3502TIP3    H132065   5.740   0.518   0.312 -0.4337  0.5106 -1.7805
 3502TIP3    H232066   5.591   0.533   0.334 -0.0827 -1.1897  2.6534
 3503TIP3   OH232067   5.582   5.724   7.954 -0.7839 -0.3954  0.3087
 3503TIP3    H132068   5.607   5.732   8.046  3.1972 -0.0530 -0.6408
 3503TIP3    H232069   5.495   5.765   7.950 -0.5265  0.8234  3.6502
 3504TIP3   OH232070   5.286   0.522   2.143 -0.0884 -0.6219 -0.1436
 3504TIP3    H132071   5.306   0.484   2.229  0.7250 -0.7917 -0.3965
 3504TIP3    H232072   5.246   0.450   2.094  2.4780 -1.5735 -1.0043
 3505TIP3   OH232073   2.840   5.554   0.752 -0.0099  0.4557 -0.9302
 3505TIP3    H132074   2.754   5.559   0.710 -1.5508 -2.1389  1.6292
 3505TIP3    H232075   2.861   5.461   0.752  2.3502  0.9306 -0.4950
 3506TIP3   OH232076   4.844   2.986   2.110 -0.0383 -0.4895  0.3491
 3506TIP3    H132077   4.765   2.932   2.101  0.5982 -1.2077 -1.6451
 3506TIP3    H232078   4.812   3.072   2.136 -1.5025 -0.7584 -0.4719
 3507TIP3   OH232079   6.858   0.734   1.167 -0.6687  0.5504 -0.0801
 3507TIP3    H132080   6.800   0.763   1.237 -0.5152  1.0122 -0.1416
 3507TIP3    H232081   6.857   0.639   1.173 -1.4574  0.5565 -0.1002
 3508TIP3   OH232082   0.882   2.428   1.933  0.1457 -0.1159  0.3012
 3508TIP3    H132083   0.800   2.431   1.982  0.3031 -1.4512  0.6964
 3508TIP3    H232084   0.908   2.336   1.936  1.8572  0.3318  0.5097
 3509TIP3   OH232085   1.660   0.559   0.089 -0.4685 -0.0346  0.0500
 3509TIP3    H132086   1.632   0.549  -0.003 -0.5547 -1.2019  0.1919
 3509TIP3    H232087   1.600   0.503   0.138  0.4933 -0.5433  0.6566
 3510TIP3   OH232088   6.017   2.810   8.662  0.1873 -0.6328  0.0334
 3510TIP3    H132089   6.098   2.772   8.627 -1.0939 -1.8401 -1.8165
 3510TIP3    H232090   5.998   2.757   8.739  0.7475 -0.8658  0.0205
 3511TIP3   OH232091   6.419   5.253   1.244  0.1630 -0.2570  0.0770
 3511TIP3    H132092   6.479   5.316   1.283 -0.0502 -0.3828  0.6086
 3511TIP3    H232093   6.475   5.182   1.215  0.5039  0.5011 -1.2276
 3512TIP3   OH232094   2.993   2.790   1.264 -0.5123  0.4830 -0.1835
 3512TIP3    H132095   3.064   2.849   1.241  0.3306 -0.1703  0.6626
 3512TIP3    H232096   3.035   2.704   1.272 -2.0296 -0.7372 -3.4406
 3513TIP3   OH232097   1.044   4.772   1.123 -0.2546 -0.5174 -0.3298
 3513TIP3    H132098   1.043   4.808   1.034 -1.9101 -1.9876 -0.9658
 3513TIP3    H232099   0.997   4.838   1.175  2.1776  1.1744 -0.1104
 3514TIP3   OH232100   0.924   0.518   8.027 -0.4115 -0.5936 -0.4998
 3514TIP3    H132101   0.897   0.536   7.937 -0.0190 -1.1209 -0.7303
 3514TIP3    H232102   0.849   0.472   8.066  0.6205 -3.4320 -1.5919
 3515TIP3   OH232103   1.453   1.104   0.386 -0.1213 -0.0187 -0.4117
 3515TIP3    H132104   1.456   1.011   0.362 -1.3927  0.1388 -1.2585
 3515TIP3    H232105   1.383   1.110   0.451  0.8392  0.1600  0.6398
 3516TIP3   OH232106   2.143   4.466   1.185  0.2857  0.4935  0.4393
 3516TIP3    H132107   2.199   4.415   1.126  0.7844  0.7680  0.6699
 3516TIP3    H232108   2.173   4.557   1.174  1.6523  0.3563  2.4716
 3517TIP3   OH232109   1.484   6.190   8.498 -0.1205 -0.2892  0.1606
 3517TIP3    H132110   1.456   6.279   8.477 -1.6612 -0.4865  1.1727
 3517TIP3    H232111   1.463   6.139   8.420 -2.0628 -0.2838  0.6163
 3518TIP3   OH232112   0.714   5.761   8.543 -0.0111 -0.7765  0.1780
 3518TIP3    H132113   0.782   5.815   8.502  0.4100 -1.3711  0.0777
 3518TIP3    H232114   0.719   5.677   8.497 -2.3567 -0.1315 -1.3874
 3519TIP3   OH232115   2.971   6.083   0.434  0.0444 -0.1303 -0.4000
 3519TIP3    H132116   3.031   6.056   0.504  0.4594  0.6984 -0.4250
 3519TIP3    H232117   2.905   6.136   0.478  0.6187  0.8591 -0.7071
 3520TIP3   OH232118   3.487   6.107   6.785 -0.1153 -0.0452 -0.3048
 3520TIP3    H132119   3.515   6.195   6.809  1.3084  0.2294 -2.7395
 3520TIP3    H232120   3.558   6.050   6.814 -0.5654 -0.3010  0.3321
 3521TIP3   OH232121   2.257   0.669   8.467 -0.0114 -0.7062  0.3186
 3521TIP3    H132122   2.322   0.680   8.398 -1.9334 -1.7995 -1.7886
 3521TIP3    H232123   2.289   0.596   8.519  0.1998 -1.5986 -1.0197
 3522TIP3   OH232124   4.002   3.188   7.138  0.3581  0.3930  0.2306
 3522TIP3    H132125   4.048   3.110   7.170  1.1771  0.9029  0.3426
 3522TIP3    H232126   3.958   3.160   7.059  1.4275  0.0413 -0.2578
 3523TIP3   OH232127   0.819   5.573   0.643  0.0943 -0.3010  0.2830
 3523TIP3    H132128   0.728   5.596   0.661 -0.0185 -0.9877  0.6432
 3523TIP3    H232129   0.822   5.556   0.549  0.2368  1.3760 -0.0308
 3524TIP3   OH232130   2.245   5.312   8.576 -0.0253 -0.0081  0.1328
 3524TIP3    H132131   2.250   5.238   8.637  0.2160 -0.0590  0.0500
 3524TIP3    H232132   2.327   5.309   8.528 -0.3089 -0.1027 -0.3500
 3525TIP3   OH232133   1.857   1.613   0.606  0.5874 -0.4263 -0.3785
 3525TIP3    H132134   1.814   1.693   0.636  0.1147 -1.1250  0.8507
 3525TIP3    H232135   1.947   1.640   0.588  0.6785  0.2032  0.9007
 3526TIP3   OH232136   0.700   6.402   0.978 -0.0302  0.3942  0.2683
 3526TIP3    H132137   0.707   6.352   1.059 -1.5745  2.4198  1.7471
 3526TIP3    H232138   0.730   6.341   0.910 -0.9363 -2.1909  2.0347
 3527TIP3   OH232139   6.365   2.995   7.638  0.7228 -0.0310 -0.3690
 3527TIP3    H132140   6.448   3.022   7.599  1.5388  0.8750  1.8251
 3527TIP3    H232141   6.301   3.055   7.601  1.2870  0.2190 -0.9697
 3528TIP3   OH232142   0.367   4.417   7.660 -0.0869 -0.3338 -0.3704
 3528TIP3    H132143   0.341   4.400   7.751  0.5497  0.7332  0.0269
 3528TIP3    H232144   0.285   4.417   7.611 -0.3526 -1.9218  0.0147
 3529TIP3   OH232145   1.760   5.294   1.700 -0.6364  0.1075 -0.2914
 3529TIP3    H132146   1.832   5.232   1.710 -0.4176  0.0853 -1.7448
 3529TIP3    H232147   1.699   5.251   1.640 -1.7914  0.2125  0.7579
 3530TIP3   OH232148   6.011   0.465   2.445 -0.3424  0.0632  0.0617
 3530TIP3    H132149   5.970   0.381   2.464  1.2681 -0.6122  0.8085
 3530TIP3    H232150   6.095   0.442   2.405  1.1700  1.1677  2.3282
 3531TIP3   OH232151   4.040   1.761   8.573 -0.2838 -0.1235  0.3813
 3531TIP3    H132152   4.048   1.666   8.572 -1.4935 -0.2770 -2.1956
 3531TIP3    H232153   4.048   1.785   8.665  0.0682 -2.6969  1.0859
 3532TIP3   OH232154   6.042   6.156   6.570  0.0502  0.3334 -0.0957
 3532TIP3    H132155   5.969   6.095   6.585  1.0612 -1.3012 -1.4355
 3532TIP3    H232156   6.030   6.186   6.480  1.7722 -1.1194 -0.8777
 3533TIP3   OH232157   3.190   6.144   6.685 -0.2801  0.3428  0.2660
 3533TIP3    H132158   3.127   6.075   6.705  0.7146 -1.6394 -2.8003
 3533TIP3    H232159   3.275   6.100   6.685  0.6473  2.0480  0.1963
 3534TIP3   OH232160   1.406   1.249   7.083 -0.1398  0.8618 -0.5003
 3534TIP3    H132161   1.347   1.231   7.009  0.4152  0.0380 -0.7571
 3534TIP3    H232162   1.462   1.320   7.052 -0.0972  0.7119 -0.7762
 3535TIP3   OH232163   5.524   1.363   2.074  0.0025 -0.5097 -0.0943
 3535TIP3    H132164   5.514   1.356   1.979  1.2852  0.4329 -0.3224
 3535TIP3    H232165   5.617   1.348   2.090 -0.4046 -1.8732  1.1605
 3536TIP3   OH232166   4.894   5.954   1.969  0.4784 -0.0385 -0.1276
 3536TIP3    H132167   4.816   5.926   1.922  0.7415  0.1155 -0.6667
 3536TIP3    H232168   4.966   5.905   1.928  0.8666  0.9709 -0.6863
 3537TIP3   OH232169   0.543   0.521   0.706  0.5165  0.2754  0.0953
 3537TIP3    H132170   0.601   0.595   0.691 -0.7240  1.3377  0.4051
 3537TIP3    H232171   0.579   0.477   0.784  1.0453  0.7620  0.1266
 3538TIP3   OH232172   3.111   4.729   7.616 -0.1877 -0.0487  0.1294
 3538TIP3    H132173   3.034   4.735   7.673 -1.1956  0.1048 -1.1923
 3538TIP3    H232174   3.155   4.649   7.644 -0.9200 -0.2305  0.8125
 3539TIP3   OH232175   1.263   0.031   0.512  0.1811 -0.0816  0.2831
 3539TIP3    H132176   1.258   0.115   0.558 -0.1669 -0.3936  0.8207
 3539TIP3    H232177   1.283  -0.033   0.580 -0.0539 -0.5131 -0.0458
 3540TIP3   OH232178   3.133   5.932   2.547  0.1500 -0.0391 -0.6478
 3540TIP3    H132179   3.217   5.975   2.530  1.7142 -1.9024  1.7760
 3540TIP3    H232180   3.072   6.003   2.565  1.2579  1.3431 -2.1167
 3541TIP3   OH232181   4.253   1.680   1.612 -0.2676  0.0255  0.2623
 3541TIP3    H132182   4.215   1.596   1.586 -1.5694 -0.4209  3.1484
 3541TIP3    H232183   4.190   1.746   1.583  0.0827 -0.1041 -0.8099
 3542TIP3   OH232184   5.432   2.570   1.464 -0.0725 -0.4819 -0.0452
 3542TIP3    H132185   5.405   2.478   1.464  1.8403 -1.0909  0.7016
 3542TIP3    H232186   5.385   2.609   1.537 -0.4170 -1.0066  0.0183
 3543TIP3   OH232187   3.156   4.575   0.369  0.6930  0.1623 -0.4182
 3543TIP3    H132188   3.065   4.552   0.388  0.5477  1.4484  0.5546
 3543TIP3    H232189   3.205   4.494   0.384  0.1664  0.2908  2.6273
 3544TIP3   OH232190   5.706   6.241   0.734  0.0814  0.7615 -0.3070
 3544TIP3    H132191   5.746   6.328   0.745  4.3716 -0.9678 -0.4161
 3544TIP3    H232192   5.691   6.233   0.640 -1.5200  1.7533 -0.1754
 3545TIP3   OH232193   1.305   4.384   8.184 -0.4874 -0.5035 -0.1042
 3545TIP3    H132194   1.379   4.445   8.189 -0.3656 -0.1828 -3.3370
 3545TIP3    H232195   1.344   4.299   8.168 -0.7615 -0.4818 -0.9461
 3546TIP3   OH232196   3.503   6.835   8.664  0.0724 -0.0590 -0.6107
 3546TIP3    H132197   3.533   6.751   8.629 -1.0446  0.1397 -2.1211
 3546TIP3    H232198   3.531   6.900   8.599  2.2529  1.0160  1.2195
 3547TIP3   OH232199   5.533   1.767   1.328 -0.0657  0.1533 -0.5090
 3547TIP3    H132200   5.534   1.854   1.369 -0.5113 -0.3917  0.7071
 3547TIP3    H232201   5.518   1.707   1.401 -0.5277 -0.8876 -1.4404
 3548TIP3   OH232202   3.066   5.945   1.017 -0.5016 -0.5398 -0.4310
 3548TIP3    H132203   2.995   6.008   1.021  0.5782  1.0071 -3.0449
 3548TIP3    H232204   3.026   5.864   0.985 -1.6981 -0.9211  1.8648
 3549TIP3   OH232205   3.587   2.374   0.866 -0.2409  0.4961 -0.0061
 3549TIP3    H132206   3.596   2.433   0.792  0.3896  1.1081  0.5344
 3549TIP3    H232207   3.677   2.349   0.887 -0.3782  0.6187  0.7682
 3550TIP3   OH232208   0.788   2.026   7.626 -0.1175  0.4419 -0.0021
 3550TIP3    H132209   0.700   2.023   7.665 -0.6619 -1.7333 -1.2400
 3550TIP3    H232210   0.779   2.087   7.552 -0.4927  0.4932  0.0808
 3551TIP3   OH232211   5.950   1.549   2.802 -0.4262 -0.4832  0.1307
 3551TIP3    H132212   5.899   1.593   2.870 -1.1889  0.4970 -1.0427
 3551TIP3    H232213   6.013   1.614   2.773 -0.8569 -0.4970 -0.8723
 3552TIP3   OH232214   5.987   0.505   0.395 -0.2340  0.3941  0.4498
 3552TIP3    H132215   5.924   0.559   0.443  0.4354 -0.2682  2.1578
 3552TIP3    H232216   6.060   0.493   0.456  2.5443  2.7643 -2.0546
 3553TIP3   OH232217   2.913   2.309   0.823  0.2120  0.0380 -0.6673
 3553TIP3    H132218   2.959   2.353   0.895  0.2773  1.1173 -1.3393
 3553TIP3    H232219   2.972   2.238   0.797  1.0836  0.8072 -0.8812
 3554TIP3   OH232220   0.204   6.442   0.300 -0.0850 -0.2441 -0.2419
 3554TIP3    H132221   0.159   6.417   0.220 -1.7668  0.3182  0.4941
 3554TIP3    H232222   0.271   6.505   0.271 -0.5021 -0.2349 -1.2225
 3555TIP3   OH232223   4.994   2.882   7.119 -0.5931 -0.3519  0.0394
 3555TIP3    H132224   5.057   2.898   7.048 -1.9955  1.2305 -0.9221
 3555TIP3    H232225   4.909   2.876   7.075 -1.3647 -0.4323  1.4778
 3556TIP3   OH232226   1.084   5.169   0.160 -0.2919  0.1388 -0.1452
 3556TIP3    H132227   1.086   5.234   0.230 -1.0106 -2.2558  2.2681
 3556TIP3    H232228   1.112   5.217   0.082 -0.2516  3.1590  1.5694
 3557TIP3   OH232229   1.204   5.894   7.016  0.1154  0.5467  0.2650
 3557TIP3    H132230   1.167   5.876   6.929 -0.1714  1.5662  0.1668
 3557TIP3    H232231   1.223   5.988   7.015  0.3792  0.5115  1.2052
 3558TIP3   OH232232   2.362   4.646   8.328 -0.1495  0.0085  0.0999
 3558TIP3    H132233   2.374   4.654   8.422 -0.4749  0.0251  0.1405
 3558TIP3    H232234   2.413   4.569   8.303 -1.6954 -1.2389  0.6066
 3559TIP3   OH232235   6.856   6.234   1.175  0.4573  0.0040 -0.5163
 3559TIP3    H132236   6.882   6.145   1.150  1.6702  0.8682 -2.5275
 3559TIP3    H232237   6.932   6.288   1.155  0.2292  1.3518  1.9053
 3560TIP3   OH232238   2.687   3.567   7.214 -0.2186  0.2724  0.2021
 3560TIP3    H132239   2.662   3.554   7.306 -0.5957  0.1763  0.0879
 3560TIP3    H232240   2.779   3.593   7.218  0.0253 -0.6015  0.5573
 3561TIP3   OH232241   2.118   4.080   7.766  0.3957 -0.6225 -0.3596
 3561TIP3    H132242   2.128   3.994   7.806 -1.5586 -0.9863 -0.5135
 3561TIP3    H232243   2.025   4.084   7.743  0.4427  1.5205 -0.3734
 3562TIP3   OH232244   2.624   2.362   8.088 -0.0951 -0.7791 -0.3010
 3562TIP3    H132245   2.687   2.305   8.043  1.5786  1.3565 -0.8120
 3562TIP3    H232246   2.612   2.322   8.174  2.8877 -0.7038  0.2566
 3563TIP3   OH232247   2.208   2.254   0.299 -0.2113 -0.7906 -1.0322
 3563TIP3    H132248   2.118   2.266   0.329  0.2614  2.2966 -0.5245
 3563TIP3    H232249   2.252   2.212   0.373 -0.7171 -0.0640 -0.2984
 3564TIP3   OH232250   4.761   5.911   1.729  0.1993  0.1109  0.2325
 3564TIP3    H132251   4.822   5.849   1.691 -1.8488 -2.1598  0.4024
 3564TIP3    H232252   4.690   5.918   1.664 -0.9707  0.0231  1.4553
 3565TIP3   OH232253   1.648   5.799   1.282  0.1702 -0.8524 -0.0051
 3565TIP3    H132254   1.613   5.888   1.294 -2.5419 -1.6336 -1.2272
 3565TIP3    H232255   1.695   5.803   1.199 -0.5387 -0.6740 -0.4118
 3566TIP3   OH232256   2.245   5.310   3.028 -0.1702  0.1057 -0.0237
 3566TIP3    H132257   2.233   5.342   2.938  0.8904 -0.8486 -0.5322
 3566TIP3    H232258   2.306   5.372   3.067  0.3436 -0.1695 -0.3746
 3567TIP3   OH232259   3.542   5.307   0.208  0.5914  0.1306 -0.0271
 3567TIP3    H132260   3.596   5.380   0.239  1.8968 -0.2668 -1.2741
 3567TIP3    H232261   3.590   5.228   0.235 -0.5012 -0.2901  0.7756
 3568TIP3   OH232262   6.414   2.532   7.404  0.2995 -0.6049 -0.5686
 3568TIP3    H132263   6.366   2.602   7.447  0.0728 -0.8790 -0.3694
 3568TIP3    H232264   6.347   2.480   7.359  0.4830 -0.5998 -0.8496
 3569TIP3   OH232265   4.191   5.865   0.492  0.8495  0.2413  0.2137
 3569TIP3    H132266   4.139   5.844   0.570 -0.6060  0.5976 -0.6311
 3569TIP3    H232267   4.154   5.811   0.423  1.4176  0.7326 -0.4866
 3570TIP3   OH232268   1.255   5.419   0.310 -0.2845 -0.0506 -0.3246
 3570TIP3    H132269   1.184   5.377   0.358  0.4872 -0.7106  0.2575
 3570TIP3    H232270   1.331   5.364   0.327 -0.1948 -1.0422 -3.2829
 3571TIP3   OH232271   0.437   3.095   7.457 -0.4679 -0.0639  0.2315
 3571TIP3    H132272   0.444   3.190   7.448 -0.7938 -0.0322  0.2947
 3571TIP3    H232273   0.517   3.061   7.418 -0.4133  0.2295  0.0871
 3572TIP3   OH232274   2.559   0.937   1.944  0.8704 -0.1191  0.2148
 3572TIP3    H132275   2.503   0.946   1.868  0.5402 -1.1752  0.3284
 3572TIP3    H232276   2.638   0.987   1.922  1.4533 -1.6849 -1.4862
 3573TIP3   OH232277   6.854   1.253   6.973  0.1530 -0.2822 -0.7202
 3573TIP3    H132278   6.806   1.173   6.951  0.8612 -0.6335 -1.0171
 3573TIP3    H232279   6.823   1.318   6.909  0.0321 -0.4882 -0.8723
 3574TIP3   OH232280   1.372   4.615   1.851  0.2960 -0.1047 -0.3921
 3574TIP3    H132281   1.298   4.632   1.792  0.6551 -0.2603 -0.8955
 3574TIP3    H232282   1.447   4.601   1.792  0.4126 -1.5104  0.0604
 3575TIP3   OH232283   3.745   3.354   0.930  0.2180 -0.0960  0.3360
 3575TIP3    H132284   3.680   3.327   0.994  0.3759 -0.2774  0.4218
 3575TIP3    H232285   3.818   3.389   0.982  0.3070 -0.1549  0.2518
 3576TIP3   OH232286   0.749   6.587   8.453  0.2236 -0.2416 -0.4748
 3576TIP3    H132287   0.695   6.510   8.465  0.2404 -0.6838 -2.8007
 3576TIP3    H232288   0.694   6.660   8.481 -0.1695 -0.9841  0.7488
 3577TIP3   OH232289   4.317   3.712   0.022 -0.3961 -0.2143  0.2098
 3577TIP3    H132290   4.384   3.743   0.082  0.6462 -0.1685 -0.9458
 3577TIP3    H232291   4.365   3.679  -0.053 -1.6884  2.0663 -1.7688
 3578TIP3   OH232292   4.646   4.481   6.794  0.6940 -0.6599 -0.6457
 3578TIP3    H132293   4.567   4.491   6.741 -0.0107  0.1576  0.5210
 3578TIP3    H232294   4.628   4.530   6.874  1.2856 -2.7442  0.8482
 3579TIP3   OH232295   3.645   2.367   7.525  0.6481 -0.1400  0.1536
 3579TIP3    H132296   3.622   2.423   7.600  1.4665  1.3943 -0.6852
 3579TIP3    H232297   3.591   2.289   7.535 -0.1572  0.5794  1.6652
 3580TIP3   OH232298   5.885   3.317   8.005  0.0949 -0.0174  0.3728
 3580TIP3    H132299   5.946   3.268   7.950 -0.9380  0.7084 -1.5114
 3580TIP3    H232300   5.807   3.262   8.011  0.3326 -0.2551  1.4585
 3581TIP3   OH232301   0.432   6.278   0.827  0.4882  0.2677 -0.8360
 3581TIP3    H132302   0.485   6.235   0.894 -0.4834 -1.4866 -1.1381
 3581TIP3    H232303   0.476   6.258   0.744 -0.4085 -0.9010 -1.0550
 3582TIP3   OH232304   2.427   4.706   2.389 -0.7888  0.0846  0.2172
 3582TIP3    H132305   2.349   4.733   2.438  0.0148 -0.3952  1.8587
 3582TIP3    H232306   2.420   4.611   2.382 -0.4186  0.0481  0.2845
 3583TIP3   OH232307   1.133   4.690   8.412 -0.2495  0.6002  0.4674
 3583TIP3    H132308   1.109   4.697   8.504  1.9671  2.1031  1.0053
 3583TIP3    H232309   1.126   4.780   8.378 -1.6123 -0.0200 -1.0186
 3584TIP3   OH232310   1.386   6.769   0.971  0.0558 -0.4179  0.1145
 3584TIP3    H132311   1.454   6.770   1.038  1.2214  0.5281 -1.0250
 3584TIP3    H232312   1.406   6.844   0.915 -1.6356 -0.4186 -0.5580
 3585TIP3   OH232313   2.409   3.389   0.676  0.3428  0.3780  0.0642
 3585TIP3    H132314   2.333   3.332   0.670 -0.5718  1.4473  1.0526
 3585TIP3    H232315   2.399   3.450   0.604 -0.0389  0.8463  0.5034
 3586TIP3   OH232316   0.145   2.602   1.190  0.0605  0.0208 -0.6080
 3586TIP3    H132317   0.201   2.679   1.186  0.0686  0.0265 -0.3975
 3586TIP3    H232318   0.147   2.576   1.282  1.9835 -1.6621 -1.0580
 3587TIP3   OH232319   1.720   2.486   7.455  0.5201  0.2474  0.1696
 3587TIP3    H132320   1.789   2.435   7.413  0.8383  0.2260  0.7128
 3587TIP3    H232321   1.683   2.539   7.384  1.2039  0.3822 -0.0936
 3588TIP3   OH232322   5.453   0.221   0.641 -0.2867  0.1564  0.0919
 3588TIP3    H132323   5.494   0.143   0.677 -3.1795 -0.5541  2.2388
 3588TIP3    H232324   5.422   0.194   0.554 -0.0522 -0.6586  0.2524
 3589TIP3   OH232325   5.031   0.736   8.076 -0.5693  0.7590 -0.5066
 3589TIP3    H132326   5.003   0.711   8.164 -0.4987  0.5109 -0.5547
 3589TIP3    H232327   5.125   0.717   8.073 -0.3116  1.9447 -0.2223
 3590TIP3   OH232328   2.837   2.812   2.192  0.4681 -0.1819 -0.1866
 3590TIP3    H132329   2.838   2.746   2.122  1.2774  0.0131 -0.3744
 3590TIP3    H232330   2.896   2.777   2.258  1.3905  0.6143 -0.5535
 3591TIP3   OH232331   5.557   5.204   0.599 -0.4327  0.0201 -0.4006
 3591TIP3    H132332   5.592   5.241   0.518 -0.9855 -0.4134 -0.8467
 3591TIP3    H232333   5.537   5.280   0.653  0.3056  0.3014 -0.5116
 3592TIP3   OH232334   2.109   6.860   1.039 -0.6325 -0.9351  0.1236
 3592TIP3    H132335   2.203   6.857   1.022 -0.7573 -1.9872 -0.4889
 3592TIP3    H232336   2.080   6.945   1.006 -0.0181 -0.9117 -0.3596
 3593TIP3   OH232337   3.762   2.661   1.725  0.1765 -0.0658 -0.0859
 3593TIP3    H132338   3.845   2.690   1.687 -0.0698  0.4090 -0.2690
 3593TIP3    H232339   3.780   2.650   1.818  0.4019  0.1990 -0.0975
 3594TIP3   OH232340   6.816   6.308   1.659  0.1054  0.3101  0.1921
 3594TIP3    H132341   6.791   6.328   1.569 -2.0136 -2.5690  0.0104
 3594TIP3    H232342   6.895   6.255   1.650 -0.2184 -0.1448  0.0054
 3595TIP3   OH232343   5.194   2.029   8.209 -0.2377 -0.0198 -0.0532
 3595TIP3    H132344   5.151   2.041   8.124 -1.9322  0.6404  0.8505
 3595TIP3    H232345   5.123   2.010   8.270  1.0053 -1.0318  1.1457
 3596TIP3   OH232346   3.464   1.015   7.000  0.3515  0.5068 -0.0919
 3596TIP3    H132347   3.411   0.987   6.925 -0.5458  2.1863 -0.1305
 3596TIP3    H232348   3.465   0.939   7.058  0.5700 -0.6260 -1.5206
 3597TIP3   OH232349   1.672   2.224   1.345  0.1774  0.2795 -0.2293
 3597TIP3    H132350   1.752   2.267   1.378 -0.0854  0.2017  0.5232
 3597TIP3    H232351   1.610   2.230   1.418  0.2417 -1.6856  0.0392
 3598TIP3   OH232352   1.943   5.906   7.772  0.5819  0.1368  0.4271
 3598TIP3    H132353   2.026   5.904   7.820  0.7598  0.7949  0.1519
 3598TIP3    H232354   1.956   5.845   7.700  0.5812 -0.2826  0.7772
 3599TIP3   OH232355   5.730   5.748   1.642  0.0723  0.4920  0.3540
 3599TIP3    H132356   5.716   5.828   1.692  0.1985  0.2391  0.8052
 3599TIP3    H232357   5.661   5.748   1.576  0.6239  1.4339 -0.2561
 3600TIP3   OH232358   4.391   0.466   1.240  0.0506  0.3229  0.6826
 3600TIP3    H132359   4.319   0.418   1.200  0.8302  0.1192 -0.5456
 3600TIP3    H232360   4.371   0.558   1.225  0.4481  0.2440 -0.4393
 3601TIP3   OH232361   1.047   1.553   8.520 -0.0500  0.0635  0.8236
 3601TIP3    H132362   1.138   1.533   8.499 -0.7886 -1.5412 -1.2227
 3601TIP3    H232363   1.033   1.641   8.485  0.2369 -0.4627 -0.7183
 3602TIP3   OH232364   0.612   6.052   0.664 -0.4088  0.1729 -0.0646
 3602TIP3    H132365   0.641   6.007   0.585 -2.1804 -1.1952  0.0020
 3602TIP3    H232366   0.655   6.005   0.736 -0.5019  0.0285 -0.1040
 3603TIP3   OH232367   6.792   5.890   0.758  0.3737  0.3947 -0.1355
 3603TIP3    H132368   6.733   5.818   0.782  2.1979 -1.3575 -0.5988
 3603TIP3    H232369   6.858   5.849   0.702  1.1039  2.6109 -1.0023
 3604TIP3   OH232370   3.631   4.177   2.831  0.5250  0.5455 -0.7055
 3604TIP3    H132371   3.537   4.191   2.825  0.6803  1.0304 -3.2880
 3604TIP3    H232372   3.670   4.251   2.784  2.3633  1.4564  1.9957
 3605TIP3   OH232373   2.055   2.714   2.063 -0.0484 -0.0433 -0.5287
 3605TIP3    H132374   2.006   2.711   2.144  0.4920 -2.6518 -0.2043
 3605TIP3    H232375   2.143   2.683   2.087  0.1865 -0.6328 -2.0430
 3606TIP3   OH232376   4.889   6.018   1.112  0.4279 -0.0898 -0.2353
 3606TIP3    H132377   4.819   6.024   1.178 -0.4013 -0.6368 -1.0462
 3606TIP3    H232378   4.931   5.934   1.130 -2.1484 -2.0588 -2.6054
 3607TIP3   OH232379   2.536   6.132   8.392  0.1813 -0.4003 -0.4629
 3607TIP3    H132380   2.481   6.165   8.322 -1.0025 -0.7474  0.2739
 3607TIP3    H232381   2.528   6.037   8.387 -0.5546 -0.4137  0.6071
 3608TIP3   OH232382   5.662   5.059   0.179 -0.0420  0.1537 -0.0669
 3608TIP3    H132383   5.637   5.103   0.098  0.0568 -2.3890 -1.5611
 3608TIP3    H232384   5.757   5.069   0.183 -0.1522  1.1613  0.3103
 3609TIP3   OH232385   2.605   5.284   7.841 -0.2015 -0.3441  0.0353
 3609TIP3    H132386   2.645   5.244   7.918  2.5095 -0.0707 -1.1186
 3609TIP3    H232387   2.644   5.238   7.767 -2.0502  0.0097 -1.2437
 3610TIP3   OH232388   4.843   6.260   2.332  0.3424  0.1431 -0.6803
 3610TIP3    H132389   4.934   6.279   2.355 -0.3521  1.6075  1.1948
 3610TIP3    H232390   4.846   6.176   2.288  2.4200 -0.7694  1.0276
 3611TIP3   OH232391   0.325   3.959   8.491 -0.3302 -0.5766  0.1802
 3611TIP3    H132392   0.248   4.016   8.495 -0.8872 -1.2446 -0.5827
 3611TIP3    H232393   0.344   3.952   8.397 -0.3398 -1.7121  0.2421
 3612TIP3   OH232394   6.664   0.637   1.738  0.2843 -1.1772 -0.5574
 3612TIP3    H132395   6.706   0.569   1.791 -0.5755 -1.2393  0.0468
 3612TIP3    H232396   6.586   0.595   1.702  1.2345 -1.3882 -2.5355
 3613TIP3   OH232397   1.379   3.940   7.954 -0.1983 -0.0407 -0.1443
 3613TIP3    H132398   1.321   3.936   7.878 -0.4087  0.4816 -0.0167
 3613TIP3    H232399   1.425   3.857   7.953 -2.4006 -1.3677  0.9011
 3614TIP3   OH232400   5.342   6.749   2.071  0.6975 -0.0048  0.1497
 3614TIP3    H132401   5.423   6.772   2.027 -0.6931 -1.0337 -3.3241
 3614TIP3    H232402   5.355   6.659   2.102  1.5255  0.5514  1.4667
 3615TIP3   OH232403   1.113   4.434   6.997 -0.1501  0.0690  0.1269
 3615TIP3    H132404   1.030   4.466   7.033 -0.2324 -0.4820  0.4425
 3615TIP3    H232405   1.172   4.430   7.073  0.5258  1.5683 -0.2943
 3616TIP3   OH232406   5.114   1.859   2.638  0.5277 -0.1086 -0.0763
 3616TIP3    H132407   5.024   1.831   2.653  0.5229  0.9544  2.3139
 3616TIP3    H232408   5.167   1.782   2.657  0.3525  0.5407  3.8552
 3617TIP3   OH232409   5.675   6.059   1.986  0.3573  0.1714  1.0695
 3617TIP3    H132410   5.645   6.117   1.916  2.1606 -0.5861 -0.4035
 3617TIP3    H232411   5.656   5.971   1.954 -2.6540 -0.1923  3.4246
 3618TIP3   OH232412   3.105   4.581   2.279  0.1636 -0.3783 -0.5652
 3618TIP3    H132413   3.195   4.605   2.302  0.2560 -0.8858 -0.3843
 3618TIP3    H232414   3.054   4.599   2.358  0.0980 -0.0619 -0.6776
 3619TIP3   OH232415   1.069   3.913   2.213  0.8129  0.3419  0.0971
 3619TIP3    H132416   1.095   3.823   2.193  0.2869  0.6714 -2.4614
 3619TIP3    H232417   1.110   3.965   2.144 -1.5974  1.6163 -0.4810
 3620TIP3   OH232418   5.298   5.762   7.692  0.2293 -0.0729  0.2779
 3620TIP3    H132419   5.297   5.684   7.749 -1.6418  1.1700  2.0975
 3620TIP3    H232420   5.236   5.740   7.622  0.2100 -0.4854  0.4163
 3621TIP3   OH232421   2.637   5.239   0.909 -0.2824 -0.5840 -0.5916
 3621TIP3    H132422   2.648   5.235   1.004  1.3383 -0.2564 -0.7392
 3621TIP3    H232423   2.595   5.324   0.894 -1.5157 -1.0881 -0.1143
 3622TIP3   OH232424   2.303   1.548   7.326  0.5547  0.3790  0.2192
 3622TIP3    H132425   2.386   1.530   7.372  1.2525 -2.4701 -1.8570
 3622TIP3    H232426   2.330   1.593   7.246 -0.0897  0.7962  0.2324
 3623TIP3   OH232427   2.401   0.572   1.344  0.0377 -0.1217 -0.1606
 3623TIP3    H132428   2.448   0.588   1.263  1.3292 -1.2563  0.3218
 3623TIP3    H232429   2.469   0.551   1.408 -0.8759  1.5661  1.4525
 3624TIP3   OH232430   5.364   1.110   2.018  0.4297  0.3354  0.0611
 3624TIP3    H132431   5.290   1.153   2.061 -0.5033 -0.7985 -0.3758
 3624TIP3    H232432   5.412   1.068   2.089  0.4946  0.8331  0.3156
 3625TIP3   OH232433   1.077   6.518   7.875 -0.4524 -0.0153 -0.0380
 3625TIP3    H132434   1.042   6.435   7.841  0.2098 -0.2956 -0.0485
 3625TIP3    H232435   1.099   6.568   7.797  0.9266 -0.5984 -0.0467
 3626TIP3   OH232436   1.065   0.128   1.001 -0.3570  0.0342  0.2400
 3626TIP3    H132437   1.108   0.162   0.923 -0.7262 -0.9403 -0.4122
 3626TIP3    H232438   1.000   0.194   1.024 -2.0113 -0.7948 -1.8000
 3627TIP3   OH232439   1.577   3.621   0.428 -0.1169  0.0463 -0.3955
 3627TIP3    H132440   1.527   3.541   0.440 -1.2029  0.8679  0.8866
 3627TIP3    H232441   1.517   3.679   0.379  0.5188  0.2066 -0.9972
 3628TIP3   OH232442   0.043   1.681   8.685  0.8332 -0.2584 -0.0883
 3628TIP3    H132443   0.090   1.694   8.768  0.6632 -1.0857  0.1535
 3628TIP3    H232444   0.112   1.666   8.621  0.9431 -0.5409  0.0899
 3629TIP3   OH232445   6.242   0.843   0.233 -0.1308 -0.4618  0.2500
 3629TIP3    H132446   6.303   0.838   0.307 -0.2208  0.4794  0.4026
 3629TIP3    H232447   6.265   0.769   0.177  0.9870 -0.2680  0.4342
 3630TIP3   OH232448   2.573   0.255   1.281 -0.3596 -0.7345  0.5472
 3630TIP3    H132449   2.599   0.323   1.343 -0.0455 -0.4991  0.1656
 3630TIP3    H232450   2.559   0.178   1.335 -0.2717 -0.4845  0.9336
 3631TIP3   OH232451   3.881   3.923   7.163  0.0946 -0.3845 -0.4319
 3631TIP3    H132452   3.789   3.943   7.149  0.3600  1.1890 -0.0900
 3631TIP3    H232453   3.922   3.938   7.078  0.2197  0.1180 -0.2873
 3632TIP3   OH232454   6.187   5.536   6.463  0.2831 -0.4334  0.3942
 3632TIP3    H132455   6.211   5.609   6.520 -1.5103 -0.3581  1.1485
 3632TIP3    H232456   6.149   5.472   6.523 -2.5364  0.0273 -0.7292
 3633TIP3   OH232457   1.011   2.439   0.903 -0.2313  0.0040 -0.4813
 3633TIP3    H132458   1.044   2.516   0.949  0.3541  0.0511 -0.9812
 3633TIP3    H232459   0.916   2.448   0.908 -0.2035 -0.2383  1.1388
 3634TIP3   OH232460   5.403   6.660   1.543 -0.5758 -0.0261  0.1140
 3634TIP3    H132461   5.342   6.704   1.602  0.6369  1.7954  0.0797
 3634TIP3    H232462   5.441   6.730   1.490  1.9076 -0.9921  0.4728
 3635TIP3   OH232463   2.653   1.148   7.558  0.3050 -0.1287  0.2363
 3635TIP3    H132464   2.626   1.169   7.469  1.5305  0.0641 -0.1129
 3635TIP3    H232465   2.723   1.083   7.547 -1.7629 -2.7104  1.2028
 3636TIP3   OH232466   1.988   5.256   1.436  0.2484 -0.4297  0.8277
 3636TIP3    H132467   2.039   5.211   1.503 -0.7157  0.7316  2.3834
 3636TIP3    H232468   1.904   5.210   1.433 -0.2313  0.3911  1.4439
 3637TIP3   OH232469   3.467   4.590   1.121  0.4537  0.3634 -0.2413
 3637TIP3    H132470   3.440   4.535   1.194 -1.4252  2.2224  0.5532
 3637TIP3    H232471   3.517   4.531   1.063 -1.6273 -2.1984  0.4115
 3638TIP3   OH232472   6.786   2.978   1.035  0.1547 -0.1158 -0.1440
 3638TIP3    H132473   6.785   2.954   0.942 -2.0727 -2.0794  0.2812
 3638TIP3    H232474   6.868   2.943   1.068  0.4416 -0.4340 -1.1392
 3639TIP3   OH232475   0.460   1.633   7.157 -0.1493  0.1851 -0.0746
 3639TIP3    H132476   0.437   1.725   7.164 -0.3176  0.2117 -0.8593
 3639TIP3    H232477   0.526   1.630   7.087  0.9019 -0.1170  0.8917
 3640TIP3   OH232478   2.594   5.561   0.649 -0.7447  0.6220  0.8717
 3640TIP3    H132479   2.547   5.480   0.668  1.7337 -0.7600  1.5446
 3640TIP3    H232480   2.527   5.629   0.652 -2.9828 -1.4007 -0.0314
 3641TIP3   OH232481   5.255   1.276   0.187  0.5758 -0.3778 -0.2409
 3641TIP3    H132482   5.162   1.297   0.182  0.5100 -0.8249 -1.0448
 3641TIP3    H232483   5.264   1.221   0.265  0.1182 -0.5775 -0.3272
 3642TIP3   OH232484   2.495   5.555   7.831 -0.2119 -0.0726 -0.4605
 3642TIP3    H132485   2.525   5.500   7.903  3.4079  0.1613 -1.5952
 3642TIP3    H232486   2.509   5.503   7.752  0.1531  1.2453 -1.3047
 3643TIP3   OH232487   2.980   3.959   8.122 -0.3428 -0.0345 -0.3799
 3643TIP3    H132488   3.064   4.004   8.111  0.0743 -0.8479 -0.5286
 3643TIP3    H232489   3.002   3.873   8.155 -1.0674 -0.5182 -1.1037
 3644TIP3   OH232490   5.674   6.040   7.381  0.0032 -0.5423  0.2684
 3644TIP3    H132491   5.686   6.061   7.473  0.7629  0.3118 -0.0181
 3644TIP3    H232492   5.620   6.111   7.347 -0.5575 -1.0296  0.1215
 3645TIP3   OH232493   4.434   0.294   7.499 -0.2061  0.6417 -0.7716
 3645TIP3    H132494   4.470   0.381   7.519  1.4762 -0.0792 -0.4639
 3645TIP3    H232495   4.403   0.260   7.583 -1.6479  1.2450 -1.0297
 3646TIP3   OH232496   6.596   3.350   3.015  0.4417  0.1571  0.6225
 3646TIP3    H132497   6.670   3.309   2.972 -0.5494 -0.2964 -0.7070
 3646TIP3    H232498   6.521   3.331   2.959 -0.6180  0.9841  1.6874
 3647TIP3   OH232499   2.643   0.432   1.472  0.3464 -0.0241  0.5559
 3647TIP3    H132500   2.693   0.508   1.444  0.6292 -0.2709  0.3932
 3647TIP3    H232501   2.650   0.433   1.568  1.3582 -0.5260  0.4976
 3648TIP3   OH232502   6.837   4.946   7.887  0.2581 -0.5220  0.2471
 3648TIP3    H132503   6.757   4.956   7.837  0.1617  2.1248  0.8167
 3648TIP3    H232504   6.839   4.853   7.911 -0.8563 -1.3734 -2.6139
 3649TIP3   OH232505   4.638   1.058   1.230 -0.0606 -0.4723 -0.1316
 3649TIP3    H132506   4.562   1.099   1.272 -1.1663 -1.6865 -0.8393
 3649TIP3    H232507   4.705   1.054   1.298 -0.5894  0.7365  0.4773
 3650TIP3   OH232508   5.977   3.724   6.463 -0.0782 -0.3687 -0.0964
 3650TIP3    H132509   5.959   3.725   6.369 -0.1041 -1.7785 -0.1270
 3650TIP3    H232510   6.065   3.687   6.471 -0.1774 -0.5026  0.4395
 3651TIP3   OH232511   0.213   5.907   7.544  0.3663 -0.3064 -1.0285
 3651TIP3    H132512   0.296   5.952   7.560  0.0451 -0.0222 -0.0928
 3651TIP3    H232513   0.215   5.830   7.600 -0.0852 -0.1889 -0.8402
 3652TIP3   OH232514   5.131   5.849   0.285  0.4797 -0.4439  0.4339
 3652TIP3    H132515   5.126   5.754   0.274 -0.7277 -0.3754  0.2390
 3652TIP3    H232516   5.116   5.884   0.197 -1.5205 -0.0485  0.8688
 3653TIP3   OH232517   2.513   6.394   0.613  0.1994  0.2303  0.0024
 3653TIP3    H132518   2.435   6.438   0.579  1.7371  1.8809 -1.5779
 3653TIP3    H232519   2.550   6.347   0.539 -0.6520 -2.7969  1.3508
 3654TIP3   OH232520   2.341   1.505   1.457 -0.3935  0.6238  0.4959
 3654TIP3    H132521   2.395   1.435   1.420 -0.8310  0.7476 -0.3881
 3654TIP3    H232522   2.272   1.521   1.392 -0.6900  1.4201  0.9797
 3655TIP3   OH232523   2.229   3.740   7.246 -0.0847 -0.0201  0.4235
 3655TIP3    H132524   2.157   3.678   7.259 -0.5114  0.5195  0.6790
 3655TIP3    H232525   2.304   3.686   7.222  0.6359 -1.1126  4.4660
 3656TIP3   OH232526   5.564   4.415   0.348 -0.1692  0.4589 -0.7625
 3656TIP3    H132527   5.625   4.342   0.364 -0.1823  0.5042 -0.5056
 3656TIP3    H232528   5.561   4.462   0.431 -0.9042  0.1946 -0.6361
 3657TIP3   OH232529   0.163   4.161   1.834  0.1448  0.0833 -0.4462
 3657TIP3    H132530   0.250   4.196   1.854  0.4035 -0.8856  0.1646
 3657TIP3    H232531   0.176   4.067   1.826 -1.2231 -0.3622  1.9054
 3658TIP3   OH232532   6.117   6.845   2.728  0.6538 -0.0256 -0.6018
 3658TIP3    H132533   6.161   6.760   2.721  1.3517  0.3336 -0.7391
 3658TIP3    H232534   6.102   6.871   2.637  2.4070  0.9670 -0.6515
 3659TIP3   OH232535   0.369   3.858   8.223  0.4025 -0.3477  0.3643
 3659TIP3    H132536   0.281   3.835   8.254  0.3431  0.6105  0.9705
 3659TIP3    H232537   0.368   3.836   8.130 -0.7077  0.2566  0.2074
 3660TIP3   OH232538   5.162   6.503   8.655 -0.4158 -0.3023  0.2580
 3660TIP3    H132539   5.183   6.427   8.709  1.3357 -0.9944 -1.3201
 3660TIP3    H232540   5.144   6.573   8.719 -1.6345 -1.8684  1.7299
 3661TIP3   OH232541   5.841   0.856   6.622  0.1329  0.8622 -0.0507
 3661TIP3    H132542   5.845   0.766   6.590  1.5110  1.3271 -1.3184
 3661TIP3    H232543   5.751   0.883   6.607 -0.4284 -0.4317  0.7772
 3662TIP3   OH232544   1.846   5.093   2.072 -0.4352  0.0440  0.6212
 3662TIP3    H132545   1.772   5.138   2.032  0.2294  0.5753 -0.0518
 3662TIP3    H232546   1.807   5.036   2.138 -1.4991 -0.2218 -0.2058
 3663TIP3   OH232547   5.222   3.399   7.619 -0.0814 -0.2016  0.2819
 3663TIP3    H132548   5.205   3.440   7.534  0.8377 -1.1105 -0.3673
 3663TIP3    H232549   5.224   3.305   7.600 -1.1934 -0.5188  1.5645
 3664TIP3   OH232550   0.324   1.650   2.193 -0.0929 -0.7166 -0.8326
 3664TIP3    H132551   0.321   1.740   2.225  0.8820 -0.7895 -0.4940
 3664TIP3    H232552   0.234   1.618   2.202 -0.1298 -0.2992  0.6105
 3665TIP3   OH232553   2.299   3.854   7.935  0.1617  0.4871 -0.2141
 3665TIP3    H132554   2.387   3.819   7.925 -0.3300 -1.9379  2.6063
 3665TIP3    H232555   2.311   3.937   7.983  0.9355  0.5805 -0.5654
 3666TIP3   OH232556   3.117   6.553   7.033  0.1979 -0.3740  0.4015
 3666TIP3    H132557   3.185   6.557   7.101 -1.0841  2.2770  1.6971
 3666TIP3    H232558   3.112   6.643   7.000 -2.5872 -0.4852  0.2873
 3667TIP3   OH232559   3.560   5.058   1.451  0.5465  0.0702  0.0620
 3667TIP3    H132560   3.560   4.962   1.448  1.3885 -0.0757  2.4129
 3667TIP3    H232561   3.523   5.084   1.367  0.3657 -2.3047 -0.6908
 3668TIP3   OH232562   3.349   5.276   6.894  0.5594  0.2179  0.1517
 3668TIP3    H132563   3.332   5.221   6.971 -0.0218  0.3505  0.1285
 3668TIP3    H232564   3.395   5.352   6.929 -0.0377  0.4561  0.4347
 3669TIP3   OH232565   3.945   4.417   2.013  0.0438 -0.2552  0.6302
 3669TIP3    H132566   3.974   4.496   2.060  0.0003  0.4695 -0.5279
 3669TIP3    H232567   4.024   4.365   2.002  0.5689  0.8074 -0.8056
 3670TIP3   OH232568   2.879   3.383   8.152  0.1450  0.2223 -0.2186
 3670TIP3    H132569   2.831   3.302   8.168  1.0791 -0.7737 -2.1507
 3670TIP3    H232570   2.963   3.355   8.115  2.2711  1.8727  2.8079
 3671TIP3   OH232571   3.105   4.297   8.696 -0.3245 -0.5539 -0.1368
 3671TIP3    H132572   3.046   4.285   8.770 -1.7458 -0.2242 -1.1692
 3671TIP3    H232573   3.051   4.278   8.619  0.9944 -0.4822 -1.1167
 3672TIP3   OH232574   0.009   4.240   0.473 -0.0917 -0.0325 -0.7600
 3672TIP3    H132575   0.069   4.308   0.443  0.8539  0.0402  1.1226
 3672TIP3    H232576  -0.052   4.228   0.400  0.1065  2.3354 -1.4017
 3673TIP3   OH232577   6.708   3.807   8.612  0.0519 -0.0571  0.0663
 3673TIP3    H132578   6.793   3.850   8.616  0.0556 -0.1220  0.8291
 3673TIP3    H232579   6.688   3.786   8.703 -0.1891 -1.2021 -0.2395
 3674TIP3   OH232580   0.799   2.514   6.748 -0.3690 -0.3511  0.2825
 3674TIP3    H132581   0.817   2.533   6.656 -1.1783 -0.0480  0.1807
 3674TIP3    H232582   0.716   2.465   6.747  0.5464 -1.9979  0.7108
 3675TIP3   OH232583   4.290   5.939   7.671  0.0215 -0.1850 -0.1125
 3675TIP3    H132584   4.342   6.015   7.643 -0.0916 -0.4242 -1.0087
 3675TIP3    H232585   4.356   5.875   7.699  0.1262  0.1677  0.4582
 3676TIP3   OH232586   5.803   3.251   0.276 -0.1685 -1.1277  0.3509
 3676TIP3    H132587   5.747   3.296   0.339 -0.0722 -1.5906  0.7782
 3676TIP3    H232588   5.863   3.318   0.244 -0.7715 -0.6912  0.1051
 3677TIP3   OH232589   1.092   5.652   1.336  0.2447  0.0224 -0.2077
 3677TIP3    H132590   1.136   5.580   1.291  1.7387  0.2331  0.8531
 3677TIP3    H232591   1.051   5.612   1.412 -0.7367 -0.0319 -0.7475
 3678TIP3   OH232592   0.496   4.394   1.934  0.4761 -0.1105 -0.4501
 3678TIP3    H132593   0.535   4.428   1.853 -2.2960  1.4835 -1.2684
 3678TIP3    H232594   0.483   4.472   1.989  2.5179 -1.1950  1.7272
 3679TIP3   OH232595   6.344   5.384   0.538  0.1922  0.3441  0.0660
 3679TIP3    H132596   6.359   5.426   0.453 -0.5729 -0.7626 -0.6258
 3679TIP3    H232597   6.391   5.301   0.533 -2.3870 -1.1761 -0.4973
 3680TIP3   OH232598   4.102   4.647   2.155  0.5328  0.3267  0.2194
 3680TIP3    H132599   4.145   4.566   2.127  4.1555  2.2875 -0.5070
 3680TIP3    H232600   4.112   4.648   2.250 -0.2916 -0.4316  0.3245
 3681TIP3   OH232601   1.318   5.339   2.344  0.8726  0.6123 -0.0363
 3681TIP3    H132602   1.230   5.353   2.380  1.1435 -2.0756  1.9367
 3681TIP3    H232603   1.371   5.409   2.382  0.4417 -0.2732  2.3447
 3682TIP3   OH232604   0.773   5.496   0.380  0.6314 -0.3694  0.1252
 3682TIP3    H132605   0.752   5.528   0.293 -0.7607 -2.1805 -0.2565
 3682TIP3    H232606   0.699   5.441   0.405  0.9174  0.2052  2.5395
 3683TIP3   OH232607   4.559   2.884   2.104 -0.6097  0.1318  0.6050
 3683TIP3    H132608   4.563   2.811   2.165  2.3909 -0.0906  0.2869
 3683TIP3    H232609   4.529   2.958   2.157  2.0774  0.0060  2.5181
 3684TIP3   OH232610   5.334   3.290   1.961  0.0775 -0.0551  0.0925
 3684TIP3    H132611   5.286   3.214   1.994 -0.0077 -0.3131 -0.6137
 3684TIP3    H232612   5.353   3.269   1.869 -0.6991  1.1303 -0.3691
 3685TIP3   OH232613   3.378   0.544   8.420  0.1363 -0.0641  0.0162
 3685TIP3    H132614   3.331   0.466   8.446  1.9321 -1.1743  0.1131
 3685TIP3    H232615   3.387   0.536   8.325  0.6802 -0.1949  0.0762
 3686TIP3   OH232616   1.254   3.006   1.074 -0.0246  0.5069  0.1017
 3686TIP3    H132617   1.276   2.916   1.101  1.2600  0.1279 -1.9143
 3686TIP3    H232618   1.336   3.055   1.087  0.1935  0.6398 -1.5634
 3687TIP3   OH232619   0.785   2.574   1.087  0.1891 -0.1964  0.5148
 3687TIP3    H132620   0.792   2.502   1.150  0.7158 -2.3641 -1.8904
 3687TIP3    H232621   0.697   2.608   1.099 -0.6483 -2.2914  0.6494
 3688TIP3   OH232622   3.341   4.063   6.513  0.1071  0.3078  0.1285
 3688TIP3    H132623   3.322   4.072   6.606 -1.2778 -0.2193 -0.0656
 3688TIP3    H232624   3.331   4.152   6.478 -1.4348  0.1947  0.1793
 3689TIP3   OH232625   0.152   4.578   7.083 -0.8559  0.4971 -0.1259
 3689TIP3    H132626   0.190   4.511   7.026  0.3496 -0.4498  1.6804
 3689TIP3    H232627   0.228   4.624   7.119 -1.6398  2.1612 -0.4926
 3690TIP3   OH232628   6.043   6.732   7.958 -0.4524 -0.0119  0.7493
 3690TIP3    H132629   6.116   6.672   7.943 -1.4564 -1.6471  2.0069
 3690TIP3    H232630   6.083   6.818   7.966  1.5659 -1.0296  2.8339
 3691TIP3   OH232631   3.091   6.236   8.611  0.2143  0.4709 -0.1613
 3691TIP3    H132632   3.154   6.302   8.582 -0.4459  1.4994  0.6407
 3691TIP3    H232633   3.084   6.175   8.538  0.2472  1.7489 -1.2736
 3692TIP3   OH232634   2.682   0.067   7.638  0.2284  0.9626  0.2747
 3692TIP3    H132635   2.610   0.030   7.587 -1.8884  3.6406  1.0326
 3692TIP3    H232636   2.753   0.080   7.575 -0.6641  0.0703 -0.9539
 3693TIP3   OH232637   2.796   6.293   1.628  0.2477  0.0904  0.2730
 3693TIP3    H132638   2.784   6.233   1.701 -1.2743 -0.9422 -0.7799
 3693TIP3    H232639   2.707   6.316   1.600  0.7888  1.7626 -0.2253
 3694TIP3   OH232640   2.444   4.978   0.991  0.0236  0.0769 -0.4649
 3694TIP3    H132641   2.530   4.978   0.948  0.0845 -0.9010 -0.3657
 3694TIP3    H232642   2.419   5.070   0.995  0.2688  0.2401 -2.0707
 3695TIP3   OH232643   6.342   4.092   7.437  0.8382  0.7217  0.1156
 3695TIP3    H132644   6.364   4.034   7.510 -4.0583 -2.5134 -0.4657
 3695TIP3    H232645   6.387   4.053   7.362  0.7320  0.0568  0.3878
 3696TIP3   OH232646   0.997   2.073   8.056 -0.1855 -0.5695  0.6154
 3696TIP3    H132647   0.973   2.145   7.997  0.4423 -0.3769  0.5902
 3696TIP3    H232648   0.919   2.019   8.060 -0.4811 -0.1834  0.1889
 3697TIP3   OH232649   4.798   5.841   0.281 -0.0034 -0.3163 -0.0352
 3697TIP3    H132650   4.808   5.775   0.213  0.1163 -0.8300  0.4760
 3697TIP3    H232651   4.805   5.793   0.363  0.8564  0.4377  0.3519
 3698TIP3   OH232652   3.608   1.915   1.459 -0.1029 -0.0135 -0.7405
 3698TIP3    H132653   3.606   2.002   1.499 -0.0456 -0.7706  0.9646
 3698TIP3    H232654   3.544   1.864   1.507  1.0640 -1.3865 -0.5648
 3699TIP3   OH232655   3.335   5.583   1.668  0.1602  0.2750 -0.0288
 3699TIP3    H132656   3.289   5.666   1.660 -0.6889 -0.0032  1.5050
 3699TIP3    H232657   3.265   5.518   1.676  0.7653 -0.2307  1.6559
 3700TIP3   OH232658   5.851   2.369   7.016 -0.4394  0.1898 -0.2466
 3700TIP3    H132659   5.839   2.310   7.090  0.1263 -1.1643 -1.2052
 3700TIP3    H232660   5.941   2.355   6.987 -0.2457  1.6252 -0.4428
 3701TIP3   OH232661   3.069   5.687   8.053 -0.5896  0.0051 -0.4681
 3701TIP3    H132662   3.066   5.648   8.141 -0.6492 -1.3265 -1.0316
 3701TIP3    H232663   3.090   5.614   7.995 -1.3978  0.6843 -1.6709
 3702TIP3   OH232664   4.838   5.872   8.204 -0.1354  0.0265  0.1217
 3702TIP3    H132665   4.822   5.943   8.142 -0.6916 -0.6097 -0.4806
 3702TIP3    H232666   4.751   5.834   8.220 -0.0702  0.4377  1.6177
 3703TIP3   OH232667   1.061   5.237   1.870 -1.1075 -0.2582  0.4516
 3703TIP3    H132668   1.097   5.276   1.950 -1.4781  2.0414 -0.4325
 3703TIP3    H232669   1.135   5.234   1.810 -1.6912  2.0109 -0.4816
 3704TIP3   OH232670   1.509   2.405   8.182  0.1966 -0.4268  0.0893
 3704TIP3    H132671   1.464   2.326   8.214  0.4619  0.1175  1.9480
 3704TIP3    H232672   1.601   2.381   8.182  0.2767 -0.1315  0.6496
 3705TIP3   OH232673   3.908   6.094   7.996  0.2050 -0.2338 -0.7045
 3705TIP3    H132674   3.927   6.184   8.022 -1.4910  0.0962 -0.5057
 3705TIP3    H232675   3.978   6.071   7.936  1.3549  0.7764  0.2078
 3706TIP3   OH232676   0.603   1.521   0.269 -0.3110 -0.4712 -0.0464
 3706TIP3    H132677   0.681   1.493   0.221  1.2996  1.7825  1.0699
 3706TIP3    H232678   0.583   1.448   0.327  0.5389 -1.3558 -0.8274
 3707TIP3   OH232679   4.596   3.323   0.874  1.2124 -0.7998  0.1989
 3707TIP3    H132680   4.630   3.405   0.912  1.1514 -0.0540 -1.2981
 3707TIP3    H232681   4.672   3.265   0.871  1.2366 -0.8639  1.3620
 3708TIP3   OH232682   5.709   2.806   1.295 -0.1579  0.2653 -0.2292
 3708TIP3    H132683   5.705   2.896   1.263 -0.2466  0.7157  1.0050
 3708TIP3    H232684   5.677   2.811   1.385  2.6064 -0.4980  0.8939
 3709TIP3   OH232685   5.971   3.371   7.541 -0.3850  0.2474  0.4371
 3709TIP3    H132686   5.910   3.318   7.489 -0.4443 -0.3082  1.0557
 3709TIP3    H232687   6.021   3.421   7.476 -0.6843 -0.1839 -0.1356
 3710TIP3   OH232688   3.631   0.460   7.559 -0.7227  0.9656 -0.7224
 3710TIP3    H132689   3.577   0.476   7.481  0.1390 -0.8873 -1.7649
 3710TIP3    H232690   3.720   0.479   7.530 -0.4080  0.4078 -0.1374
 3711TIP3   OH232691   4.954   3.874   0.125 -0.1837 -0.0275 -0.7772
 3711TIP3    H132692   4.983   3.892   0.215 -0.3266  0.8245 -0.8901
 3711TIP3    H232693   5.019   3.812   0.091 -0.1338 -0.3704 -0.0878
 3712TIP3   OH232694   3.086   3.083   1.812  0.3602  0.0523 -0.0023
 3712TIP3    H132695   3.177   3.111   1.806  1.0448 -1.7095  1.3048
 3712TIP3    H232696   3.087   3.013   1.877 -2.1263  0.7640  0.9008
 3713TIP3   OH232697   3.579   0.982   7.918  0.0015  0.1517 -0.0379
 3713TIP3    H132698   3.499   0.954   7.963  0.4840  2.0179  2.1506
 3713TIP3    H232699   3.642   0.912   7.935 -0.7048 -0.6198 -0.4980
 3714TIP3   OH232700   1.728   3.658   7.721  0.5232 -0.0971  0.0786
 3714TIP3    H132701   1.738   3.645   7.627 -0.4418  0.4759 -0.1159
 3714TIP3    H232702   1.772   3.582   7.761 -0.2242 -1.0429 -0.8627
 3715TIP3   OH232703   3.078   6.482   7.353  0.4166 -0.4153 -0.0156
 3715TIP3    H132704   3.041   6.530   7.428  0.5293  0.0770 -0.2690
 3715TIP3    H232705   3.020   6.502   7.280  0.7294 -0.2870 -0.2319
 3716TIP3   OH232706   2.737   4.621   7.820 -0.0414 -0.4665 -0.3293
 3716TIP3    H132707   2.686   4.654   7.893  0.9545 -0.6067  0.4460
 3716TIP3    H232708   2.747   4.527   7.838  1.7509 -0.1832  0.3444
 3717TIP3   OH232709   0.375   6.532   8.473  0.1604  0.2113  0.1848
 3717TIP3    H132710   0.380   6.571   8.385 -2.1713  0.8513  0.2704
 3717TIP3    H232711   0.354   6.606   8.531 -0.7675 -0.5862  0.8947
 3718TIP3   OH232712   5.856   0.272   0.286  0.2967  0.6999 -0.3938
 3718TIP3    H132713   5.913   0.349   0.286  0.8892  0.2977 -1.7872
 3718TIP3    H232714   5.916   0.198   0.273 -0.1618 -0.1208  1.7144
 3719TIP3   OH232715   6.016   1.005   0.280  0.2070  0.1497 -0.1851
 3719TIP3    H132716   6.093   0.952   0.301  0.4399  0.2446 -0.7936
 3719TIP3    H232717   5.971   0.955   0.212 -1.0681 -0.6502  1.1820
 3720TIP3   OH232718   0.949   4.092   0.708 -0.4846 -0.0242  0.1810
 3720TIP3    H132719   0.941   4.105   0.613 -0.3718 -1.7444 -0.0864
 3720TIP3    H232720   0.971   4.000   0.718 -0.1691  0.2068  1.8819
 3721TIP3   OH232721   5.688   3.680   6.533  0.3750 -0.4860  0.0038
 3721TIP3    H132722   5.688   3.601   6.588  0.1972 -0.5087 -0.0278
 3721TIP3    H232723   5.781   3.700   6.520  0.4404 -1.3160 -0.8887
 3722TIP3   OH232724   3.591   3.581   7.415  0.1262  0.4730  0.2606
 3722TIP3    H132725   3.538   3.617   7.486  0.7408  0.7754  0.5689
 3722TIP3    H232726   3.607   3.655   7.357  0.1750  0.3709  0.1434
 3723TIP3   OH232727   3.615   4.549   8.552  0.4360 -0.4528  0.2580
 3723TIP3    H132728   3.630   4.519   8.642 -2.2339 -0.6233  0.7364
 3723TIP3    H232729   3.665   4.630   8.545  0.1016 -0.0276  2.1785
 3724TIP3   OH232730   6.668   3.046   8.494  0.4124 -0.0093  0.0814
 3724TIP3    H132731   6.613   3.005   8.427  0.3518 -0.8370  0.6296
 3724TIP3    H232732   6.743   3.080   8.446 -0.1396  0.3546 -0.5538
 3725TIP3   OH232733   5.513   4.381   3.096  0.3440  0.4576 -0.1028
 3725TIP3    H132734   5.507   4.476   3.093  0.2861  0.4376 -0.6877
 3725TIP3    H232735   5.445   4.351   3.036  0.5047  0.0490 -0.0826
 3726TIP3   OH232736   4.427   5.582   7.432 -0.5280 -0.3007  0.2657
 3726TIP3    H132737   4.333   5.598   7.421 -1.0953 -2.5553  1.2556
 3726TIP3    H232738   4.431   5.506   7.489  1.9114 -0.6981 -0.3538
 3727TIP3   OH232739   3.786   0.616   8.113 -0.0970 -0.0561 -0.1027
 3727TIP3    H132740   3.714   0.615   8.050 -2.3741  0.0299  2.3782
 3727TIP3    H232741   3.798   0.708   8.136  0.0947 -0.1763  0.2939
 3728TIP3   OH232742   0.345   6.167   1.879 -0.3440 -0.2598  0.5130
 3728TIP3    H132743   0.279   6.237   1.879  0.9944  1.0507  0.0304
 3728TIP3    H232744   0.329   6.118   1.799  0.2388  1.0408 -0.4284
 3729TIP3   OH232745   5.668   1.294   8.632 -0.0831  0.8977  0.2895
 3729TIP3    H132746   5.596   1.266   8.689  0.9178 -2.0721  0.2441
 3729TIP3    H232747   5.747   1.280   8.685  0.7318  0.0819 -1.1015
 3730TIP3   OH232748   2.980   3.813   0.834  0.0751  0.2999  0.7719
 3730TIP3    H132749   3.059   3.867   0.842 -1.0513  1.9032  1.6454
 3730TIP3    H232750   2.955   3.820   0.742  0.9445 -0.2488  0.4821
 3731TIP3   OH232751   3.090   6.796   7.359 -0.1920 -0.0930  0.1913
 3731TIP3    H132752   3.038   6.824   7.283 -0.2039 -1.3609 -0.2860
 3731TIP3    H232753   3.030   6.742   7.410  0.0677  0.0765  0.6826
 3732TIP3   OH232754   4.117   3.210   1.287  0.7707  0.1157  0.1142
 3732TIP3    H132755   4.154   3.123   1.275 -0.5898 -0.1851 -2.9393
 3732TIP3    H232756   4.032   3.194   1.329  0.7442  0.0121  0.0226
 3733TIP3   OH232757   4.358   5.941   8.607 -0.3274 -0.1152 -0.5621
 3733TIP3    H132758   4.302   5.954   8.683 -0.0525  1.2969 -0.5748
 3733TIP3    H232759   4.447   5.942   8.643 -0.2196 -0.0234 -0.8322
 3734TIP3   OH232760   4.545   4.906   6.560  0.6334  0.3651 -0.1982
 3734TIP3    H132761   4.629   4.865   6.582  0.8584  0.6370 -0.5252
 3734TIP3    H232762   4.508   4.849   6.492  0.5730  0.2696 -0.0856
 3735TIP3   OH232763   5.100   5.561   1.200 -0.4075  0.4705 -1.0822
 3735TIP3    H132764   5.138   5.569   1.112 -0.3466 -0.6514 -1.1713
 3735TIP3    H232765   5.035   5.491   1.192  0.5554 -0.6008  0.0617
 3736TIP3   OH232766   3.093   2.031   6.791  0.7161 -0.5596 -0.8352
 3736TIP3    H132767   3.159   1.981   6.741 -0.5827 -0.6824 -2.5203
 3736TIP3    H232768   3.138   2.113   6.813  2.7187 -2.1645  1.5518
 3737TIP3   OH232769   1.301   3.770   2.869 -0.3643 -0.8093 -0.1723
 3737TIP3    H132770   1.377   3.761   2.926  0.3902 -0.3146 -1.0803
 3737TIP3    H232771   1.242   3.827   2.917 -0.5641 -1.8804  0.9226
 3738TIP3   OH232772   6.241   2.617   1.880 -0.3537  0.0804 -0.6493
 3738TIP3    H132773   6.215   2.651   1.794 -1.3429 -1.3636 -0.9584
 3738TIP3    H232774   6.245   2.695   1.936  1.0946  1.1513 -2.1515
 3739TIP3   OH232775   6.795   0.666   7.646 -0.3516  0.0482 -0.1274
 3739TIP3    H132776   6.836   0.630   7.567 -2.3730 -3.3313  0.1423
 3739TIP3    H232777   6.860   0.653   7.714 -0.2500 -1.3793 -0.4528
 3740TIP3   OH232778   3.980   6.762   1.258 -0.1501  0.3213 -0.9764
 3740TIP3    H132779   3.886   6.745   1.264 -0.4722  2.3608  0.2853
 3740TIP3    H232780   3.988   6.857   1.250  1.8935  0.5933  2.5474
 3741TIP3   OH232781   0.263   0.560   0.366  0.1652 -0.7653 -0.2054
 3741TIP3    H132782   0.357   0.563   0.382  0.2328 -0.5402 -0.6121
 3741TIP3    H232783   0.242   0.648   0.332 -0.0777 -1.0127 -0.7053
 3742TIP3   OH232784   1.111   0.504   1.596 -0.2540  0.4229  0.3565
 3742TIP3    H132785   1.134   0.411   1.594 -1.4997  0.0930  0.3748
 3742TIP3    H232786   1.101   0.525   1.688 -0.0666  0.5504  0.3478
 3743TIP3   OH232787   6.755   2.876   0.770 -0.3931 -0.1247  0.3038
 3743TIP3    H132788   6.705   2.812   0.820 -0.3566 -0.8930 -0.6276
 3743TIP3    H232789   6.699   2.897   0.695  0.5876 -0.8772 -0.6654
 3744TIP3   OH232790   2.004   6.868   0.540  0.2128 -0.2364 -0.0628
 3744TIP3    H132791   2.098   6.858   0.556  0.3962  3.0473  1.7745
 3744TIP3    H232792   1.996   6.872   0.445  1.9858 -0.2202 -0.2478
 3745TIP3   OH232793   3.714   4.485   7.766 -0.2697 -0.0175 -0.3193
 3745TIP3    H132794   3.788   4.484   7.826  0.6232  1.1014 -1.3639
 3745TIP3    H232795   3.640   4.514   7.819  0.1915 -0.3861  0.5412
 3746TIP3   OH232796   4.181   0.366   1.092  0.1385 -0.1017  0.1354
 3746TIP3    H132797   4.172   0.345   0.999 -1.2390 -0.0913  0.2340
 3746TIP3    H232798   4.123   0.303   1.136 -1.3312  1.5682  0.7389
 3747TIP3   OH232799   6.168   3.579   6.576  0.4501  0.2590 -0.9033
 3747TIP3    H132800   6.216   3.500   6.550 -0.7779 -0.7520 -0.1687
 3747TIP3    H232801   6.201   3.600   6.663 -1.1476 -1.0812  0.0784
 3748TIP3   OH232802   0.364   6.856   1.431  0.3973  0.3988  0.7237
 3748TIP3    H132803   0.286   6.911   1.419  0.6136  0.6998  0.6969
 3748TIP3    H232804   0.436   6.918   1.440  1.0245  0.1072 -1.7895
 3749TIP3   OH232805   1.447   0.057   0.751 -0.8828  0.4617 -0.2018
 3749TIP3    H132806   1.468   0.119   0.681 -0.8996  0.8511  0.1306
 3749TIP3    H232807   1.524   0.002   0.759  0.8154  2.8959  2.1200
 3750TIP3   OH232808   5.684   4.710   8.644 -0.0841 -0.3391  0.1140
 3750TIP3    H132809   5.708   4.635   8.698 -0.4979 -0.4783  0.1120
 3750TIP3    H232810   5.625   4.674   8.578  0.7334 -0.2457 -0.6824
 3751TIP3   OH232811   0.819   3.154   7.112 -0.2276 -0.0302 -0.3172
 3751TIP3    H132812   0.894   3.184   7.162 -0.4243 -1.9795  1.2746
 3751TIP3    H232813   0.762   3.231   7.104  0.7938  0.8391  0.6043
 3752TIP3   OH232814   6.563   5.035   7.527  0.3114  0.0202  0.3362
 3752TIP3    H132815   6.588   4.992   7.609 -0.8950 -1.6674 -0.1201
 3752TIP3    H232816   6.637   5.019   7.469  0.2082 -0.8224  0.4171
 3753TIP3   OH232817   0.699   5.037   7.838  0.2728 -0.0898  0.5509
 3753TIP3    H132818   0.679   4.949   7.807 -0.5793 -0.1079  1.1167
 3753TIP3    H232819   0.779   5.061   7.791 -0.0967 -0.7287 -0.4504
 3754TIP3   OH232820   4.296   4.943   8.435  0.5640  0.0734 -0.0178
 3754TIP3    H132821   4.228   4.991   8.388  3.0096  1.1938 -2.7481
 3754TIP3    H232822   4.265   4.852   8.436 -0.5994  0.3740 -2.0534
 3755TIP3   OH232823   2.533   0.119   1.582  0.0827  0.3832 -0.3952
 3755TIP3    H132824   2.582   0.073   1.650 -0.3893 -1.4575 -1.2233
 3755TIP3    H232825   2.538   0.211   1.606  1.9274  0.0096  0.8192
 3756TIP3   OH232826   2.848   0.195   1.160 -0.1032  0.9409  0.2529
 3756TIP3    H132827   2.838   0.113   1.210  0.4096  0.9711  0.4092
 3756TIP3    H232828   2.766   0.242   1.175 -1.0898 -0.2413 -1.1364
 3757TIP3   OH232829   2.507   3.778   0.248 -0.3831  0.0647  0.0949
 3757TIP3    H132830   2.423   3.751   0.286  0.7677 -1.6841  1.5916
 3757TIP3    H232831   2.533   3.855   0.299 -0.8048  0.2720  0.0015
 3758TIP3   OH232832   5.267   6.278   2.681  0.0333 -0.0910 -0.1770
 3758TIP3    H132833   5.349   6.265   2.728 -0.1812  0.4673  0.3714
 3758TIP3    H232834   5.229   6.191   2.673 -0.4510 -0.0954  1.6856
 3759TIP3   OH232835   4.014   0.751   7.686  0.8367 -0.3197  0.0919
 3759TIP3    H132836   4.013   0.841   7.654 -0.3143 -0.4105 -0.1818
 3759TIP3    H232837   4.095   0.744   7.736  0.4015  1.2111  1.0903
 3760TIP3   OH232838   2.765   4.862   2.303  0.5556  0.2083 -0.0455
 3760TIP3    H132839   2.718   4.920   2.243  1.3362  1.4828  0.5136
 3760TIP3    H232840   2.733   4.775   2.283 -0.8036  0.8531 -0.8091
 3761TIP3   OH232841   4.985   1.352   2.385  0.0871  0.3545  0.0024
 3761TIP3    H132842   5.079   1.351   2.403  0.2124  2.0162 -0.3632
 3761TIP3    H232843   4.950   1.280   2.436  1.5305 -0.1573  0.3198
 3762TIP3   OH232844   0.594   4.946   0.119 -0.5960 -0.2936  0.1588
 3762TIP3    H132845   0.605   5.031   0.076 -0.0825 -0.0679  0.7228
 3762TIP3    H232846   0.681   4.925   0.154 -0.0601 -2.2116 -2.0701
 3763TIP3   OH232847   5.131   2.738   8.285 -0.3828  0.0613  0.0269
 3763TIP3    H132848   5.135   2.814   8.226 -1.7412  1.1462  1.2663
 3763TIP3    H232849   5.222   2.719   8.306  0.0149  0.8490 -0.9126
 3764TIP3   OH232850   4.431   6.280   0.111  0.3191  0.0867 -0.0238
 3764TIP3    H132851   4.462   6.246   0.027  2.0095  0.4128  0.4390
 3764TIP3    H232852   4.507   6.324   0.148 -1.0144  1.9115  0.6789
 3765TIP3   OH232853   0.416   3.617   2.065 -0.0683  0.9156 -0.1646
 3765TIP3    H132854   0.432   3.708   2.092  0.3254  0.3341  1.7175
 3765TIP3    H232855   0.465   3.564   2.128 -1.0337 -0.6282 -0.6474
 3766TIP3   OH232856   6.383   2.907   0.794 -0.0228  0.0930  0.3803
 3766TIP3    H132857   6.361   2.994   0.763  0.1869  0.9246  2.4040
 3766TIP3    H232858   6.419   2.921   0.882 -2.1653 -2.1800  1.7538
 3767TIP3   OH232859   2.216   0.332   1.358 -0.0979  0.1696  0.3126
 3767TIP3    H132860   2.142   0.356   1.415 -0.7693  0.0104 -0.4727
 3767TIP3    H232861   2.270   0.411   1.356 -1.3728  1.0652 -0.8208
 3768TIP3   OH232862   6.541   2.460   8.226 -0.5710  0.4880 -0.6528
 3768TIP3    H132863   6.471   2.519   8.254 -0.5113  1.3876 -2.2874
 3768TIP3    H232864   6.621   2.512   8.232 -0.5056  0.5877 -2.0055
 3769TIP3   OH232865   2.379   0.673   6.874  0.2615 -0.5397 -0.7519
 3769TIP3    H132866   2.327   0.754   6.868  0.3502 -0.5776 -2.7553
 3769TIP3    H232867   2.355   0.624   6.795  1.8467 -1.4679 -0.6905
 3770TIP3   OH232868   4.555   1.459   6.655 -0.3661  0.4127 -0.3050
 3770TIP3    H132869   4.491   1.445   6.726  0.9115 -1.4117  0.5562
 3770TIP3    H232870   4.516   1.528   6.602 -2.5022  0.1905  0.8453
 3771TIP3   OH232871   1.802   4.018   7.725 -0.1088 -0.0615  0.0392
 3771TIP3    H132872   1.753   4.099   7.741  1.6469  1.2538 -0.9787
 3771TIP3    H232873   1.756   3.976   7.652  0.1502  1.0844 -0.8084
 3772TIP3   OH232874   3.645   0.927   7.324 -0.0239 -0.0235 -0.0128
 3772TIP3    H132875   3.731   0.885   7.315 -1.1559 -2.7662  1.0641
 3772TIP3    H232876   3.598   0.904   7.245  0.0194  1.0214 -0.3552
 3773TIP3   OH232877   6.125   3.708   1.889 -0.5312  0.0684 -0.5159
 3773TIP3    H132878   6.041   3.755   1.887 -0.3869  0.3343 -0.3579
 3773TIP3    H232879   6.189   3.775   1.910 -0.2764 -0.1369 -0.6380
 3774TIP3   OH232880   1.065   0.308   7.658 -0.0510  0.2720  0.7409
 3774TIP3    H132881   1.027   0.231   7.615  0.1915  0.6891 -0.2274
 3774TIP3    H232882   1.159   0.295   7.652  0.0855  1.9321 -1.8953
 3775TIP3   OH232883   3.540   0.150   8.256 -0.6848  0.5442  0.7016
 3775TIP3    H132884   3.509   0.198   8.179  0.0673  0.1521  0.1495
 3775TIP3    H232885   3.622   0.110   8.229 -1.3918 -1.2547  1.0756
 3776TIP3   OH232886   6.512   6.296   7.286 -0.2851  0.5623 -0.0817
 3776TIP3    H132887   6.576   6.227   7.270 -2.6384 -1.3930 -1.7857
 3776TIP3    H232888   6.552   6.375   7.251  0.9240 -0.7358 -1.7609
 3777TIP3   OH232889   1.187   1.127   0.203  0.2503  0.1015  0.4271
 3777TIP3    H132890   1.264   1.131   0.146  0.0713 -1.0372  0.0764
 3777TIP3    H232891   1.194   1.042   0.246 -1.0021 -0.1766  0.1108
 3778TIP3   OH232892   3.592   5.452   1.360 -0.0751 -0.3583 -1.0224
 3778TIP3    H132893   3.602   5.426   1.452  0.2722  1.3404 -0.5333
 3778TIP3    H232894   3.679   5.442   1.323  0.2153  0.6970 -0.6547
 3779TIP3   OH232895   2.503   4.434   2.147  0.3771  0.5736  0.1747
 3779TIP3    H132896   2.558   4.385   2.086 -0.4043  0.1466 -0.2036
 3779TIP3    H232897   2.462   4.502   2.094  0.5201  0.8721  0.4471
 3780TIP3   OH232898   2.666   2.636   8.159 -0.1057 -0.2342 -0.3515
 3780TIP3    H132899   2.648   2.623   8.252 -1.4009  0.6588 -0.4621
 3780TIP3    H232900   2.652   2.551   8.119 -2.0687 -0.0721 -0.0928
 3781TIP3   OH232901   1.630   5.659   2.077  0.2441 -1.0588  0.5438
 3781TIP3    H132902   1.707   5.654   2.020  1.6003  0.4142  2.1198
 3781TIP3    H232903   1.613   5.753   2.086 -0.6016 -1.2965  1.6785
 3782TIP3   OH232904   2.074   3.055   8.295 -0.4939 -0.2552  0.0432
 3782TIP3    H132905   2.053   2.978   8.349  1.6868 -2.5267 -2.0775
 3782TIP3    H232906   2.068   3.024   8.205 -0.6578  2.4519 -0.9721
 3783TIP3   OH232907   6.048   4.220   7.829  0.3569  0.0631 -0.5171
 3783TIP3    H132908   6.072   4.277   7.756 -2.2006 -0.1554 -1.6062
 3783TIP3    H232909   6.071   4.271   7.907 -0.1745  1.8450 -1.4640
 3784TIP3   OH232910   3.193   3.868   0.365  0.4153  0.0988 -0.7239
 3784TIP3    H132911   3.248   3.933   0.321 -1.5150  2.5117  0.2440
 3784TIP3    H232912   3.156   3.816   0.293  2.9782 -0.9010 -1.4558
 3785TIP3   OH232913   2.332   2.621   7.889 -0.0889 -0.0524  0.6558
 3785TIP3    H132914   2.289   2.683   7.830 -0.1638 -0.8893 -0.2027
 3785TIP3    H232915   2.335   2.665   7.973 -0.3004  1.0397  0.1050
 3786TIP3   OH232916   0.694   0.092   0.264 -0.0016 -0.2963 -0.1024
 3786TIP3    H132917   0.754   0.064   0.195 -0.2718  0.3008 -0.5836
 3786TIP3    H232918   0.725   0.179   0.289  0.6411 -0.8597  1.1688
 3787TIP3   OH232919   4.806   6.198   0.072  0.3957  0.3159  0.4365
 3787TIP3    H132920   4.753   6.277   0.061 -1.6568 -1.0886 -0.4063
 3787TIP3    H232921   4.799   6.177   0.165  0.6619  0.9301  0.5986
 3788TIP3   OH232922   4.304   1.019   6.718  0.3213 -0.0594  0.1817
 3788TIP3    H132923   4.301   0.992   6.627  0.3426  0.0942  0.1351
 3788TIP3    H232924   4.261   0.948   6.766 -2.2462  1.0834 -0.2401
 3789TIP3   OH232925   1.235   2.892   7.909 -0.2220 -0.0616 -0.2261
 3789TIP3    H132926   1.312   2.889   7.966 -0.0569 -1.2753 -0.4835
 3789TIP3    H232927   1.161   2.875   7.968 -0.1952  0.1360 -0.1362
 3790TIP3   OH232928   3.344   2.250   0.815 -0.4034  0.3662 -0.4458
 3790TIP3    H132929   3.297   2.258   0.897 -1.6466 -2.9211 -0.6970
 3790TIP3    H232930   3.437   2.250   0.840 -0.6835  1.4567  0.6717
 3791TIP3   OH232931   2.604   4.614   0.297  0.7235 -0.9278  0.0639
 3791TIP3    H132932   2.698   4.622   0.313  1.0939 -0.2089 -2.1719
 3791TIP3    H232933   2.582   4.527   0.330  2.0434 -0.8724  1.1616
 3792TIP3   OH232934   3.036   5.227   2.760  0.3990  0.4584  0.0905
 3792TIP3    H132935   3.090   5.152   2.736  1.1126  0.5195  1.3735
 3792TIP3    H232936   2.985   5.247   2.682  1.4025 -0.3250 -0.7874
 3793TIP3   OH232937   1.705   0.553   0.983 -0.0711 -0.2687  0.1266
 3793TIP3    H132938   1.635   0.614   0.961 -0.2552 -1.2112 -2.0772
 3793TIP3    H232939   1.786   0.602   0.964 -0.2187 -0.9793 -2.7631
 3794TIP3   OH232940   3.898   4.851   1.388 -0.2848 -0.0626  0.5638
 3794TIP3    H132941   3.946   4.776   1.424  1.6124  0.4179 -0.7832
 3794TIP3    H232942   3.855   4.891   1.463  0.8306 -0.9795  1.7419
 3795TIP3   OH232943   5.147   6.775   1.798  0.0871  0.2889  0.5221
 3795TIP3    H132944   5.093   6.828   1.739  0.6955 -1.7567 -2.0136
 3795TIP3    H232945   5.234   6.814   1.791  0.4994 -0.8438 -1.2151
 3796TIP3   OH232946   3.037   4.599   8.221 -0.1652 -0.1599  0.2064
 3796TIP3    H132947   3.089   4.624   8.144  0.4010 -1.4478  0.1482
 3796TIP3    H232948   3.047   4.504   8.227  1.2151  0.0769  2.8932
 3797TIP3   OH232949   2.622   4.326   7.965 -0.3023  0.0244  0.4789
 3797TIP3    H132950   2.555   4.380   7.924  0.8473  2.2425  1.3728
 3797TIP3    H232951   2.615   4.345   8.058  3.6121  3.0869  0.4213
 3798TIP3   OH232952   6.318   3.772   7.588 -0.2005 -0.0432  0.7761
 3798TIP3    H132953   6.384   3.709   7.617  0.5438  1.1464  1.7873
 3798TIP3    H232954   6.295   3.821   7.667 -0.5811  1.1073 -0.0162
 3799TIP3   OH232955   6.656   0.515   7.416 -0.9984 -0.2439  0.0076
 3799TIP3    H132956   6.687   0.584   7.356 -0.4369 -0.1307  0.4222
 3799TIP3    H232957   6.631   0.443   7.358  1.4300 -0.9137 -0.3352
 3800TIP3   OH232958   2.011   4.891   1.438  0.7567 -0.1023  0.3734
 3800TIP3    H132959   1.937   4.906   1.497 -0.1520 -1.1550 -0.4390
 3800TIP3    H232960   1.971   4.891   1.350  1.4934 -1.8751 -0.0066
 3801TIP3   OH232961   2.841   0.592   1.382  0.2665  0.7548  0.2227
 3801TIP3    H132962   2.913   0.638   1.426  2.4546 -1.4464 -0.8278
 3801TIP3    H232963   2.868   0.586   1.291 -3.1800  3.3066 -1.1448
 3802TIP3   OH232964   5.413   5.384   1.185  0.2133 -0.0764 -0.2444
 3802TIP3    H132965   5.388   5.345   1.101 -2.0862 -0.2260  0.4439
 3802TIP3    H232966   5.351   5.347   1.248  0.7871  1.3367  1.2223
 3803TIP3   OH232967   2.859   5.404   1.142 -0.3963 -0.2083 -0.4828
 3803TIP3    H132968   2.821   5.344   1.206 -0.1729  0.2160  0.0520
 3803TIP3    H232969   2.952   5.379   1.139 -0.2479  0.2924 -0.0545
 3804TIP3   OH232970   2.792   1.013   0.371 -0.1147 -0.6852  0.1145
 3804TIP3    H132971   2.812   0.979   0.283  1.6657 -0.6314  0.4542
 3804TIP3    H232972   2.854   1.085   0.383 -1.0287 -0.0401  1.0332
 3805TIP3   OH232973   0.783   4.259   1.234 -0.1698  1.0834  0.0078
 3805TIP3    H132974   0.797   4.221   1.147 -0.5838  1.1941 -0.1116
 3805TIP3    H232975   0.862   4.310   1.251  0.2874  0.3629  0.0681
 3806TIP3   OH232976   2.607   0.548   6.230 -0.2493 -0.0298 -0.1469
 3806TIP3    H132977   2.572   0.459   6.224 -0.4836  0.0028  0.5992
 3806TIP3    H232978   2.531   0.601   6.253 -0.4861  0.6552 -2.2492
 3807TIP3   OH232979   5.674   6.727   7.481  0.0397 -0.4701  0.0364
 3807TIP3    H132980   5.756   6.715   7.432 -0.6529  1.2966 -1.7415
 3807TIP3    H232981   5.610   6.749   7.413 -1.8075 -1.2880  1.4461
 3808TIP3   OH232982   3.953   5.885   6.832  0.4799 -0.2798 -0.1628
 3808TIP3    H132983   3.865   5.911   6.859  0.9593 -0.2876  1.5181
 3808TIP3    H232984   3.949   5.789   6.827  0.6639 -0.3752  1.0748
 3809TIP3   OH232985   5.879   2.602   0.654 -1.2347  0.1261 -0.2209
 3809TIP3    H132986   5.932   2.549   0.595 -1.1098  0.8111 -0.7374
 3809TIP3    H232987   5.826   2.657   0.596 -1.6525  0.2833  0.2995
 3810TIP3   OH232988   2.633   6.787   1.820  0.8387  0.3153  0.0945
 3810TIP3    H132989   2.615   6.879   1.840  2.2467  0.9734 -1.4238
 3810TIP3    H232990   2.726   6.785   1.796  0.5420 -1.2683 -1.1241
 3811TIP3   OH232991   1.741   3.689   0.046  0.0797 -0.4635  0.2949
 3811TIP3    H132992   1.743   3.747  -0.030 -1.7033 -1.6571 -0.7426
 3811TIP3    H232993   1.823   3.708   0.092  0.9376  0.7539 -1.5627
 3812TIP3   OH232994   0.946   4.303   1.830  0.0979 -0.6848  0.0377
 3812TIP3    H132995   1.039   4.324   1.837 -0.4789  1.7697  1.8567
 3812TIP3    H232996   0.936   4.223   1.882  0.8921  0.4612  2.1111
 3813TIP3   OH232997   5.092   5.967   1.555 -0.2130 -0.1514 -0.1210
 3813TIP3    H132998   5.049   6.030   1.496 -0.6759  0.1361  0.4990
 3813TIP3    H232999   5.127   5.900   1.498 -0.5934  0.1576 -0.7299
 3814TIP3   OH233000   1.010   3.988   7.294  0.0898 -0.5612 -0.3705
 3814TIP3    H133001   1.006   3.911   7.237  0.8134 -0.6941 -0.2447
 3814TIP3    H233002   0.922   3.994   7.332  0.2598 -1.8417  0.2818
 3815TIP3   OH233003   1.546   3.317   2.278 -0.3442 -0.3982 -0.1806
 3815TIP3    H133004   1.614   3.254   2.255 -1.3498 -1.7532  0.4284
 3815TIP3    H233005   1.514   3.288   2.364  0.7413  2.3206  1.2799
 3816TIP3   OH233006   6.871   5.966   7.733  0.1871 -0.8273  0.2408
 3816TIP3    H133007   6.879   6.023   7.657 -0.7489 -0.3703  0.4666
 3816TIP3    H233008   6.961   5.941   7.755  0.4366 -1.5728 -1.4546
 3817TIP3   OH233009   1.225   0.538   7.915 -0.1621  0.4108  0.4629
 3817TIP3    H133010   1.188   0.621   7.943  0.3168  0.5666  0.6521
 3817TIP3    H233011   1.195   0.474   7.979  2.0134  0.9853  2.1959
 3818TIP3   OH233012   3.947   1.838   1.738 -0.8659  0.4426  0.1508
 3818TIP3    H133013   3.894   1.873   1.809  0.2826  0.3673  1.0880
 3818TIP3    H233014   3.960   1.746   1.760  0.4223  0.6741  0.4638
 3819TIP3   OH233015   3.688   5.676   2.243 -0.5551  1.1040 -0.2079
 3819TIP3    H133016   3.724   5.704   2.327 -0.1328 -1.6712  0.6563
 3819TIP3    H233017   3.647   5.591   2.262 -2.4392  1.4161 -2.3741
 3820TIP3   OH233018   3.358   2.703   0.576  0.2792  0.1483  0.3390
 3820TIP3    H133019   3.278   2.751   0.552  0.6272  0.6420  0.1426
 3820TIP3    H233020   3.344   2.676   0.666  0.9712  2.5450  1.2403
 3821TIP3   OH233021   3.559   2.597   8.233  0.2971  0.1457 -0.4462
 3821TIP3    H133022   3.580   2.610   8.325  0.0105  1.3824 -0.5333
 3821TIP3    H233023   3.568   2.503   8.219  2.5928  0.2016  0.2989
 3822TIP3   OH233024   4.815   0.833   0.747 -0.1569 -0.1999  0.2969
 3822TIP3    H133025   4.723   0.858   0.743 -0.4158 -1.1634 -0.0603
 3822TIP3    H233026   4.825   0.768   0.677  1.0589  0.6954 -0.4007
 3823TIP3   OH233027   2.937   6.848   2.162 -0.7516  0.1791  0.1824
 3823TIP3    H133028   2.887   6.790   2.220 -0.4473 -0.7116 -0.4332
 3823TIP3    H233029   3.007   6.882   2.217  0.2157 -1.5489  0.0809
 3824TIP3   OH233030   5.223   4.789   8.145 -0.7435  0.4982  0.2866
 3824TIP3    H133031   5.310   4.787   8.105 -0.9288 -1.7665 -0.1143
 3824TIP3    H233032   5.163   4.779   8.072 -1.2290 -0.2005  0.7660
 3825TIP3   OH233033   1.632   4.676   7.386  0.4897  0.1798  0.0055
 3825TIP3    H133034   1.614   4.720   7.304  0.3938  1.7174  0.8184
 3825TIP3    H233035   1.727   4.662   7.386  0.5285  0.4489 -0.2270
 3826TIP3   OH233036   1.065   0.922   1.541  0.0191  0.0932 -0.1481
 3826TIP3    H133037   1.035   0.926   1.631  1.3825  1.4801  0.2863
 3826TIP3    H233038   1.042   1.008   1.504  1.5955  0.4531 -0.3712
 3827TIP3   OH233039   5.108   6.291   0.106 -0.2218  0.1353  0.8750
 3827TIP3    H133040   5.116   6.223   0.173  0.0277  0.0892  0.7991
 3827TIP3    H233041   5.020   6.280   0.071  0.4594 -1.4362 -0.5231
 3828TIP3   OH233042   3.979   1.932   7.242  0.5369 -0.0189 -0.7032
 3828TIP3    H133043   3.956   1.920   7.334 -1.7422 -0.7512 -1.3054
 3828TIP3    H233044   4.048   1.867   7.227  0.2885 -0.5332  0.2576
 3829TIP3   OH233045   4.608   1.561   0.207 -0.3305  0.2837  0.1328
 3829TIP3    H133046   4.679   1.512   0.165 -0.5036 -0.3008  0.5154
 3829TIP3    H233047   4.577   1.503   0.277 -0.3654  1.0449  0.7587
 3830TIP3   OH233048   0.599   0.514   1.687  0.1383  0.5264  0.3276
 3830TIP3    H133049   0.658   0.440   1.677  0.8858  1.4261 -3.8606
 3830TIP3    H233050   0.511   0.475   1.692  0.4515 -0.7413 -2.4778
 3831TIP3   OH233051   2.482   6.363   2.552 -0.1276  0.2538 -0.0993
 3831TIP3    H133052   2.564   6.413   2.561 -0.0487  0.1285 -0.1279
 3831TIP3    H233053   2.416   6.429   2.530 -0.8362  1.0429  3.6111
 3832TIP3   OH233054   0.511   0.816   0.436 -0.4765  0.4650 -0.4078
 3832TIP3    H133055   0.585   0.772   0.394 -0.4920  0.4391 -0.4074
 3832TIP3    H233056   0.550   0.859   0.512  0.0995  2.7349 -1.8497
 3833TIP3   OH233057   5.401   4.056   1.529  0.0963 -0.1823  0.1650
 3833TIP3    H133058   5.381   4.067   1.622 -0.2499  5.2648 -0.2207
 3833TIP3    H233059   5.337   4.112   1.485  0.8625 -1.8401 -3.3481
 3834TIP3   OH233060   1.922   6.760   1.909  0.0061 -0.3329 -0.2469
 3834TIP3    H133061   1.966   6.684   1.946 -1.0215 -1.1967 -0.7507
 3834TIP3    H233062   1.931   6.749   1.814  0.5278  0.5986 -0.3226
 3835TIP3   OH233063   2.635   5.911   2.602  0.3818 -0.1453  0.4920
 3835TIP3    H133064   2.573   5.870   2.662  0.5687  0.7073  1.2974
 3835TIP3    H233065   2.720   5.877   2.630  0.2350 -2.3123 -1.4190
 3836TIP3   OH233066   1.222   2.778   6.749  0.1432  0.1136 -0.2289
 3836TIP3    H133067   1.235   2.868   6.779  2.6002 -0.0607 -0.4917
 3836TIP3    H233068   1.164   2.786   6.674 -1.6536  1.1682  1.1864
 3837TIP3   OH233069   0.074   3.162   7.183 -0.1012  0.0867 -0.3967
 3837TIP3    H133070  -0.017   3.190   7.170 -0.4277 -1.5356 -2.1400
 3837TIP3    H233071   0.109   3.152   7.095  1.4198 -0.4211  0.2281
 3838TIP3   OH233072   5.071   4.668   0.614  0.0770 -0.4968  0.5800
 3838TIP3    H133073   5.024   4.721   0.679 -1.7394 -0.3333 -0.7659
 3838TIP3    H233074   5.127   4.730   0.568  1.7937 -0.7061  2.2604
 3839TIP3   OH233075   6.834   0.653   0.867  0.0594 -0.3855  0.1441
 3839TIP3    H133076   6.874   0.718   0.925 -0.9563  0.2447  0.1619
 3839TIP3    H233077   6.799   0.587   0.927 -1.6411  0.6320  0.3488
 3840TIP3   OH233078   2.570   3.980   1.009 -0.5223 -0.5921 -0.1998
 3840TIP3    H133079   2.565   4.070   1.042 -1.0612 -0.4711 -0.6028
 3840TIP3    H233080   2.659   3.951   1.032 -0.6125 -0.2349  0.6421
 3841TIP3   OH233081   1.964   4.627   7.534  0.0588 -0.4453 -0.1011
 3841TIP3    H133082   2.018   4.604   7.459  0.4178 -1.6267  0.4972
 3841TIP3    H233083   1.962   4.723   7.533 -0.5460 -0.4405 -2.0019
 3842TIP3   OH233084   2.786   3.895   0.342  0.1880  0.0031 -0.1400
 3842TIP3    H133085   2.819   3.900   0.432 -1.0296 -0.0225  0.3331
 3842TIP3    H233086   2.705   3.945   0.344  1.2266  1.8586 -1.7865
 3843TIP3   OH233087   0.152   3.893   7.839  0.0816  0.3373 -0.0823
 3843TIP3    H133088   0.075   3.865   7.789  0.4899  0.5203 -0.8316
 3843TIP3    H233089   0.218   3.912   7.772  0.9806 -0.3935  0.5767
 3844TIP3   OH233090   5.203   4.165   0.021  0.0139  0.2051 -0.3438
 3844TIP3    H133091   5.236   4.244   0.063 -0.8483  0.2666  0.2476
 3844TIP3    H233092   5.281   4.112   0.004  0.5571  1.0144 -0.4014
 3845TIP3   OH233093   1.675   2.295   0.183  0.4864  0.3015  0.5156
 3845TIP3    H133094   1.726   2.220   0.216 -0.0230  0.1661  1.0239
 3845TIP3    H233095   1.686   2.362   0.251 -1.7827 -0.4870  1.7920
 3846TIP3   OH233096   2.791   4.525   8.676 -0.3762 -0.2918 -0.0980
 3846TIP3    H133097   2.755   4.559   8.594  1.0238 -2.3088 -1.6215
 3846TIP3    H233098   2.881   4.556   8.678 -0.8248  1.0661  1.5349
 3847TIP3   OH233099   2.894   0.179   7.506 -0.2519  0.3986 -0.0514
 3847TIP3    H133100   2.940   0.262   7.507 -1.1033  0.8884  1.1966
 3847TIP3    H233101   2.871   0.165   7.414  0.0392  1.4647 -0.2998
 3848TIP3   OH233102   0.909   0.945   1.771 -0.3816 -0.3850  0.0327
 3848TIP3    H133103   0.936   0.903   1.852  1.4455  0.8012  0.0970
 3848TIP3    H233104   0.828   0.900   1.746 -1.1784 -0.5551  2.6547
 3849TIP3   OH233105   4.516   4.771   8.599 -0.0756  0.0325 -0.2428
 3849TIP3    H133106   4.442   4.748   8.656  0.1600  0.1661  0.1222
 3849TIP3    H233107   4.577   4.816   8.657 -0.1244  0.7577 -0.7473
 3850TIP3   OH233108   5.861   5.938   2.423 -0.3795  0.7905  0.3889
 3850TIP3    H133109   5.869   6.029   2.452  0.7234  0.3403  1.5499
 3850TIP3    H233110   5.921   5.889   2.478  0.6365 -0.3499 -1.6277
 3851TIP3   OH233111   5.334   5.473   7.814 -0.0515 -0.4940  0.2057
 3851TIP3    H133112   5.338   5.503   7.905  0.3305 -1.7074  0.6071
 3851TIP3    H233113   5.414   5.422   7.802  1.1333  1.6369 -1.5725
 3852TIP3   OH233114   2.119   6.547   0.701  0.6311  0.1681  0.3415
 3852TIP3    H133115   2.092   6.572   0.613 -0.4359  0.2132  0.6727
 3852TIP3    H233116   2.159   6.461   0.690  0.1060 -0.0197 -0.1176
 3853TIP3   OH233117   3.933   2.635   8.285 -0.0085 -0.9003 -0.7215
 3853TIP3    H133118   3.890   2.719   8.269  0.1480 -0.4770  0.8470
 3853TIP3    H233119   3.877   2.570   8.243 -0.4442 -0.0672 -1.4553
 3854TIP3   OH233120   2.720   6.002   0.672  0.2443 -0.1908  0.2995
 3854TIP3    H133121   2.654   6.037   0.732 -0.9392 -0.5742 -0.7290
 3854TIP3    H233122   2.762   6.080   0.635  0.6689  0.0513  1.2689
 3855TIP3   OH233123   2.063   2.838   8.049  0.5302 -0.2322  0.4069
 3855TIP3    H133124   2.062   2.755   8.002 -0.4042 -0.5756  1.0155
 3855TIP3    H233125   1.978   2.843   8.092  1.1394  0.3306  1.6034
 3856TIP3   OH233126   6.377   4.871   7.867 -0.6466 -0.6601  0.1500
 3856TIP3    H133127   6.439   4.840   7.801 -1.5198 -1.2073 -0.4286
 3856TIP3    H233128   6.308   4.914   7.818  0.6670  2.6698  0.9315
 3857TIP3   OH233129   4.710   0.458   8.002 -0.2607  0.2741  0.0738
 3857TIP3    H133130   4.688   0.366   8.012 -1.0529  0.4344 -0.1462
 3857TIP3    H233131   4.658   0.503   8.068 -0.8599  0.6905 -0.6628
 3858TIP3   OH233132   5.522   4.911   7.708  0.2185  0.1935 -0.5321
 3858TIP3    H133133   5.485   4.992   7.674 -1.3003 -0.3909 -0.3564
 3858TIP3    H233134   5.514   4.849   7.635 -0.1419 -0.2239 -0.1441
 3859TIP3   OH233135   4.972   4.067   2.011 -0.3382 -0.2386 -0.0533
 3859TIP3    H133136   4.971   4.084   2.105  0.1699  2.2311 -0.4280
 3859TIP3    H233137   5.059   4.094   1.982 -1.3561  1.6585 -1.6058
 3860TIP3   OH233138   3.439   3.767   7.948  0.2775 -0.3176 -0.5965
 3860TIP3    H133139   3.399   3.804   7.870 -1.7192 -0.4985  0.2692
 3860TIP3    H233140   3.382   3.795   8.020  1.4890 -0.9706  0.6817
 3861TIP3   OH233141   4.316   4.077   7.354 -0.4951 -0.1825 -0.0706
 3861TIP3    H133142   4.289   4.160   7.314  0.7579  0.6872  0.8035
 3861TIP3    H233143   4.238   4.022   7.349 -1.1366  0.7715 -1.3546
 3862TIP3   OH233144   2.993   5.229   3.029  0.3022 -0.7058 -0.6583
 3862TIP3    H133145   2.989   5.235   2.934 -1.3604  1.8866 -0.5323
 3862TIP3    H233146   2.932   5.159   3.052 -0.9480  0.0780 -1.4647
 3863TIP3   OH233147   4.545   6.066   1.098 -0.2779  0.0965 -0.0836
 3863TIP3    H133148   4.524   5.992   1.155 -2.1770 -0.3571 -1.3138
 3863TIP3    H233149   4.513   6.142   1.146  0.9188  0.0824  0.7999
 3864TIP3   OH233150   6.410   5.392   8.115 -0.2600 -0.0142  0.0334
 3864TIP3    H133151   6.496   5.386   8.158 -0.1552 -1.1844 -0.3199
 3864TIP3    H233152   6.373   5.304   8.123  0.2748 -0.6651 -3.3340
 3865TIP3   OH233153   1.502   0.783   2.032 -0.7305 -0.2578  0.0447
 3865TIP3    H133154   1.483   0.840   1.957 -0.1893  0.3292  0.3510
 3865TIP3    H233155   1.451   0.704   2.014 -1.4695  0.3028 -0.3997
 3866TIP3   OH233156   3.311   4.758   1.960  0.2268 -0.2293 -0.4091
 3866TIP3    H133157   3.352   4.781   2.043 -0.7167 -0.3745  0.1185
 3866TIP3    H233158   3.265   4.838   1.933  1.9889  0.4123 -1.7451
 3867TIP3   OH233159   5.398   2.106   7.977 -0.5183 -0.4170  0.1948
 3867TIP3    H133160   5.307   2.097   7.950 -0.2861  0.0072 -0.7419
 3867TIP3    H233161   5.408   2.198   7.999 -0.7370 -0.7684  1.9180
 3868TIP3   OH233162   3.080   1.598   0.809 -0.2558 -1.0655  0.4490
 3868TIP3    H133163   3.072   1.587   0.714 -0.8238 -1.5146  0.5425
 3868TIP3    H233164   3.174   1.603   0.825 -0.1051 -2.2153 -0.0134
 3869TIP3   OH233165   0.632   0.755   8.543  0.4620  0.3620 -0.2441
 3869TIP3    H133166   0.659   0.721   8.628 -0.5077  2.1630  0.8485
 3869TIP3    H233167   0.694   0.717   8.481  1.3252 -0.8259  1.2717
 3870TIP3   OH233168   3.406   3.369   1.867 -0.1245  0.1635  0.4212
 3870TIP3    H133169   3.390   3.297   1.806  0.9318  0.7202 -0.5461
 3870TIP3    H233170   3.328   3.424   1.860 -1.3179 -1.2788  1.7917
 3871TIP3   OH233171   3.258   2.574   8.191 -0.1074  0.6168  0.2821
 3871TIP3    H133172   3.350   2.566   8.217  0.4766 -1.8472 -2.0555
 3871TIP3    H233173   3.261   2.604   8.100 -1.5188 -0.9978 -0.3446
 3872TIP3   OH233174   3.608   0.446   1.574 -0.1408 -0.2868  0.1451
 3872TIP3    H133175   3.609   0.364   1.523  0.9007 -0.7062  0.7973
 3872TIP3    H233176   3.517   0.456   1.602 -0.6563 -0.2758 -1.4003
 3873TIP3   OH233177   4.016   6.133   0.301 -0.1874 -0.6060  0.2759
 3873TIP3    H133178   4.096   6.124   0.352 -0.6584 -0.3246  1.0808
 3873TIP3    H233179   3.990   6.224   0.314  0.4680 -0.0819 -1.6682
 3874TIP3   OH233180   0.987   3.096   6.607 -0.1628 -0.1738  0.3890
 3874TIP3    H133181   1.035   3.081   6.688  1.8631  2.7760 -0.1153
 3874TIP3    H233182   1.053   3.122   6.543 -1.9568 -0.1420 -1.5980
 3875TIP3   OH233183   4.116   2.112   7.870  0.4511  0.2456 -0.6443
 3875TIP3    H133184   4.186   2.177   7.869 -0.4318  1.3246  1.4438
 3875TIP3    H233185   4.145   2.047   7.935 -1.0728  1.5179  1.4334
 3876TIP3   OH233186   5.302   0.184   2.564  0.3111 -0.5243 -0.0572
 3876TIP3    H133187   5.352   0.166   2.643  1.1045 -0.1756 -0.4667
 3876TIP3    H233188   5.241   0.111   2.557  0.8826 -1.0521  0.3596
 3877TIP3   OH233189   0.880   1.467   6.990 -0.2656 -0.1018 -0.1390
 3877TIP3    H133190   0.894   1.547   6.941 -0.0914  0.0418  0.1425
 3877TIP3    H233191   0.794   1.435   6.961 -1.2666  1.2486  1.2017
 3878TIP3   OH233192   5.200   6.548   8.107  0.4385  0.7347 -0.4536
 3878TIP3    H133193   5.152   6.559   8.189  0.2647  0.8612 -0.5712
 3878TIP3    H233194   5.160   6.471   8.066  2.4479 -1.1685  0.9282
 3879TIP3   OH233195   0.230   0.008   1.169  0.7901  0.6446 -0.2631
 3879TIP3    H133196   0.247  -0.015   1.077  2.2428 -1.7892  0.5111
 3879TIP3    H233197   0.309  -0.019   1.216 -0.2367  1.0237  1.8166
 3880TIP3   OH233198   3.279   5.574   2.060 -0.1023 -0.2720  0.1467
 3880TIP3    H133199   3.218   5.613   1.998 -0.7733 -0.6620  0.5535
 3880TIP3    H233200   3.349   5.639   2.068 -1.7466  1.4159  1.6998
 3881TIP3   OH233201   2.607   3.669   2.379  0.3138 -0.2876  0.0832
 3881TIP3    H133202   2.516   3.672   2.408  1.5113  0.8082  4.3496
 3881TIP3    H233203   2.642   3.756   2.398  3.1407 -1.7369  2.4192
 3882TIP3   OH233204   1.323   0.851   0.329 -0.3104 -0.0925  0.3343
 3882TIP3    H133205   1.321   0.833   0.235 -3.2846 -0.4106  0.3628
 3882TIP3    H233206   1.395   0.798   0.362  1.2682  0.5561 -1.8169
 3883TIP3   OH233207   2.512   6.012   7.666 -0.0003  0.1375  0.1978
 3883TIP3    H133208   2.490   6.054   7.583  0.4314 -1.2241 -0.6507
 3883TIP3    H233209   2.544   5.925   7.641  4.0770  1.0676  1.4400
 3884TIP3   OH233210   5.783   3.916   2.550  0.5220 -0.2559  0.0432
 3884TIP3    H133211   5.861   3.894   2.500  0.6345  0.1799  0.0199
 3884TIP3    H233212   5.816   3.949   2.634  0.3314 -1.1707  0.4881
 3885TIP3   OH233213   0.562   6.333   1.453  0.3207  0.7432  0.2151
 3885TIP3    H133214   0.471   6.317   1.426  0.6415 -0.9685  0.0770
 3885TIP3    H233215   0.583   6.261   1.511  1.9935  0.4156 -0.7428
 3886TIP3   OH233216   0.814   0.334   1.991  0.1233 -0.6013 -0.3215
 3886TIP3    H133217   0.851   0.272   2.054  0.5530 -1.7551 -1.6569
 3886TIP3    H233218   0.721   0.340   2.015  0.1467 -1.5106  0.0462
 3887TIP3   OH233219   0.221   4.481   8.107  0.2766  0.3636 -0.0194
 3887TIP3    H133220   0.300   4.498   8.056  0.9353 -0.2509  0.7593
 3887TIP3    H233221   0.203   4.563   8.152  0.1169  0.6884 -0.6729
 3888TIP3   OH233222   2.445   3.754   2.110 -0.1263  0.3388  0.0721
 3888TIP3    H133223   2.433   3.779   2.202  0.4408 -0.4517  0.3764
 3888TIP3    H233224   2.530   3.790   2.085 -0.3639  0.7141 -0.2048
 3889TIP3   OH233225   4.379   1.023   8.447  0.4301 -0.1001 -0.1499
 3889TIP3    H133226   4.348   1.039   8.357  0.0173 -0.9598 -0.1663
 3889TIP3    H233227   4.320   0.956   8.481  1.0894 -0.3585  0.4945
 3890TIP3   OH233228   0.267   6.035   0.787 -0.0594  0.0265  0.5212
 3890TIP3    H133229   0.173   6.053   0.785 -0.0834  0.0956  1.4361
 3890TIP3    H233230   0.303   6.103   0.845  0.2072 -1.3330  2.0437
 3891TIP3   OH233231   2.099   5.088   0.015  0.9027  0.0771 -0.3532
 3891TIP3    H133232   2.011   5.097  -0.020  0.4550  3.2860  1.2428
 3891TIP3    H233233   2.139   5.019  -0.038 -1.5409  0.6630 -3.2117
 3892TIP3   OH233234   3.394   1.001   7.400  0.1288 -0.0407  0.0009
 3892TIP3    H133235   3.381   1.027   7.491  0.5906  1.6924 -0.3780
 3892TIP3    H233236   3.488   1.014   7.386  0.1372 -0.7356 -0.5965
 3893TIP3   OH233237   0.359   6.625   6.765 -0.5521 -0.2295  0.1104
 3893TIP3    H133238   0.336   6.699   6.821 -2.6338 -0.7886  0.0941
 3893TIP3    H233239   0.317   6.645   6.681 -0.3866 -0.9968 -0.1636
 3894TIP3   OH233240   3.052   1.384   0.604 -0.6057 -0.4419 -0.2402
 3894TIP3    H133241   3.077   1.459   0.550 -1.0002  0.6620  1.0599
 3894TIP3    H233242   3.000   1.329   0.545  0.8686 -0.4404 -1.6186
 3895TIP3   OH233243   0.969   4.395   0.645  0.0416  0.4380  0.1408
 3895TIP3    H133244   0.968   4.301   0.662 -4.2306  0.2493 -0.0190
 3895TIP3    H233245   1.023   4.431   0.716 -0.5212 -1.9331  1.9327
 3896TIP3   OH233246   1.868   2.688   6.684 -0.3933  0.1406 -0.4370
 3896TIP3    H133247   1.935   2.732   6.632  0.1626 -0.2119 -0.0350
 3896TIP3    H233248   1.805   2.756   6.705 -0.2829  0.4266 -1.0232
 3897TIP3   OH233249   1.070   1.723   7.701  0.2411  0.6566  0.7693
 3897TIP3    H133250   1.000   1.772   7.743 -0.1712  2.9292 -2.2239
 3897TIP3    H233251   1.145   1.782   7.702  1.4131 -0.7851  1.7506
 3898TIP3   OH233252   3.841   2.830   2.171  0.0831 -0.5135 -0.0435
 3898TIP3    H133253   3.845   2.913   2.124 -3.9112 -0.8202 -1.2935
 3898TIP3    H233254   3.787   2.849   2.248  1.2651 -1.4406  1.0570
 3899TIP3   OH233255   2.106   1.738   0.873  0.2319 -0.1693  0.2133
 3899TIP3    H133256   2.086   1.772   0.785 -0.3490 -0.2084  0.3213
 3899TIP3    H233257   2.201   1.736   0.877  0.3537  2.6222  0.6341
 3900TIP3   OH233258   4.319   5.983   6.555 -0.1555  0.0508 -0.2984
 3900TIP3    H133259   4.304   5.889   6.549 -0.2565  0.0702 -0.3491
 3900TIP3    H233260   4.361   6.006   6.472  0.5061 -0.0700 -0.0014
 3901TIP3   OH233261   6.076   5.611   6.999 -0.9629 -0.2448  0.2810
 3901TIP3    H133262   6.160   5.637   7.037 -0.5093  0.2278 -0.9858
 3901TIP3    H233263   6.029   5.694   6.985 -0.8628 -0.3495 -0.7394
 3902TIP3   OH233264   0.579   6.812   6.621  0.4526 -0.0765  0.0899
 3902TIP3    H133265   0.508   6.857   6.576  1.5492  0.3377 -1.2996
 3902TIP3    H233266   0.580   6.724   6.581  1.0699  0.1117 -0.3349
 3903TIP3   OH233267   4.634   6.093   0.256 -0.0435 -0.2679 -0.0149
 3903TIP3    H133268   4.658   6.010   0.297  2.4613  0.5466  0.3712
 3903TIP3    H233269   4.591   6.068   0.174  0.8317 -1.9588  0.0000
 3904TIP3   OH233270   4.736   4.312   8.361  0.2248  0.6011 -0.0602
 3904TIP3    H133271   4.678   4.387   8.375 -2.1521 -1.0960 -0.2430
 3904TIP3    H233272   4.823   4.345   8.383 -1.0451  2.7238  2.3524
 3905TIP3   OH233273   2.379   3.021   7.561  0.3098  0.3535  0.1136
 3905TIP3    H133274   2.463   2.979   7.543  0.8138  0.4796  1.9779
 3905TIP3    H233275   2.314   2.956   7.536  0.9470  0.1607 -1.1314
 3906TIP3   OH233276   2.483   5.055   0.653 -0.4140 -0.8883 -0.5746
 3906TIP3    H133277   2.557   5.007   0.692  0.0243 -1.3447 -1.9039
 3906TIP3    H233278   2.435   4.988   0.604 -0.6669 -0.2502 -1.2062
 3907TIP3   OH233279   6.244   6.036   6.692 -0.1788 -0.3248  0.0192
 3907TIP3    H133280   6.184   6.097   6.650 -0.7926  0.1743  1.5461
 3907TIP3    H233281   6.198   5.952   6.690 -0.2158 -0.2963 -0.2770
 3908TIP3   OH233282   4.633   3.862   1.200  0.4720 -0.3315  0.1728
 3908TIP3    H133283   4.633   3.841   1.294  1.8216 -1.7113 -0.0970
 3908TIP3    H233284   4.598   3.784   1.158  2.2649 -0.7516 -0.6295
 3909TIP3   OH233285   5.241   0.528   8.669 -0.9380 -0.1542  0.1534
 3909TIP3    H133286   5.236   0.454   8.729  0.1292 -1.6820 -1.5092
 3909TIP3    H233287   5.232   0.605   8.724 -1.0192 -1.4893  2.1043
 3910TIP3   OH233288   0.606   0.141   7.037 -0.6909  0.3620  0.0683
 3910TIP3    H133289   0.514   0.116   7.029 -0.7949  0.9868 -0.8924
 3910TIP3    H233290   0.622   0.198   6.961  0.5210  0.1574  0.1534
 3911TIP3   OH233291   4.221   3.866   8.207  0.5435  0.2864  0.0728
 3911TIP3    H133292   4.300   3.854   8.261  1.0855  0.8359 -0.5791
 3911TIP3    H233293   4.150   3.875   8.271  0.7362 -1.7840  0.6719
 3912TIP3   OH233294   6.087   1.416   1.636  0.0226  0.0921 -0.1959
 3912TIP3    H133295   6.181   1.418   1.614  0.5253  0.0879  1.7787
 3912TIP3    H233296   6.082   1.455   1.723 -1.7480 -0.4675 -0.0106
 3913TIP3   OH233297   3.303   1.288   0.659  0.1836 -0.5456  0.2238
 3913TIP3    H133298   3.216   1.318   0.632  1.1143  0.4498 -1.8994
 3913TIP3    H233299   3.330   1.227   0.590  2.2498  1.2595 -0.6676
 3914TIP3   OH233300   4.003   6.693   7.347  0.2936  0.5190  0.6614
 3914TIP3    H133301   3.949   6.769   7.370 -0.2273  0.0818  0.9206
 3914TIP3    H233302   3.976   6.625   7.410 -0.2918 -0.3274 -0.4647
 3915TIP3   OH233303   0.734   0.297   6.818  0.2105 -0.2403  0.9612
 3915TIP3    H133304   0.817   0.319   6.862  0.0361  0.6489  0.8697
 3915TIP3    H233305   0.760   0.274   6.729  0.3802 -0.1293  0.9801
 3916TIP3   OH233306   2.155   1.061   0.389 -0.4129 -0.7607 -0.0417
 3916TIP3    H133307   2.191   1.001   0.455 -1.8611 -1.6940 -0.0560
 3916TIP3    H233308   2.225   1.068   0.323  0.6608 -0.6060  1.0634
 3917TIP3   OH233309   0.562   6.543   2.102  0.2901  0.0531 -0.2884
 3917TIP3    H133310   0.485   6.486   2.107 -1.0605  1.8172  0.5199
 3917TIP3    H233311   0.608   6.527   2.184  0.8312 -1.0279 -0.7836
 3918TIP3   OH233312   0.903   3.416   8.535  0.3381  0.1021  0.2869
 3918TIP3    H133313   0.955   3.471   8.477  0.4284 -0.5451 -0.2561
 3918TIP3    H233314   0.855   3.357   8.476 -1.5053  1.0881  0.7273
 3919TIP3   OH233315   4.815   3.265   1.710 -0.3017 -0.2474  0.5033
 3919TIP3    H133316   4.841   3.263   1.618 -1.7765  0.5160  0.0307
 3919TIP3    H233317   4.896   3.247   1.758  0.3894 -1.2081 -0.9376
 3920TIP3   OH233318   2.882   1.038   0.649 -0.4749 -0.1452  0.4033
 3920TIP3    H133319   2.906   1.125   0.677 -1.0737  0.0274  0.4043
 3920TIP3    H233320   2.786   1.037   0.653 -0.4524 -1.0488  1.1438
 3921TIP3   OH233321   2.696   2.910   7.595  0.3941  0.7717 -0.4943
 3921TIP3    H133322   2.760   2.980   7.583  0.1475  0.9833 -0.5971
 3921TIP3    H233323   2.670   2.886   7.506 -0.1122  1.1040 -0.4415
 3922TIP3   OH233324   0.790   6.642   0.503 -0.3124  0.2914  0.4080
 3922TIP3    H133325   0.858   6.693   0.546 -0.1866 -0.0113  0.5710
 3922TIP3    H233326   0.825   6.553   0.499 -0.7079  0.1249  0.5241
 3923TIP3   OH233327   0.451   3.506   0.988 -0.5281 -0.4602  0.2017
 3923TIP3    H133328   0.418   3.579   1.041  0.5868  0.5199 -0.4309
 3923TIP3    H233329   0.379   3.486   0.928 -0.5981  0.5532 -0.0606
 3924TIP3   OH233330   4.542   1.169   6.571  0.0637 -0.1007 -0.3515
 3924TIP3    H133331   4.551   1.265   6.567  0.1353 -0.0911  0.0137
 3924TIP3    H233332   4.448   1.154   6.562  0.2499 -0.1256 -2.7193
 3925TIP3   OH233333   1.795   0.983   2.585 -0.3413 -0.1354  0.2549
 3925TIP3    H133334   1.872   0.937   2.553 -2.2803 -1.3598 -3.3154
 3925TIP3    H233335   1.776   1.049   2.517 -1.9268  0.7388  1.4544
 3926TIP3   OH233336   5.428   3.104   2.220 -0.1459  0.1586  0.5506
 3926TIP3    H133337   5.493   3.129   2.154  0.4475 -1.7355  0.3523
 3926TIP3    H233338   5.400   3.016   2.194 -1.6291  0.2968  1.5402
 3927TIP3   OH233339   4.742   5.338   7.450  0.1262  0.1757  0.1353
 3927TIP3    H133340   4.753   5.261   7.505  0.2438  0.3437  0.3467
 3927TIP3    H233341   4.767   5.308   7.362 -2.1725 -0.6923 -0.2783
 3928TIP3   OH233342   0.696   4.386   2.365  0.2328  0.2894  1.1009
 3928TIP3    H133343   0.750   4.464   2.381  0.0669  0.8716 -0.8899
 3928TIP3    H233344   0.743   4.315   2.408  2.8154  0.7070 -0.7862
 3929TIP3   OH233345   1.065   2.095   7.587 -0.3019 -0.1794  0.5067
 3929TIP3    H133346   1.027   2.153   7.521 -0.7964 -0.8578  0.1848
 3929TIP3    H233347   0.993   2.073   7.645 -0.3336 -1.1395  0.1340
 3930TIP3   OH233348   1.674   1.832   0.251  0.2810 -0.0641 -0.3413
 3930TIP3    H133349   1.587   1.872   0.240 -0.5370 -1.5836  0.2989
 3930TIP3    H233350   1.687   1.784   0.169 -0.2252 -1.1538  0.1997
 3931TIP3   OH233351   4.086   1.764   0.162 -0.4405  0.5423 -0.3951
 3931TIP3    H133352   4.108   1.708   0.237 -0.5031  0.5321 -0.3840
 3931TIP3    H233353   4.059   1.847   0.202 -1.9888  0.0366 -0.3263
 3932TIP3   OH233354   2.334   4.442   2.361 -0.1344 -0.0858 -0.9508
 3932TIP3    H133355   2.268   4.373   2.373 -0.7445  0.6256 -0.1146
 3932TIP3    H233356   2.388   4.410   2.289 -0.0084 -1.7458 -0.1719
 3933TIP3   OH233357   4.488   0.770   2.785 -0.1095  0.1996 -0.3592
 3933TIP3    H133358   4.441   0.810   2.858  0.6481 -1.4212  1.0793
 3933TIP3    H233359   4.436   0.793   2.708 -2.1719  0.1076  0.9365
 3934TIP3   OH233360   5.314   4.697   1.262 -0.3840  0.1394  0.4332
 3934TIP3    H133361   5.337   4.790   1.269  0.3470  0.0929 -0.9147
 3934TIP3    H233362   5.384   4.652   1.309 -0.8135  0.2681  1.2063
 3935TIP3   OH233363   4.130   5.345   1.179  0.0658  0.7861 -0.4123
 3935TIP3    H133364   4.077   5.301   1.114  0.9153  0.5381 -0.9507
 3935TIP3    H233365   4.142   5.434   1.144  1.0741  0.4579 -0.9399
 3936TIP3   OH233366   2.641   4.797   6.819 -0.4940 -0.0745 -0.0684
 3936TIP3    H133367   2.709   4.730   6.813 -1.4845 -1.0268 -1.3106
 3936TIP3    H233368   2.569   4.753   6.866 -1.4652 -0.1958 -1.6102
 3937TIP3   OH233369   4.958   2.318   7.976 -0.6951  0.5914 -0.2462
 3937TIP3    H133370   4.954   2.382   8.048  1.5262  2.6060 -1.7365
 3937TIP3    H233371   4.885   2.342   7.919  0.5723  2.4802 -1.1981
 3938TIP3   OH233372   4.316   1.784   0.008 -0.0894 -0.1519  0.2632
 3938TIP3    H133373   4.245   1.763   0.068  0.4140  1.3737  1.4745
 3938TIP3    H233374   4.345   1.871   0.035 -1.1290  1.5243 -3.4684
 3939TIP3   OH233375   1.370   1.393   0.328 -0.0610  0.0520 -0.0785
 3939TIP3    H133376   1.378   1.401   0.233  0.9762 -1.1202 -0.1111
 3939TIP3    H233377   1.335   1.305   0.341 -0.4509  0.3087  0.6250
 3940TIP3   OH233378   1.363   2.574   7.988 -0.8312  0.4354  0.1138
 3940TIP3    H133379   1.414   2.548   8.065  0.9621 -0.0113 -1.1730
 3940TIP3    H233380   1.392   2.663   7.969 -0.5227  0.1761 -0.6349
 3941TIP3   OH233381   3.260   0.335   7.507  0.2034  0.0640 -0.0592
 3941TIP3    H133382   3.329   0.323   7.441  0.9115  1.2102  0.4347
 3941TIP3    H233383   3.248   0.248   7.545  0.8875 -0.2975 -0.6293
 3942TIP3   OH233384   0.691   2.199   2.666  0.4753  0.4616  0.2681
 3942TIP3    H133385   0.759   2.149   2.712 -0.2077 -1.1400 -0.3895
 3942TIP3    H233386   0.609   2.154   2.689  0.0476 -0.0686 -2.0062
 3943TIP3   OH233387   2.055   1.792   0.070 -0.6349  0.1931 -1.0356
 3943TIP3    H133388   1.994   1.866   0.069  0.3678  1.1339  0.7198
 3943TIP3    H233389   2.134   1.827   0.111 -0.5718 -2.1530  1.1475
 3944TIP3   OH233390   0.161   4.404   0.299  0.2899 -0.3851  0.2665
 3944TIP3    H133391   0.227   4.362   0.244  1.5661  2.1482 -0.2802
 3944TIP3    H233392   0.109   4.456   0.238  1.1116  1.6959  1.2372
 3945TIP3   OH233393   4.265   1.236   6.481 -0.2418  1.1103  0.7255
 3945TIP3    H133394   4.174   1.205   6.470  0.6517 -1.5972  0.1941
 3945TIP3    H233395   4.263   1.326   6.447 -2.0720  0.0430 -2.4200
 3946TIP3   OH233396   5.528   4.276   8.691  0.4451 -0.6899  0.2660
 3946TIP3    H133397   5.501   4.212   8.626  0.3497  0.3433 -0.7519
 3946TIP3    H233398   5.468   4.350   8.678  2.4084  0.8355 -0.6797
 3947TIP3   OH233399   0.237   4.715   7.693 -0.0080 -0.0870  0.9679
 3947TIP3    H133400   0.221   4.752   7.606 -2.1928 -0.1559  1.2820
 3947TIP3    H233401   0.303   4.773   7.731 -0.3512  1.0548 -0.0854
 3948TIP3   OH233402   3.949   4.975   0.560 -0.3180  0.0404 -0.1834
 3948TIP3    H133403   3.908   5.021   0.633  0.0904  0.8855 -0.4731
 3948TIP3    H233404   4.043   4.985   0.575 -0.2220  0.8590 -1.1876
 3949TIP3   OH233405   0.671   6.124   1.577 -0.6177  0.2990 -0.1342
 3949TIP3    H133406   0.755   6.127   1.531  0.0660  0.7403  1.0926
 3949TIP3    H233407   0.694   6.118   1.670 -1.9344 -2.1455  0.1313
 3950TIP3   OH233408   1.884   5.776   0.813 -0.0366 -0.8335 -0.7330
 3950TIP3    H133409   1.972   5.811   0.801 -0.6520  1.0780 -0.0583
 3950TIP3    H233410   1.829   5.828   0.754 -1.2580  0.6545  1.5497
 3951TIP3   OH233411   4.508   1.358   8.130  0.2868 -0.6466 -0.5988
 3951TIP3    H133412   4.589   1.398   8.100  0.8225 -0.4717  0.9785
 3951TIP3    H233413   4.521   1.345   8.224 -1.5845 -0.4371 -0.2716
 3952TIP3   OH233414   4.610   1.492   7.001 -0.1987 -0.1656 -0.1798
 3952TIP3    H133415   4.649   1.414   6.961 -2.4072 -1.1694 -0.4945
 3952TIP3    H233416   4.516   1.476   6.999 -0.6495  1.9777  0.9100
 3953TIP3   OH233417   3.853   1.372   1.151  0.1500  0.3218  0.1640
 3953TIP3    H133418   3.886   1.455   1.185 -0.6385  0.4616  0.6282
 3953TIP3    H233419   3.775   1.397   1.101 -1.1985 -0.2940  1.8583
 3954TIP3   OH233420   2.958   3.895   0.559  0.2604 -0.3274  0.8002
 3954TIP3    H133421   2.936   3.986   0.579  0.8585 -0.5353  2.5819
 3954TIP3    H233422   3.048   3.899   0.526 -0.3549 -0.1025 -0.9460
 3955TIP3   OH233423   0.541   3.278   1.889 -0.0907  0.5638 -0.8137
 3955TIP3    H133424   0.572   3.234   1.968 -2.0344  1.4922  0.5395
 3955TIP3    H233425   0.610   3.263   1.825  0.9227 -1.4020  0.6299
 3956TIP3   OH233426   6.493   3.267   1.421 -0.0222  0.5982  0.0291
 3956TIP3    H133427   6.466   3.208   1.350  1.4336  0.4521 -0.4282
 3956TIP3    H233428   6.482   3.355   1.384  0.9303  0.5164 -0.4637
 3957TIP3   OH233429   1.836   5.551   1.544  0.4298  0.1429 -0.2324
 3957TIP3    H133430   1.743   5.527   1.542  0.2388  0.9033 -0.5738
 3957TIP3    H233431   1.879   5.473   1.580 -0.5855  0.5650  2.0793
 3958TIP3   OH233432   2.649   1.914   7.988 -0.2789 -0.3668  0.4428
 3958TIP3    H133433   2.597   1.939   8.065  1.5364 -0.3091  1.7247
 3958TIP3    H233434   2.641   1.819   7.984 -3.1507 -0.1724 -1.4493
 3959TIP3   OH233435   2.726   2.564   1.441 -0.3776 -0.1690 -0.3174
 3959TIP3    H133436   2.719   2.649   1.484  1.0691  0.1610 -0.6696
 3959TIP3    H233437   2.667   2.570   1.366  0.0677  0.6973 -0.6054
 3960TIP3   OH233438   0.364   0.559   1.385 -0.1670 -0.3210  0.3456
 3960TIP3    H133439   0.375   0.502   1.461  2.7394 -1.4320 -0.7552
 3960TIP3    H233440   0.450   0.599   1.373 -1.0560  1.2249 -1.3016
 3961TIP3   OH233441   3.111   3.514   1.880  0.5191  0.5960  0.5388
 3961TIP3    H133442   3.127   3.607   1.893  0.8929  0.3795  1.7127
 3961TIP3    H233443   3.074   3.484   1.963  0.0704 -0.2348  0.0517
 3962TIP3   OH233444   2.606   6.730   2.552 -0.3589  0.5675 -0.0218
 3962TIP3    H133445   2.674   6.696   2.493  1.5194  2.7247  0.7723
 3962TIP3    H233446   2.644   6.721   2.640 -0.9418  2.0785  0.4095
 3963TIP3   OH233447   1.814   5.404   8.360 -0.3145  0.3485 -0.0305
 3963TIP3    H133448   1.864   5.389   8.440  2.3675  0.9031 -1.4581
 3963TIP3    H233449   1.731   5.358   8.374  0.8610 -1.2950  2.2297
 3964TIP3   OH233450   2.640   3.490   0.376  0.0525 -0.1861 -1.0610
 3964TIP3    H133451   2.630   3.583   0.355  1.5209  0.7322  1.7834
 3964TIP3    H233452   2.711   3.488   0.441 -0.1672 -3.2687 -0.7974
 3965TIP3   OH233453   1.407   5.408   7.783 -0.2884 -0.0533  0.2360
 3965TIP3    H133454   1.452   5.416   7.699 -1.0531 -3.6954 -0.6890
 3965TIP3    H233455   1.314   5.414   7.760 -0.4795  1.3638  1.2496
 3966TIP3   OH233456   2.667   5.056   1.714 -0.4257 -0.4082  0.4727
 3966TIP3    H133457   2.621   5.098   1.641  0.3391  0.5238  0.5202
 3966TIP3    H233458   2.636   5.102   1.792  1.5178  1.1334  0.3985
 3967TIP3   OH233459   4.198   2.287   7.236  0.0909  0.3403  0.5333
 3967TIP3    H133460   4.172   2.217   7.295 -0.7608 -2.0751 -2.4494
 3967TIP3    H233461   4.294   2.283   7.235  0.0580 -1.7460 -0.4865
 3968TIP3   OH233462   5.537   4.557   8.489 -0.2477 -0.1103  0.1548
 3968TIP3    H133463   5.471   4.488   8.493  0.9939 -1.3593  0.1956
 3968TIP3    H233464   5.554   4.569   8.396 -1.0925  0.8055  0.1019
 3969TIP3   OH233465   0.797   1.417   0.983  0.3265  0.4255  0.1480
 3969TIP3    H133466   0.729   1.394   1.046  0.4471  0.3234  0.2424
 3969TIP3    H233467   0.866   1.352   0.997  0.3140  0.3473 -0.1534
 3970TIP3   OH233468   0.304   4.246   0.123  0.1304  0.0277  0.1260
 3970TIP3    H133469   0.363   4.228   0.196  1.3348 -0.8414 -1.0039
 3970TIP3    H233470   0.361   4.245   0.046 -0.8029  2.5797 -0.7000
 3971TIP3   OH233471   6.794   3.486   8.036  0.6364 -0.5367  0.0227
 3971TIP3    H133472   6.770   3.400   8.003  2.2042 -1.9571  2.2517
 3971TIP3    H233473   6.851   3.523   7.969 -0.6019 -0.8814 -1.2702
 3972TIP3   OH233474   1.053   4.142   7.037  0.1229  0.4555 -0.5025
 3972TIP3    H133475   0.971   4.094   7.046  0.4565 -0.4111 -1.8292
 3972TIP3    H233476   1.121   4.080   7.062  0.5248  0.3623 -1.7592
 3973TIP3   OH233477   6.313   0.234   7.147 -0.2363  0.6532  0.0898
 3973TIP3    H133478   6.304   0.238   7.052 -0.8004  0.8212  0.1442
 3973TIP3    H233479   6.343   0.145   7.165  0.6416  0.8683 -0.2990
 3974TIP3   OH233480   0.870   3.575   7.754  0.3792 -0.1420 -0.0258
 3974TIP3    H133481   0.888   3.589   7.661  0.0424  0.0825 -0.0584
 3974TIP3    H233482   0.950   3.536   7.789  0.6343  0.1104 -0.3326
 3975TIP3   OH233483   5.539   0.198   8.604 -0.2029  0.2936  0.1103
 3975TIP3    H133484   5.632   0.188   8.584 -0.2508  1.9366 -1.1278
 3975TIP3    H233485   5.494   0.160   8.529 -0.5204  0.3468  0.2727
 3976TIP3   OH233486   5.618   3.732   6.839 -0.1760  0.2751  1.4081
 3976TIP3    H133487   5.538   3.783   6.826  0.9082  1.4085 -1.8770
 3976TIP3    H233488   5.689   3.793   6.820  1.3294 -1.5209  0.9376
 3977TIP3   OH233489   5.507   4.386   8.053 -0.3160 -0.2347 -0.1862
 3977TIP3    H133490   5.555   4.439   8.118  0.4752  1.4936 -2.0591
 3977TIP3    H233491   5.573   4.364   7.987 -0.9975 -2.3451 -0.2257
 3978TIP3   OH233492   5.466   0.934   1.824 -0.4289  0.6675 -0.1741
 3978TIP3    H133493   5.440   0.984   1.902  1.0020  1.1646  0.0145
 3978TIP3    H233494   5.549   0.892   1.850 -0.8035 -0.5259 -0.8679
 3979TIP3   OH233495   4.888   6.838   8.441  0.0952 -0.2934  0.1296
 3979TIP3    H133496   4.936   6.771   8.393  0.7761 -0.5910  1.1768
 3979TIP3    H233497   4.955   6.902   8.465 -0.5466  0.7648 -0.8479
 3980TIP3   OH233498   4.727   1.374   0.035  0.3080 -0.1235 -0.2796
 3980TIP3    H133499   4.698   1.434  -0.034 -1.0223  0.6094  0.8634
 3980TIP3    H233500   4.718   1.287  -0.004 -3.7797 -0.0110 -0.0510
 3981TIP3   OH233501   1.435   0.151   7.414 -0.4365  0.4675 -0.4341
 3981TIP3    H133502   1.413   0.184   7.501 -0.0321  0.5769 -0.3727
 3981TIP3    H233503   1.504   0.209   7.383 -0.0917  0.0035 -0.5441
 3982TIP3   OH233504   3.076   4.476   2.782 -0.2419 -0.8388  0.0895
 3982TIP3    H133505   3.040   4.548   2.834 -2.1478 -1.3518 -0.4717
 3982TIP3    H233506   3.005   4.450   2.723  0.8285 -2.3543 -0.5958
 3983TIP3   OH233507   3.418   4.322   8.590  0.0144 -0.3556 -0.4586
 3983TIP3    H133508   3.440   4.411   8.561 -0.6662 -0.2418 -0.6319
 3983TIP3    H233509   3.391   4.333   8.681  0.7015 -0.5067 -0.2244
 3984TIP3   OH233510   3.623   6.853   0.861 -0.4451 -0.0404  0.1232
 3984TIP3    H133511   3.558   6.838   0.792 -0.6229  0.8629  0.0910
 3984TIP3    H233512   3.669   6.932   0.833 -0.2136  0.0731  0.8265
 3985TIP3   OH233513   3.180   2.095   2.718  0.3805  0.5791  0.5132
 3985TIP3    H133514   3.249   2.107   2.784  1.2208 -1.2010  0.0299
 3985TIP3    H233515   3.188   2.003   2.692 -1.4864  0.6244 -0.3636
 3986TIP3   OH233516   5.364   4.739   2.740 -0.0734  0.0431 -0.4893
 3986TIP3    H133517   5.457   4.756   2.723  0.5195 -1.3464  1.1199
 3986TIP3    H233518   5.340   4.674   2.674 -0.6194  2.1141 -2.4664
 3987TIP3   OH233519   1.983   5.107   1.703  0.5125  0.6404 -0.3192
 3987TIP3    H133520   1.917   5.047   1.669  1.1533  0.1884 -0.8085
 3987TIP3    H233521   2.026   5.059   1.774 -0.0296  1.1304  0.3440
 3988TIP3   OH233522   0.976   6.674   0.879 -0.5676 -0.5614 -0.0986
 3988TIP3    H133523   0.880   6.677   0.873 -0.6705 -2.3240  0.1323
 3988TIP3    H233524   0.993   6.664   0.973 -0.0888  0.6602 -0.0337
 3989TIP3   OH233525   2.389   1.762   0.001  0.6363  0.2890  0.2500
 3989TIP3    H133526   2.353   1.824   0.064  0.1967 -0.4235  0.7158
 3989TIP3    H233527   2.312   1.718  -0.036  0.9789 -1.0282  1.0166
 3990TIP3   OH233528   3.926   0.120   7.738  0.0753 -0.6750 -0.1014
 3990TIP3    H133529   3.951   0.200   7.784 -1.8307 -0.9282  1.5200
 3990TIP3    H233530   3.920   0.146   7.646  1.7928  0.4223  0.0517
 3991TIP3   OH233531   4.212   6.754   0.210 -0.0017  0.2463  0.3171
 3991TIP3    H133532   4.158   6.774   0.286 -0.5655  0.7627 -0.2106
 3991TIP3    H233533   4.269   6.683   0.239 -2.5681 -1.9848  0.1892
 3992TIP3   OH233534   3.175   5.750   1.526  0.1779 -0.2022  0.5255
 3992TIP3    H133535   3.087   5.782   1.504  0.6418  0.1643 -0.9072
 3992TIP3    H233536   3.230   5.828   1.523  0.8937 -0.7164 -0.6153
 3993TIP3   OH233537   4.287   1.302   1.246  1.0583 -0.3446  0.4742
 3993TIP3    H133538   4.269   1.210   1.224  0.4907 -0.6819  2.1929
 3993TIP3    H233539   4.372   1.299   1.290  0.5351 -0.2339  1.5299
 3994TIP3   OH233540   6.476   3.129   8.271 -0.0313  0.0584 -1.2644
 3994TIP3    H133541   6.515   3.086   8.195  0.4297 -0.4403 -0.7556
 3994TIP3    H233542   6.389   3.090   8.278 -0.1337  0.2145 -1.6175
 3995TIP3   OH233543   3.546   2.396   1.165  0.1375  0.1790  0.0752
 3995TIP3    H133544   3.500   2.424   1.086  2.1415 -0.4268 -1.3604
 3995TIP3    H233545   3.608   2.330   1.136 -0.0430 -1.1434  2.4022
 3996TIP3   OH233546   2.918   1.020   2.067 -0.1433 -0.5715 -0.2155
 3996TIP3    H133547   2.859   1.054   2.135 -1.1974  0.0793 -1.4135
 3996TIP3    H233548   2.859   0.986   1.999  0.8808 -0.5722 -1.1304
 3997TIP3   OH233549   6.533   4.651   7.095 -0.4336 -0.3218 -0.5633
 3997TIP3    H133550   6.594   4.600   7.149  0.6429 -1.7305 -2.9485
 3997TIP3    H233551   6.461   4.672   7.154  0.7827 -1.5077  1.4815
 3998TIP3   OH233552   1.767   6.363   0.028  0.0707  0.0727  0.4790
 3998TIP3    H133553   1.849   6.403   0.058 -0.2266 -0.3078  1.8399
 3998TIP3    H233554   1.764   6.384  -0.066 -0.5314  4.0722  1.2036
 3999TIP3   OH233555   2.853   4.948   2.904 -0.3104  0.2387 -0.2078
 3999TIP3    H133556   2.807   4.983   2.828 -1.7859 -0.9977  0.0620
 3999TIP3    H233557   2.946   4.959   2.883 -0.6991  0.6459 -1.8441
 4000TIP3   OH233558   3.363   5.081   0.100 -0.6587  0.2823  0.2534
 4000TIP3    H133559   3.283   5.134   0.104 -1.2366 -0.3171 -1.9036
 4000TIP3    H233560   3.432   5.140   0.130 -1.5702  1.5916 -0.1254
 4001TIP3   OH233561   4.212   2.261   6.822  0.5885 -0.1100 -0.6319
 4001TIP3    H133562   4.164   2.265   6.905 -0.7864 -0.3624 -1.3764
 4001TIP3    H233563   4.304   2.263   6.847  0.2015 -0.1825  0.8981
 4002TIP3   OH233564   0.533   4.058   8.132 -0.6334 -0.1700  0.0362
 4002TIP3    H133565   0.492   4.109   8.062 -0.2657  0.6397  0.3902
 4002TIP3    H233566   0.473   3.986   8.149 -0.4841 -0.6797 -1.4555
 4003TIP3   OH233567   5.356   1.615   0.777 -0.2530  0.0619  0.3638
 4003TIP3    H133568   5.331   1.706   0.794  0.8679  0.5868 -0.6054
 4003TIP3    H233569   5.377   1.579   0.863 -0.7547  0.6965  0.7602
 4004TIP3   OH233570   2.612   1.154   0.231  0.0646  0.3334  0.0982
 4004TIP3    H133571   2.659   1.094   0.290 -1.1105  0.0567  0.7748
 4004TIP3    H233572   2.678   1.218   0.205  0.6082  0.5139  1.7789
 4005TIP3   OH233573   4.837   0.757   8.639 -0.1879  0.9254 -0.3724
 4005TIP3    H133574   4.785   0.795   8.568 -1.2482  0.4672  0.1243
 4005TIP3    H233575   4.831   0.821   8.710 -0.7060  0.5420 -0.0612
 4006TIP3   OH233576   6.657   2.429   1.020 -0.2220  0.3142  0.0157
 4006TIP3    H133577   6.704   2.463   1.096 -1.5165  2.8226 -0.2075
 4006TIP3    H233578   6.588   2.374   1.057 -1.7312  2.6271  0.8393
 4007TIP3   OH233579   4.545   1.836   7.407 -0.4520 -0.1029 -0.6951
 4007TIP3    H133580   4.603   1.782   7.354 -0.6102 -1.1075  0.1111
 4007TIP3    H233581   4.473   1.859   7.349 -1.2507 -2.1980 -0.6495
 4008TIP3   OH233582   6.538   5.248   2.877  0.4028  0.5377  0.3539
 4008TIP3    H133583   6.601   5.178   2.896 -0.3886 -0.3220 -0.1048
 4008TIP3    H233584   6.457   5.219   2.918 -0.4943  0.1562 -1.5676
 4009TIP3   OH233585   4.521   1.082   7.273  0.3957 -0.1143 -0.2961
 4009TIP3    H133586   4.588   1.066   7.207  1.4349  1.2212  0.3944
 4009TIP3    H233587   4.564   1.138   7.338 -1.0563 -0.1485  0.7397
 4010TIP3   OH233588   5.320   2.113   2.605  0.6961  0.1260 -0.1763
 4010TIP3    H133589   5.226   2.129   2.595  0.6294 -0.4879 -0.6461
 4010TIP3    H233590   5.334   2.108   2.699 -0.0709 -1.4829 -0.1147
 4011TIP3   OH233591   2.172   0.042   2.041 -0.0363 -0.5742  0.0730
 4011TIP3    H133592   2.113   0.086   2.103  0.1955 -0.8745  0.5150
 4011TIP3    H233593   2.118   0.028   1.963 -0.5414 -0.8010  0.4557
 4012TIP3   OH233594   1.737   3.850   7.016  0.0128  0.0081  0.4268
 4012TIP3    H133595   1.795   3.778   6.992  0.5261  0.6819 -0.4162
 4012TIP3    H233596   1.694   3.875   6.935 -3.1084 -1.8229  1.3502
 4013TIP3   OH233597   6.774   2.218   7.952  0.7314  0.1268 -0.3880
 4013TIP3    H133598   6.730   2.205   7.867  0.0144  1.0682 -0.1788
 4013TIP3    H233599   6.721   2.166   8.013  1.0840 -0.3279 -0.4667
 4014TIP3   OH233600   0.681   3.079   1.504 -0.0202 -0.0877 -0.2371
 4014TIP3    H133601   0.660   2.986   1.497 -0.8852  0.0497  0.4364
 4014TIP3    H233602   0.600   3.125   1.484 -0.1991  0.4659  1.5558
 4015TIP3   OH233603   6.461   0.325   0.300 -0.2564  0.3986 -0.2116
 4015TIP3    H133604   6.556   0.318   0.310 -0.3417 -0.8808 -0.2216
 4015TIP3    H233605   6.425   0.291   0.382 -0.7167  1.2097 -0.0577
 4016TIP3   OH233606   2.744   6.490   8.395  0.1236 -0.4639  0.0878
 4016TIP3    H133607   2.655   6.499   8.363  0.2188  0.3863  0.0319
 4016TIP3    H233608   2.776   6.580   8.402  2.0235 -0.7747 -2.8443
 4017TIP3   OH233609   1.259   1.194   0.566 -0.3475  0.0656  0.4251
 4017TIP3    H133610   1.205   1.272   0.578 -0.1104  0.2649  0.1918
 4017TIP3    H233611   1.296   1.177   0.653  1.1780  1.3728  0.0724
 4018TIP3   OH233612   1.385   1.966   6.993 -0.7574 -0.4259 -0.8757
 4018TIP3    H133613   1.366   1.886   7.041 -1.6918  1.1072  1.4798
 4018TIP3    H233614   1.479   1.963   6.978 -0.4325 -1.0556  1.0005
 4019TIP3   OH233615   3.996   6.238   7.185 -0.1758  0.4543  0.9624
 4019TIP3    H133616   4.022   6.325   7.156  0.0552 -0.7849 -3.1659
 4019TIP3    H233617   4.074   6.202   7.226  0.4453  1.3724  0.6117
 4020TIP3   OH233618   2.976   1.083   1.666  0.7072 -0.5551  0.2322
 4020TIP3    H133619   2.958   1.107   1.575  0.2084  1.4730  0.8233
 4020TIP3    H233620   3.067   1.110   1.680 -0.3074  2.7383  1.3441
 4021TIP3   OH233621   0.922   4.068   7.927 -0.3666 -0.2601  0.2363
 4021TIP3    H133622   0.867   4.015   7.871  0.4862 -1.0758  0.1556
 4021TIP3    H233623   0.990   4.103   7.869 -1.8494  2.3706 -0.0954
 4022TIP3   OH233624   2.995   3.489   1.114  0.4684 -0.5822  1.0540
 4022TIP3    H133625   3.078   3.533   1.098 -0.4956  1.5438  1.4861
 4022TIP3    H233626   2.988   3.484   1.209 -0.6772  0.9993  1.1030
 4023TIP3   OH233627   2.837   0.010   7.034  0.2877  0.3624  0.8718
 4023TIP3    H133628   2.828  -0.076   6.993 -0.5903  0.1565  1.4706
 4023TIP3    H233629   2.849   0.071   6.962  0.1858 -0.1689  0.4032
 4024TIP3   OH233630   2.644   2.977   1.587 -0.4676 -0.1664 -0.4320
 4024TIP3    H133631   2.663   3.026   1.667 -1.4710  0.4950 -0.5808
 4024TIP3    H233632   2.728   2.940   1.561  0.4237  1.8074 -0.5237
 4025TIP3   OH233633   3.667   1.871   8.015  0.4534  0.1249  0.6435
 4025TIP3    H133634   3.755   1.909   8.002 -0.3596  1.2576 -2.7107
 4025TIP3    H233635   3.655   1.813   7.940 -1.2899 -0.8616  1.6276
 4026TIP3   OH233636   1.976   1.614   1.418  0.0204 -0.5587 -0.3901
 4026TIP3    H133637   1.980   1.707   1.394 -1.6606 -0.4118 -0.2153
 4026TIP3    H233638   1.998   1.568   1.337  4.2545 -0.0828  0.2804
 4027TIP3   OH233639   5.080   5.543   0.897  0.3315 -0.1598  0.1838
 4027TIP3    H133640   5.060   5.501   0.813 -1.4312 -3.6854  2.1001
 4027TIP3    H233641   5.028   5.623   0.896  1.0803  0.3973 -2.3794
 4028TIP3   OH233642   4.779   2.238   0.449  0.2514 -0.7879 -0.2147
 4028TIP3    H133643   4.859   2.185   0.451  1.0990  0.4065 -1.2294
 4028TIP3    H233644   4.801   2.317   0.498 -0.1907 -0.2941 -0.8026
 4029TIP3   OH233645   5.297   0.313   6.913 -0.5409  0.2627 -0.5359
 4029TIP3    H133646   5.227   0.302   6.977  0.9748 -0.0061  1.1688
 4029TIP3    H233647   5.373   0.341   6.965  1.3500 -2.0302 -1.8245
 4030TIP3   OH233648   5.928   6.106   0.763  0.0295  0.6691 -0.7694
 4030TIP3    H133649   5.959   6.171   0.826 -1.1031  0.2656  0.2582
 4030TIP3    H233650   5.833   6.122   0.758 -0.0847 -0.1538 -1.3768
 4031TIP3   OH233651   0.590   4.885   1.268 -0.7099 -0.0803 -0.0730
 4031TIP3    H133652   0.527   4.885   1.340 -0.1738 -1.2280  0.4321
 4031TIP3    H233653   0.635   4.801   1.276  1.5717  1.0968  0.1859
 4032TIP3   OH233654   3.842   4.810   8.385  0.2954 -0.1953 -0.9790
 4032TIP3    H133655   3.849   4.715   8.393 -0.4206 -0.2155 -0.4777
 4032TIP3    H233656   3.758   4.824   8.341  0.3347  0.2152 -0.9283
 4033TIP3   OH233657   3.331   3.777   1.468 -0.0407 -0.1457 -0.1192
 4033TIP3    H133658   3.273   3.780   1.544  0.7888  1.0745  0.4977
 4033TIP3    H233659   3.407   3.726   1.497  0.4077  0.5649 -0.0112
 4034TIP3   OH233660   5.194   5.113   6.581 -0.5799  0.4153 -0.0654
 4034TIP3    H133661   5.156   5.033   6.616  0.5687 -0.4440 -0.6864
 4034TIP3    H233662   5.201   5.172   6.656 -1.6393  0.0188  0.3574
 4035TIP3   OH233663   1.731   2.588   1.711 -0.0834 -0.6249 -0.1243
 4035TIP3    H133664   1.736   2.497   1.738 -0.8723 -0.3738  0.9363
 4035TIP3    H233665   1.802   2.632   1.759 -0.7002 -0.4073  0.6134
 4036TIP3   OH233666   0.125   5.443   6.919  0.8971 -0.3514 -0.0777
 4036TIP3    H133667   0.142   5.403   6.833  1.6926 -1.0380  0.3844
 4036TIP3    H233668   0.186   5.517   6.922 -1.3583  1.6995 -1.4045
 4037TIP3   OH233669   5.432   3.776   2.297  0.5750 -0.2091 -0.2668
 4037TIP3    H133670   5.459   3.758   2.387  0.1664  0.7599  0.0666
 4037TIP3    H233671   5.382   3.699   2.271  1.1667 -0.7394  0.1345
 4038TIP3   OH233672   4.805   0.813   0.373  0.0445  0.1639 -0.3593
 4038TIP3    H133673   4.732   0.783   0.426  1.5636  1.3284  2.6372
 4038TIP3    H233674   4.873   0.746   0.385  0.8007  0.9974  0.1824
 4039TIP3   OH233675   2.765   5.858   1.463 -0.8256 -0.3383 -0.4558
 4039TIP3    H133676   2.761   5.820   1.551 -1.6982 -0.8841 -0.7210
 4039TIP3    H233677   2.793   5.785   1.407  1.9097  0.5108 -0.3714
 4040TIP3   OH233678   1.187   1.339   1.484 -0.2024 -0.0770  0.8211
 4040TIP3    H133679   1.280   1.323   1.466 -0.2803 -0.9040  1.0894
 4040TIP3    H233680   1.167   1.422   1.440  0.1301 -0.9805 -1.1252
 4041TIP3   OH233681   4.439   6.336   1.244 -0.1700 -0.4607 -0.1247
 4041TIP3    H133682   4.358   6.319   1.292 -0.6354  0.3548 -0.6099
 4041TIP3    H233683   4.428   6.424   1.208  1.8254  0.6480  1.6930
 4042TIP3   OH233684   0.352   0.851   7.006 -0.2102 -0.5707  0.4293
 4042TIP3    H133685   0.331   0.758   6.995  0.9108 -0.8868  0.9295
 4042TIP3    H233686   0.277   0.897   6.966 -0.0063 -1.6769 -1.3428
 4043TIP3   OH233687   4.536   1.011   6.882 -0.7160  0.5034 -0.7074
 4043TIP3    H133688   4.466   0.987   6.821  1.2311 -0.2289 -2.8078
 4043TIP3    H233689   4.596   1.065   6.830  0.8962  0.1015  0.6372
 4044TIP3   OH233690   2.491   3.706   1.146  0.1424  0.4823  0.2755
 4044TIP3    H133691   2.451   3.734   1.228 -2.0302 -1.1894 -0.1346
 4044TIP3    H233692   2.579   3.678   1.171  0.3779  2.2497  1.5930
 4045TIP3   OH233693   4.494   4.118   1.064 -0.5822  0.1274 -0.0475
 4045TIP3    H133694   4.410   4.075   1.049 -0.5143 -0.6436  1.5883
 4045TIP3    H233695   4.557   4.046   1.064 -0.1577  0.4959  0.4638
 4046TIP3   OH233696   0.651   0.784   1.716  0.0352 -0.0256  0.1328
 4046TIP3    H133697   0.634   0.802   1.808  0.6592 -0.5124  0.3497
 4046TIP3    H233698   0.649   0.689   1.708  3.0988 -0.2241  0.3299
 4047TIP3   OH233699   5.053   1.054   2.854 -0.4125 -0.1517  0.3543
 4047TIP3    H133700   5.019   1.008   2.777  1.0140  3.0102 -2.3737
 4047TIP3    H233701   4.979   1.106   2.885 -0.2009  0.8866 -0.8252
 4048TIP3   OH233702   5.072   0.276   2.029  0.5729 -0.6295  0.1179
 4048TIP3    H133703   4.994   0.233   1.994  1.0143  0.1420 -1.9516
 4048TIP3    H233704   5.111   0.211   2.088 -1.4787 -1.1108  1.0432
 4049TIP3   OH233705   4.935   3.545   7.558  0.1133  0.2746  0.6540
 4049TIP3    H133706   4.892   3.584   7.634  0.3344  1.8439  0.0244
 4049TIP3    H233707   4.934   3.451   7.575 -2.9558  0.2579  0.9666
 4050TIP3   OH233708   1.770   0.694   1.345 -0.1750 -1.0586  0.0456
 4050TIP3    H133709   1.865   0.684   1.351 -0.1142 -0.8046 -0.4705
 4050TIP3    H233710   1.758   0.770   1.288 -0.6645  0.0453  1.5403
 4051TIP3   OH233711   4.325   5.083   7.036  0.4214  0.8083  0.3701
 4051TIP3    H133712   4.256   5.150   7.037 -1.3795 -0.9246 -0.1730
 4051TIP3    H233713   4.339   5.061   7.128 -0.1499  0.8044  0.4581
 4052TIP3   OH233714   2.493   5.860   8.334 -0.2856 -0.3756 -0.3218
 4052TIP3    H133715   2.575   5.859   8.284  0.6732 -2.0621  1.1586
 4052TIP3    H233716   2.451   5.777   8.314 -0.9665 -0.1091 -0.0168
 4053TIP3   OH233717   3.126   6.388   6.227 -0.0199 -0.6399  0.0547
 4053TIP3    H133718   3.168   6.344   6.301  0.2148 -4.0558 -1.9133
 4053TIP3    H233719   3.036   6.403   6.255  1.0447  2.1882  2.4937
 4054TIP3   OH233720   2.792   6.439   6.953 -0.1828  0.0553  0.3282
 4054TIP3    H133721   2.857   6.509   6.955 -1.3345  1.1690  0.8980
 4054TIP3    H233722   2.717   6.476   6.999 -0.9494 -1.4578  0.3501
 4055TIP3   OH233723   0.447   4.968   7.522 -0.7293 -0.0196 -0.1285
 4055TIP3    H133724   0.372   4.908   7.516 -1.2928  0.7167 -0.8055
 4055TIP3    H233725   0.409   5.051   7.549 -0.4365  0.7958 -2.0389
 4056TIP3   OH233726   0.075   6.604   1.442  0.1018  0.4458  0.3691
 4056TIP3    H133727   0.096   6.697   1.453  1.6652  0.0920  0.5541
 4056TIP3    H233728   0.151   6.557   1.475 -0.8771 -0.9368  0.7783
 4057TIP3   OH233729   6.340   4.725   2.135  0.5056  0.2566  0.4015
 4057TIP3    H133730   6.373   4.789   2.198  1.0841  2.1343 -1.6986
 4057TIP3    H233731   6.407   4.723   2.066 -0.8720 -0.4777 -0.9584
 4058TIP3   OH233732   2.419   5.760   0.593 -0.3893 -0.1103 -0.2056
 4058TIP3    H133733   2.340   5.760   0.647  0.7476  0.3083  1.5498
 4058TIP3    H233734   2.438   5.853   0.579 -0.9231 -0.2053 -1.7942
 4059TIP3   OH233735   5.398   3.875   7.761 -0.2347  0.0646 -0.1525
 4059TIP3    H133736   5.481   3.922   7.749 -1.0005  1.1663 -1.5207
 4059TIP3    H233737   5.409   3.827   7.842  1.0290  1.7778  0.7581
 4060TIP3   OH233738   5.123   0.942   7.911 -0.0440  0.3968 -0.1980
 4060TIP3    H133739   5.059   0.997   7.955 -0.3327 -0.3153  0.2960
 4060TIP3    H233740   5.104   0.853   7.942  1.3072  0.1923  0.1285
 4061TIP3   OH233741   6.585   1.720   1.555  0.3889 -1.1769 -0.3134
 4061TIP3    H133742   6.605   1.712   1.648  0.0490 -1.5370 -0.2649
 4061TIP3    H233743   6.592   1.631   1.521 -0.7876 -1.2826 -0.3508
 4062TIP3   OH233744   5.883   4.079   7.982  0.5170  0.1560  0.3286
 4062TIP3    H133745   5.927   4.008   8.029  0.3777 -0.1589 -0.0109
 4062TIP3    H233746   5.944   4.103   7.912 -0.1704 -0.8106 -0.6243
 4063TIP3   OH233747   1.616   5.095   8.471  0.0149 -0.4375 -0.7149
 4063TIP3    H133748   1.546   5.055   8.420 -0.2905 -2.6975  1.3024
 4063TIP3    H233749   1.592   5.187   8.477 -2.6390 -1.0749 -0.4028
 4064TIP3   OH233750   2.419   5.719   8.626  0.3392  0.5525  0.1350
 4064TIP3    H133751   2.491   5.738   8.686  0.1617  0.5293  0.3559
 4064TIP3    H233752   2.442   5.766   8.545 -0.2951  2.0796  0.7957
 4065TIP3   OH233753   2.178   4.633   8.107 -0.1532  0.8160 -0.4447
 4065TIP3    H133754   2.178   4.683   8.025 -0.3541  1.5440 -0.0071
 4065TIP3    H233755   2.254   4.667   8.155  1.0922 -0.9051 -1.0919
 4066TIP3   OH233756   3.873   5.396   8.151  0.6342  0.3072  0.3096
 4066TIP3    H133757   3.922   5.457   8.207 -0.2533 -0.4824  2.0350
 4066TIP3    H233758   3.817   5.453   8.098  1.7901  1.1027 -0.1041
 4067TIP3   OH233759   0.977   4.741   0.607  0.1627 -0.5377  0.5983
 4067TIP3    H133760   1.009   4.772   0.522 -1.1902 -0.3785  0.1297
 4067TIP3    H233761   0.986   4.646   0.603 -0.1667 -0.5541  0.1522
 4068TIP3   OH233762   4.567   0.545   0.834 -0.5715  0.1500 -0.1611
 4068TIP3    H133763   4.620   0.470   0.861 -0.7155  0.0423 -0.1770
 4068TIP3    H233764   4.583   0.553   0.740 -1.1623 -0.3473 -0.3128
 4069TIP3   OH233765   5.254   0.673   8.376  0.5383  0.0214 -0.2146
 4069TIP3    H133766   5.165   0.671   8.411  0.3157  0.7928 -0.7006
 4069TIP3    H233767   5.259   0.596   8.319  0.1516  0.0316 -0.2649
 4070TIP3   OH233768   5.160   0.797   2.030  0.4670 -0.3883 -0.1797
 4070TIP3    H133769   5.229   0.815   2.094  0.9169 -0.1356 -0.7224
 4070TIP3    H233770   5.110   0.725   2.068  0.9528 -0.4890  0.2869
 4071TIP3   OH233771   0.825   3.752   0.156 -0.1496 -0.7388 -0.2338
 4071TIP3    H133772   0.764   3.784   0.089  0.5270 -0.1639 -0.5906
 4071TIP3    H233773   0.908   3.739   0.109  0.0779 -1.2553  0.2985
 4072TIP3   OH233774   6.770   1.341   7.630  0.2179  0.3004  0.1426
 4072TIP3    H133775   6.854   1.361   7.589  0.5345  0.0502  0.6569
 4072TIP3    H233776   6.708   1.339   7.557  1.0099 -1.5189 -0.5361
 4073TIP3   OH233777   1.827   2.192   6.882 -0.8953  0.3624  0.1688
 4073TIP3    H133778   1.761   2.232   6.826 -1.9093 -0.6582  0.5984
 4073TIP3    H233779   1.848   2.259   6.947  1.1542  2.0116 -2.0157
 4074TIP3   OH233780   0.337   5.723   0.347 -0.0659  0.2884  0.1807
 4074TIP3    H133781   0.295   5.743   0.263  2.0860  1.5688 -0.6676
 4074TIP3    H233782   0.342   5.808   0.391  0.2649 -0.1141  0.9218
 4075TIP3   OH233783   6.174   0.443   7.393  0.1055 -0.2644  0.1912
 4075TIP3    H133784   6.160   0.357   7.433 -0.1757 -0.6934 -0.7803
 4075TIP3    H233785   6.264   0.466   7.415 -0.4190  0.1001  2.0989
 4076TIP3   OH233786   1.525   5.923   1.969  0.5621  0.1619  0.4626
 4076TIP3    H133787   1.599   5.946   1.913 -0.1498 -1.1563 -1.0975
 4076TIP3    H233788   1.528   5.987   2.040  1.6604  1.7404 -0.9277
 4077TIP3   OH233789   1.613   1.509   1.365 -1.1425 -0.3372 -0.4045
 4077TIP3    H133790   1.638   1.554   1.446 -0.4753 -3.7951  1.5367
 4077TIP3    H233791   1.544   1.448   1.393 -0.7125 -1.8238 -2.3590
 4078TIP3   OH233792   6.818   1.235   2.698  0.4562 -0.3466  0.0507
 4078TIP3    H133793   6.900   1.188   2.683  0.3512 -0.4163 -0.2884
 4078TIP3    H233794   6.842   1.302   2.763  0.6260 -0.7923  0.4526
 4079TIP3   OH233795   2.152   3.219   6.834  0.2120  0.2444  0.8265
 4079TIP3    H133796   2.085   3.288   6.827  0.9271  0.8079 -1.2241
 4079TIP3    H233797   2.234   3.266   6.847  0.6625 -0.2074 -0.2580
 4080TIP3   OH233798   2.694   5.241   1.301 -0.7715 -0.2147  0.1428
 4080TIP3    H133799   2.649   5.158   1.318 -1.6202  0.2025 -0.0513
 4080TIP3    H233800   2.635   5.308   1.334  0.5376  0.2666  1.6124
 4081TIP3   OH233801   0.856   5.882   7.113  0.1552  0.5517 -0.3440
 4081TIP3    H133802   0.910   5.952   7.077 -0.4022  1.3976  0.4357
 4081TIP3    H233803   0.900   5.857   7.194  1.6198 -1.6141 -1.6990
 4082TIP3   OH233804   6.619   5.803   0.045  0.4851 -0.0673 -0.2401
 4082TIP3    H133805   6.685   5.780   0.110 -0.1031 -2.4042 -0.3638
 4082TIP3    H233806   6.537   5.770   0.081  0.0307 -0.7531 -1.7838
 4083TIP3   OH233807   5.827   0.530   8.158 -0.1682 -0.2447  0.1453
 4083TIP3    H133808   5.782   0.454   8.193 -1.3923  0.5858  0.4321
 4083TIP3    H233809   5.768   0.565   8.091  0.1525  0.7023  0.3357
 4084TIP3   OH233810   5.124   6.167   7.730  0.5596 -0.7209 -0.6068
 4084TIP3    H133811   5.084   6.241   7.775  0.2049 -0.4235 -1.3979
 4084TIP3    H233812   5.067   6.093   7.749 -0.3375 -0.3165 -1.6631
 4085TIP3   OH233813   1.583   4.295   0.472  0.0515  0.3248  0.5198
 4085TIP3    H133814   1.620   4.330   0.391  0.1743  0.5297  0.6641
 4085TIP3    H233815   1.549   4.209   0.447  2.5213 -0.8194  0.8469
 4086TIP3   OH233816   3.018   1.443   1.028 -0.5661  0.7103  0.4317
 4086TIP3    H133817   3.064   1.360   1.036 -2.4065 -0.2321  1.9361
 4086TIP3    H233818   3.043   1.476   0.942  0.2160 -1.3716 -0.1976
 4087TIP3   OH233819   1.864   1.918   1.624  0.0777  0.7498 -0.3725
 4087TIP3    H133820   1.928   1.919   1.553 -0.5038  3.7441 -1.0030
 4087TIP3    H233821   1.904   1.970   1.694 -0.3319 -0.1862  0.5952
 4088TIP3   OH233822   4.428   5.581   7.875 -0.0121  0.2788  0.1099
 4088TIP3    H133823   4.430   5.659   7.818  0.3066 -1.3120 -2.1905
 4088TIP3    H233824   4.519   5.553   7.879  0.0241  0.5554  1.7750
 4089TIP3   OH233825   3.799   1.882   0.305 -0.8126  0.0454 -0.1435
 4089TIP3    H133826   3.841   1.915   0.384  1.9310  0.1104 -1.4978
 4089TIP3    H233827   3.817   1.788   0.306  2.7074  0.5154 -2.4063
 4090TIP3   OH233828   6.654   3.447   7.441 -0.3970  0.2787 -0.5539
 4090TIP3    H133829   6.736   3.492   7.419  0.8022 -1.5277  0.0047
 4090TIP3    H233830   6.630   3.401   7.361  0.6685 -1.3722  0.0067
 4091TIP3   OH233831   1.220   4.629   8.046 -0.3705 -0.0769 -0.6905
 4091TIP3    H133832   1.299   4.607   8.094 -0.7324 -0.6308 -0.3403
 4091TIP3    H233833   1.171   4.686   8.105 -1.8877 -2.5494  0.6194
 4092TIP3   OH233834   5.379   2.817   7.307  0.5224 -0.1757 -1.0847
 4092TIP3    H133835   5.442   2.883   7.337  0.3465 -0.0691 -0.9523
 4092TIP3    H233836   5.398   2.808   7.213  0.4853  0.1283 -1.1231
 4093TIP3   OH233837   5.604   1.873   1.059  0.1691  0.0963  0.0865
 4093TIP3    H133838   5.642   1.921   1.133 -1.7477  0.0969  1.1461
 4093TIP3    H233839   5.575   1.790   1.097  0.0011 -0.3055 -0.8965
 4094TIP3   OH233840   4.022   2.862   7.689  0.8820 -0.5854  0.0204
 4094TIP3    H133841   4.042   2.944   7.733 -0.7031  0.8958 -1.8635
 4094TIP3    H233842   4.108   2.824   7.669  1.7575  1.8652 -1.2589
 4095TIP3   OH233843   0.886   0.675   2.121  0.0548 -0.2563 -0.1397
 4095TIP3    H133844   0.868   0.767   2.100  0.7717 -0.3948 -1.4475
 4095TIP3    H233845   0.833   0.625   2.059  0.9847 -0.7046 -0.5876
 4096TIP3   OH233846   5.394   3.674   7.059  0.4308  0.7008  0.5053
 4096TIP3    H133847   5.346   3.723   6.993  2.7582 -0.0490 -1.9183
 4096TIP3    H233848   5.409   3.588   7.020  2.4025  0.4133  1.7239
 4097TIP3   OH233849   0.977   4.096   0.429  0.0302  0.0412  0.2927
 4097TIP3    H133850   1.069   4.068   0.431 -0.3862 -1.3957  1.2760
 4097TIP3    H233851   0.947   4.072   0.341  0.1014 -1.2919  0.6090
 4098TIP3   OH233852   3.065   3.106   0.944 -0.5585 -0.0890  0.2830
 4098TIP3    H133853   3.068   3.102   1.040  0.8193 -0.2895  0.2641
 4098TIP3    H233854   3.060   3.199   0.923  0.4589  0.0464  0.5647
 4099TIP3   OH233855   0.535   4.382   0.693 -0.1371  0.9556 -0.0521
 4099TIP3    H133856   0.603   4.344   0.638  1.0213 -0.3150  2.1402
 4099TIP3    H233857   0.517   4.467   0.652  0.6839  0.1328 -2.3051
 4100TIP3   OH233858   4.055   6.771   7.799  0.0048 -0.2098  0.2438
 4100TIP3    H133859   4.006   6.847   7.769  0.5465 -1.0951 -3.2923
 4100TIP3    H233860   4.131   6.808   7.845  0.1447  1.4266 -1.2066
 4101TIP3   OH233861   0.400   5.966   1.503  0.4844 -0.4781 -0.4343
 4101TIP3    H133862   0.457   5.996   1.574 -2.1198 -0.6337  1.9048
 4101TIP3    H233863   0.447   5.893   1.464  1.9891 -0.4598  1.2081
 4102TIP3   OH233864   2.097   4.629   8.457 -0.2620  0.7125 -0.6637
 4102TIP3    H133865   2.105   4.537   8.482  0.3179  1.2157  1.2030
 4102TIP3    H233866   2.180   4.650   8.416  0.8102  1.0789  1.5255
 4103TIP3   OH233867   4.562   4.468   8.526  0.2582 -0.2058 -0.0768
 4103TIP3    H133868   4.604   4.553   8.536  2.2131 -1.1107 -0.0694
 4103TIP3    H233869   4.576   4.424   8.610 -1.3087 -0.3188  0.1493
 4104TIP3   OH233870   6.320   2.852   6.523 -0.5803 -0.3704 -0.2150
 4104TIP3    H133871   6.405   2.891   6.503  1.4789 -5.2133 -2.4214
 4104TIP3    H233872   6.334   2.803   6.604 -1.4776 -0.6722 -0.2305
 4105TIP3   OH233873   1.941   3.866   7.892  0.5295  0.0952 -0.0142
 4105TIP3    H133874   1.969   3.809   7.821 -0.7790 -0.9848  0.2944
 4105TIP3    H233875   1.874   3.922   7.854 -0.5279 -0.8196  0.4549
 4106TIP3   OH233876   5.363   5.932   1.271  0.1029  0.1407  0.4080
 4106TIP3    H133877   5.364   5.856   1.213 -1.8766  0.9704 -0.8432
 4106TIP3    H233878   5.293   5.913   1.334  0.0705  0.6179  0.5172
 4107TIP3   OH233879   2.464   3.461   7.794  0.0200  0.1676 -0.4738
 4107TIP3    H133880   2.534   3.396   7.792 -0.6540 -0.5995  0.1298
 4107TIP3    H233881   2.395   3.421   7.847  0.5113  2.3099  2.0654
 4108TIP3   OH233882   4.539   0.615   7.866  0.1704 -0.2698  0.4112
 4108TIP3    H133883   4.538   0.688   7.928  0.5314 -0.9060  1.1872
 4108TIP3    H233884   4.585   0.545   7.912 -0.4250 -1.0898 -0.2132
 4109TIP3   OH233885   5.552   6.143   7.099 -0.1157  0.0662  0.2444
 4109TIP3    H133886   5.585   6.166   7.012  1.1758 -2.7388 -0.1349
 4109TIP3    H233887   5.492   6.070   7.082  0.0231 -0.4008  1.6778
 4110TIP3   OH233888   6.026   5.253   1.890 -0.1046  0.6256  0.0002
 4110TIP3    H133889   5.993   5.258   1.801 -1.4678 -1.8652  0.2658
 4110TIP3    H233890   5.976   5.319   1.938 -0.8046  0.6246 -0.7050
 4111TIP3   OH233891   6.069   1.823   1.270  0.0550 -0.0228 -0.7327
 4111TIP3    H133892   6.079   1.731   1.297 -1.1490 -0.0329 -0.2389
 4111TIP3    H233893   6.094   1.823   1.178  1.5129 -0.5440 -0.3667
 4112TIP3   OH233894   2.304   0.049   6.661 -1.1096  0.0931 -0.1213
 4112TIP3    H133895   2.252   0.119   6.699 -0.8477 -0.2518  0.9019
 4112TIP3    H233896   2.241  -0.020   6.641 -0.8251 -1.8621  4.4791
 4113TIP3   OH233897   5.621   5.058   1.707 -0.4902  0.2725 -0.5984
 4113TIP3    H133898   5.630   5.025   1.797 -0.1652 -0.7352 -0.9941
 4113TIP3    H233899   5.533   5.030   1.680 -0.4503  0.2682 -0.7211
 4114TIP3   OH233900   1.517   4.144   8.148  0.4584  0.3714  0.2916
 4114TIP3    H133901   1.549   4.090   8.221 -1.1783 -0.1776  0.6280
 4114TIP3    H233902   1.498   4.081   8.079  3.3511  0.9907 -1.2329
 4115TIP3   OH233903   3.532   6.192   8.132  0.1920  0.1314 -0.2326
 4115TIP3    H133904   3.599   6.148   8.184  0.9524  2.5094  0.9555
 4115TIP3    H233905   3.578   6.265   8.090 -1.1232  0.2377 -1.5734
 4116TIP3   OH233906   2.535   6.506   8.629  0.1572  0.0629  0.1408
 4116TIP3    H133907   2.532   6.596   8.597  2.9774  0.2258  0.0355
 4116TIP3    H233908   2.553   6.453   8.550 -2.1817 -0.7589  0.0773
 4117TIP3   OH233909   6.631   6.332   0.805  0.0244  0.2376 -0.2955
 4117TIP3    H133910   6.573   6.388   0.754 -0.0626  1.3640  0.9719
 4117TIP3    H233911   6.587   6.324   0.890  0.2752 -1.3835 -0.2829
 4118TIP3   OH233912   2.251   5.668   7.440  0.7142 -0.8810  0.3580
 4118TIP3    H133913   2.269   5.759   7.419  0.9185 -1.0575 -0.2500
 4118TIP3    H233914   2.168   5.650   7.396  0.6397 -0.9715  0.5343
 4119TIP3   OH233915   0.662   2.471   0.773  0.3758  0.1084  0.1872
 4119TIP3    H133916   0.677   2.559   0.740 -1.0651  0.1922 -0.3270
 4119TIP3    H233917   0.661   2.481   0.868  0.8375  0.5281  0.1539
 4120TIP3   OH233918   2.932   1.839   7.927  0.3020  0.0339 -0.5946
 4120TIP3    H133919   2.849   1.880   7.949  0.5635  0.6722 -0.7839
 4120TIP3    H233920   2.953   1.873   7.840  0.9116  0.1051 -0.4208
 4121TIP3   OH233921   1.772   0.414   2.132  0.3649  0.5724  0.2598
 4121TIP3    H133922   1.684   0.403   2.169  0.4284 -0.8586  0.0312
 4121TIP3    H233923   1.829   0.424   2.208  0.1144  0.6677  0.4366
 4122TIP3   OH233924   1.667   4.802   0.136  0.1269 -0.2909  0.0124
 4122TIP3    H133925   1.576   4.773   0.137  0.1048 -0.2422  1.0610
 4122TIP3    H233926   1.707   4.756   0.063 -1.2824  1.4821 -1.9844
 4123TIP3   OH233927   1.385   0.621   7.436  0.1479  0.4338 -0.5416
 4123TIP3    H133928   1.328   0.562   7.389  0.6850  0.3265 -1.0711
 4123TIP3    H233929   1.327   0.691   7.467 -0.2975  0.2303 -0.9035
 4124TIP3   OH233930   2.900   5.956   0.178  0.5098 -0.1020  0.4023
 4124TIP3    H133931   2.978   5.972   0.125 -0.1430 -0.6083 -0.7298
 4124TIP3    H233932   2.914   6.010   0.256  2.6356 -1.2501  0.8925
 4125TIP3   OH233933   2.922   3.502   8.396 -0.3350 -0.5281 -0.1122
 4125TIP3    H133934   2.892   3.470   8.481 -3.4435 -1.1174 -1.2985
 4125TIP3    H233935   2.894   3.435   8.333  0.6353  0.5275 -1.7606
 4126TIP3   OH233936   1.556   3.826   7.234 -0.5479 -0.0073 -0.3073
 4126TIP3    H133937   1.494   3.782   7.176 -0.2246 -1.5395  0.4487
 4126TIP3    H233938   1.630   3.849   7.177 -1.4485  1.1264 -1.0543
 4127TIP3   OH233939   4.929   6.344   7.821 -0.2659  0.5635 -0.0576
 4127TIP3    H133940   4.858   6.360   7.883  0.4601  2.5114  0.3374
 4127TIP3    H233941   4.914   6.406   7.750 -0.1888 -0.5495 -1.0725
 4128TIP3   OH233942   6.294   5.384   1.608 -0.5664  0.4475  0.1319
 4128TIP3    H133943   6.293   5.480   1.614  1.2996  0.6848 -2.0351
 4128TIP3    H233944   6.256   5.365   1.522  1.0220 -0.5954 -0.3778
 4129TIP3   OH233945   5.197   4.176   7.835 -0.9894 -0.9270  0.1180
 4129TIP3    H133946   5.165   4.088   7.818  0.9420 -1.6870  0.1276
 4129TIP3    H233947   5.252   4.168   7.913 -1.8663  0.5762  0.9391
 4130TIP3   OH233948   1.665   5.065   0.193 -0.4043 -0.3658  0.6952
 4130TIP3    H133949   1.698   4.975   0.198 -1.2016 -0.6532  0.9390
 4130TIP3    H233950   1.638   5.086   0.283  1.0778  0.6393  0.9416
 4131TIP3   OH233951   3.066   6.854   8.266  0.3790 -0.7439 -0.1269
 4131TIP3    H133952   3.129   6.925   8.254  0.1579 -0.4681  0.3225
 4131TIP3    H233953   3.110   6.777   8.230  1.7967 -0.9821  1.8943
 4132TIP3   OH233954   3.929   5.891   1.237  0.6582 -0.7567 -0.0927
 4132TIP3    H133955   3.881   5.921   1.314  0.3871  0.2643 -0.6365
 4132TIP3    H233956   3.978   5.967   1.207  0.3606 -0.9778 -1.2164
 4133TIP3   OH233957   0.742   0.235   8.255 -0.4350 -0.3212  0.6029
 4133TIP3    H133958   0.790   0.223   8.337  0.7054  0.8029  0.1286
 4133TIP3    H233959   0.725   0.147   8.224  1.9263 -0.7937  0.4649
 4134TIP3   OH233960   0.625   5.128   2.784 -0.2089  0.1945 -0.0133
 4134TIP3    H133961   0.714   5.136   2.817 -0.2929  1.1527 -0.0025
 4134TIP3    H233962   0.604   5.035   2.794  1.7379 -0.6380 -2.4659
 4135TIP3   OH233963   3.063   0.562   8.634 -0.2031 -0.0736 -0.2133
 4135TIP3    H133964   3.125   0.565   8.706  1.6582  1.9451 -1.7649
 4135TIP3    H233965   3.099   0.496   8.574  0.1913  0.7086 -0.8610
 4136TIP3   OH233966   6.251   2.760   7.517  0.4461 -0.7681  0.4064
 4136TIP3    H133967   6.192   2.805   7.457  1.3806 -0.4682 -0.3145
 4136TIP3    H233968   6.294   2.831   7.566 -0.9405 -1.0299  2.0858
 4137TIP3   OH233969   2.641   5.501   0.022 -0.2466  0.0198 -0.2879
 4137TIP3    H133970   2.548   5.505   0.048 -0.7049 -0.6251 -1.7120
 4137TIP3    H233971   2.679   5.581   0.060 -1.2125 -0.0412  0.9042
 4138TIP3   OH233972   5.233   6.280   1.056  0.0173 -0.0570  0.1186
 4138TIP3    H133973   5.261   6.297   1.146 -0.7769  0.9168  0.1950
 4138TIP3    H233974   5.139   6.296   1.056 -0.2463 -1.4450 -0.5705
 4139TIP3   OH233975   1.164   2.737   0.033 -0.2184  0.2854  0.0961
 4139TIP3    H133976   1.091   2.680   0.009 -0.0144  0.5797 -1.3194
 4139TIP3    H233977   1.227   2.680   0.076 -0.0022 -0.5864 -1.3246
 4140TIP3   OH233978   5.008   1.916   1.979 -0.3258 -0.3531  0.3780
 4140TIP3    H133979   5.078   1.885   2.035 -1.6513 -0.7665  1.8970
 4140TIP3    H233980   5.021   2.011   1.974 -1.2260  0.0031  3.0539
 4141TIP3   OH233981   5.410   1.831   8.241 -0.2514  0.0412 -0.5306
 4141TIP3    H133982   5.444   1.899   8.301 -1.7034 -0.4300  0.9100
 4141TIP3    H233983   5.332   1.870   8.203 -0.1530 -0.2194 -1.0096
 4142TIP3   OH233984   3.207   2.730   7.920  0.2402  0.3120 -0.3055
 4142TIP3    H133985   3.224   2.808   7.973 -2.3052  1.1696 -0.6323
 4142TIP3    H233986   3.280   2.727   7.858  1.0510  1.6971  0.5197
 4143TIP3   OH233987   1.642   3.105   7.550  0.1732 -0.1640  0.0752
 4143TIP3    H133988   1.717   3.145   7.506 -1.3750  1.0284 -1.6134
 4143TIP3    H233989   1.629   3.159   7.628  0.1651  0.5596 -0.4164
 4144TIP3   OH233990   5.230   4.407   7.622 -0.0520  0.2242 -0.3767
 4144TIP3    H133991   5.232   4.347   7.697  0.7285  0.4690 -0.1901
 4144TIP3    H233992   5.274   4.486   7.654 -0.3284  0.5838 -0.8819
 4145TIP3   OH233993   3.527   4.780   1.494  0.1901  0.0668 -0.0287
 4145TIP3    H133994   3.433   4.768   1.481  0.4483 -1.6562 -0.4713
 4145TIP3    H233995   3.549   4.721   1.565  1.0113  0.1843 -0.1777
 4146TIP3   OH233996   3.128   2.879   8.409 -0.0170  0.0550 -0.5053
 4146TIP3    H133997   3.065   2.951   8.415  1.8904  1.8318 -0.2586
 4146TIP3    H233998   3.167   2.889   8.322  1.0509  0.0471 -0.0433
 4147TIP3   OH233999   4.270   2.183   8.219  0.2321 -0.0144 -0.1809
 4147TIP3    H134000   4.233   2.187   8.308  1.4186 -0.1096  0.3365
 4147TIP3    H234001   4.338   2.250   8.219  1.2910 -1.0590 -0.5127
 4148TIP3   OH234002   3.474   3.588   8.531 -0.4159 -0.0682 -0.1017
 4148TIP3    H134003   3.522   3.511   8.560 -0.2095 -0.2594 -0.9239
 4148TIP3    H234004   3.414   3.555   8.464 -0.5635  0.4294 -0.2175
 4149TIP3   OH234005   2.264   1.969   1.824 -0.4727  0.3497 -0.1494
 4149TIP3    H134006   2.201   1.911   1.783 -1.6890  2.1094 -0.9062
 4149TIP3    H234007   2.329   1.987   1.756  0.0449 -0.2777  0.1622
 4150TIP3   OH234008   5.229   2.907   6.976  0.2269  0.4123 -0.2323
 4150TIP3    H134009   5.321   2.902   6.999 -0.0019  0.3524  0.7313
 4150TIP3    H234010   5.226   2.893   6.881  1.0752 -1.0019 -0.0622
 4151TIP3   OH234011   3.553   2.037   1.006 -0.3453  0.0244  0.3343
 4151TIP3    H134012   3.512   2.001   1.084 -2.0583 -0.9587 -0.9469
 4151TIP3    H234013   3.607   2.109   1.038 -2.7506  1.1337  2.2076
 4152TIP3   OH234014   3.800   3.121   0.200  0.1090 -0.5016  0.0258
 4152TIP3    H134015   3.709   3.129   0.173  0.7544  0.3401 -2.1042
 4152TIP3    H234016   3.824   3.031   0.175 -0.1983 -0.8345  0.8860
 4153TIP3   OH234017   4.314   4.317   8.224  0.5219  0.1868 -0.1465
 4153TIP3    H134018   4.392   4.287   8.177 -0.1220 -1.2005 -0.3960
 4153TIP3    H234019   4.310   4.411   8.207  1.4613  0.0671 -1.1426
 4154TIP3   OH234020   5.495   6.133   0.486 -0.2588 -0.0462  0.2372
 4154TIP3    H134021   5.461   6.103   0.571 -1.5548  0.8896  0.0762
 4154TIP3    H234022   5.452   6.077   0.422 -2.3022  1.6995 -0.0296
 4155TIP3   OH234023   3.432   4.275   2.018  0.1720  0.3040  0.4111
 4155TIP3    H134024   3.367   4.214   2.054 -0.3505  0.6697  0.0948
 4155TIP3    H234025   3.422   4.354   2.072  1.1289 -0.0137  1.0893
 4156TIP3   OH234026   1.855   4.855   1.693 -0.1363 -0.1132  0.5132
 4156TIP3    H134027   1.889   4.859   1.782  0.7448 -1.7697  0.3050
 4156TIP3    H234028   1.899   4.779   1.654  1.5753  2.0607 -2.2119
 4157TIP3   OH234029   0.490   1.820   1.616  0.2551  0.3071  0.4472
 4157TIP3    H134030   0.514   1.829   1.523 -1.7701  1.7195 -0.0042
 4157TIP3    H234031   0.421   1.754   1.617 -1.2178  1.7784  0.5971
 4158TIP3   OH234032   3.346   5.586   8.408  0.0018  0.1958  0.3371
 4158TIP3    H134033   3.393   5.575   8.326 -2.1249 -1.5846 -0.7459
 4158TIP3    H234034   3.366   5.506   8.458 -0.7771  0.0295  0.4034
 4159TIP3   OH234035   3.836   2.447   7.766 -0.0197  0.4694  0.4359
 4159TIP3    H134036   3.868   2.429   7.855  0.4818  0.0105  0.1662
 4159TIP3    H234037   3.740   2.450   7.776  0.0548  1.0487  1.1024
 4160TIP3   OH234038   6.095   1.851   0.996 -0.0968  0.2276  0.3771
 4160TIP3    H134039   6.190   1.859   0.988  0.1792 -0.3714  2.3618
 4160TIP3    H234040   6.067   1.935   1.032 -0.2955  0.3129  0.0293
 4161TIP3   OH234041   2.871   3.784   8.521 -0.1060 -0.2730 -0.1879
 4161TIP3    H134042   2.803   3.751   8.579 -1.3372 -0.9684 -1.9500
 4161TIP3    H234043   2.903   3.707   8.474 -0.8529  0.5327 -2.1417
 4162TIP3   OH234044   4.881   2.677   1.633 -0.3328 -0.1755 -0.0311
 4162TIP3    H134045   4.816   2.626   1.681  0.3963 -1.0272  0.0590
 4162TIP3    H234046   4.946   2.613   1.604  0.6502  0.7115  0.1642
 4163TIP3   OH234047   4.645   3.517   6.435 -0.4740 -0.0389 -0.2113
 4163TIP3    H134048   4.623   3.571   6.359 -0.6707 -0.0752 -0.1810
 4163TIP3    H234049   4.573   3.532   6.497 -0.3096 -0.0007 -0.0284
 4164TIP3   OH234050   0.975   1.096   0.730  0.0223 -0.3593 -0.8466
 4164TIP3    H134051   0.997   1.105   0.823 -1.9236 -1.0664 -0.2810
 4164TIP3    H234052   1.048   1.046   0.694  2.5463  2.7072 -0.5123
 4165TIP3   OH234053   3.391   0.379   1.903 -0.3310  0.0111 -0.3551
 4165TIP3    H134054   3.354   0.296   1.934 -0.5236 -0.8091 -2.6278
 4165TIP3    H234055   3.330   0.445   1.936 -1.0675 -0.8783  0.1289
 4166TIP3   OH234056   5.781   1.121   6.986 -0.4931  0.6532  0.3402
 4166TIP3    H134057   5.762   1.027   6.991  1.3942  0.1605 -0.6210
 4166TIP3    H234058   5.774   1.141   6.892  0.3414  1.1589  0.3740
 4167TIP3   OH234059   5.531   2.620   8.421 -0.3367 -0.6144 -0.1144
 4167TIP3    H134060   5.449   2.575   8.402  0.2633 -1.5967 -0.4284
 4167TIP3    H234061   5.577   2.562   8.481  0.5242 -0.5034 -0.6577
 4168TIP3   OH234062   5.531   6.354   7.784 -0.7117 -0.1658  0.1445
 4168TIP3    H134063   5.440   6.384   7.785 -0.4434  0.7328 -0.7027
 4168TIP3    H234064   5.569   6.394   7.706  0.4752 -0.3325  0.6038
 4169TIP3   OH234065   5.017   4.657   2.152 -0.5144  0.2146  0.8846
 4169TIP3    H134066   4.943   4.652   2.091 -0.2978 -1.0121  0.6949
 4169TIP3    H234067   4.976   4.670   2.238 -0.8414  1.4758  0.5560
 4170TIP3   OH234068   6.745   1.930   7.335  0.7867 -0.4490 -0.4395
 4170TIP3    H134069   6.706   1.912   7.421 -0.3367 -0.6586 -0.9771
 4170TIP3    H234070   6.772   1.844   7.303  1.1176 -0.3827 -0.3371
 4171TIP3   OH234071   3.823   2.817   6.998 -0.8099  0.0468  0.6424
 4171TIP3    H134072   3.814   2.898   6.948 -1.4980 -0.6813 -0.4601
 4171TIP3    H234073   3.750   2.762   6.968  0.0678 -1.2648  0.8096
 4172TIP3   OH234074   4.434   5.415   7.074  0.3737  0.4658 -0.1782
 4172TIP3    H134075   4.435   5.394   7.167  0.5371 -0.3433 -0.3595
 4172TIP3    H234076   4.418   5.332   7.030  2.1280  0.4971 -0.9613
 4173TIP3   OH234077   1.735   1.030   2.016 -0.6854  0.1467  0.5398
 4173TIP3    H134078   1.720   1.101   2.079  0.4405  0.8335  0.0539
 4173TIP3    H234079   1.682   1.054   1.940  0.0645  0.7253  0.1919
 4174TIP3   OH234080   0.784   4.634   0.305 -0.0627  0.1565 -0.2229
 4174TIP3    H134081   0.838   4.589   0.240 -0.5011 -0.7684  0.0386
 4174TIP3    H234082   0.846   4.677   0.363  0.3680 -0.4741 -0.2199
 4175TIP3   OH234083   0.848   2.110   0.985 -0.2384  0.0157  0.4884
 4175TIP3    H134084   0.935   2.093   0.948  0.2318 -1.4038  2.1193
 4175TIP3    H234085   0.797   2.143   0.911  1.5990  0.6407 -0.5662
 4176TIP3   OH234086   6.858   1.426   2.881 -0.0101 -0.3936  0.6885
 4176TIP3    H134087   6.768   1.453   2.864  0.0635 -0.1199  0.7307
 4176TIP3    H234088   6.911   1.497   2.847  0.1205  0.5551  2.7385
 4177TIP3   OH234089   5.806   5.854   2.164  0.6666  0.1065  0.0216
 4177TIP3    H134090   5.777   5.940   2.132 -1.3381 -0.1026  1.1728
 4177TIP3    H234091   5.821   5.867   2.257 -0.5797 -0.9932  0.3969
 4178TIP3   OH234092   2.898   2.859   0.693 -0.1710  0.2578  0.1781
 4178TIP3    H134093   2.859   2.941   0.723  0.8522  0.4832  0.9249
 4178TIP3    H234094   2.823   2.799   0.685 -1.2545  1.8007 -2.4518
 4179TIP3   OH234095   1.097   5.092   2.711  0.0422  0.1649  0.0901
 4179TIP3    H134096   1.180   5.098   2.759 -0.3578 -1.8004  1.1351
 4179TIP3    H234097   1.120   5.112   2.620  1.5969 -0.0454  0.4085
 4180TIP3   OH234098   4.660   0.792   2.062  0.6835 -0.1831  0.1079
 4180TIP3    H134099   4.654   0.855   1.991 -3.6402  0.5248  0.8188
 4180TIP3    H234100   4.630   0.709   2.024 -0.5291 -0.0747  0.7960
 4181TIP3   OH234101   3.854   5.655   2.007  0.1184  0.8119 -0.3677
 4181TIP3    H134102   3.787   5.662   2.075  0.9365  2.3572  0.3308
 4181TIP3    H234103   3.888   5.566   2.017 -1.1111  0.3408 -0.0813
 4182TIP3   OH234104   0.942   0.305   7.266 -0.5308 -0.7858 -0.1215
 4182TIP3    H134105   1.028   0.261   7.269 -0.1762 -0.0949  0.2092
 4182TIP3    H234106   0.879   0.234   7.256 -0.0561 -1.4959  1.5258
 4183TIP3   OH234107   2.270   1.544   8.546  0.3867 -0.1690 -0.3550
 4183TIP3    H134108   2.294   1.471   8.490 -0.1680  0.0705 -0.9227
 4183TIP3    H234109   2.182   1.523   8.577  0.8512 -0.5015  0.7865
 4184TIP3   OH234110   0.713   0.779   8.098  0.0969  0.7758  0.4389
 4184TIP3    H134111   0.738   0.769   8.006 -0.7406 -1.2368  0.3794
 4184TIP3    H234112   0.674   0.866   8.103 -1.3630  0.3044 -1.5107
 4185TIP3   OH234113   5.839   6.550   6.785  0.2916 -0.2838 -0.4029
 4185TIP3    H134114   5.910   6.613   6.775  0.4121 -0.7041 -2.6782
 4185TIP3    H234115   5.759   6.599   6.763  0.3603 -0.8043 -1.9288
 4186TIP3   OH234116   2.538   1.444   2.019 -0.0176 -0.2130  0.4643
 4186TIP3    H134117   2.473   1.375   2.019 -0.5446  0.2798  0.0405
 4186TIP3    H234118   2.566   1.451   2.111 -2.8899  1.7270  1.3347
 4187TIP3   OH234119   4.386   2.211   7.840  0.3978  0.7040  0.4720
 4187TIP3    H134120   4.442   2.174   7.908  2.2669 -0.5195 -1.5864
 4187TIP3    H234121   4.442   2.273   7.793 -0.7400  1.2946 -0.1683
 4188TIP3   OH234122   2.871   2.576   7.054  0.1744 -0.6716 -0.6708
 4188TIP3    H134123   2.808   2.522   7.005  1.0002 -1.9466 -0.3807
 4188TIP3    H234124   2.956   2.538   7.032  0.8494  0.9079 -0.9165
 4189TIP3   OH234125   4.706   6.469   7.960  0.3586 -0.3809  0.4414
 4189TIP3    H134126   4.628   6.509   7.922  0.9208  0.6956  0.3826
 4189TIP3    H234127   4.682   6.451   8.051  0.4538  1.1494  0.7877
 4190TIP3   OH234128   4.935   0.634   2.101 -0.1626  0.1485  0.0430
 4190TIP3    H134129   4.876   0.608   2.030 -0.4977  1.6788 -0.2846
 4190TIP3    H234130   4.885   0.699   2.151  0.8497  0.6915  0.3846
 4191TIP3   OH234131   5.278   1.160   8.142  0.0238 -0.3804  0.0891
 4191TIP3    H134132   5.201   1.143   8.088 -1.2556  3.0885  0.5825
 4191TIP3    H234133   5.255   1.129   8.229 -0.5085 -0.1163  0.0457
 4192TIP3   OH234134   1.388   1.379   0.044  0.2846  0.0736 -0.8639
 4192TIP3    H134135   1.354   1.464   0.072 -0.6797 -0.5252 -0.1574
 4192TIP3    H234136   1.375   1.378  -0.051  0.8110  0.9250 -0.9525
 4193TIP3   OH234137   6.311   3.843   8.105 -0.0441  0.6146 -0.0748
 4193TIP3    H134138   6.283   3.755   8.131 -2.5429  1.0661 -0.9657
 4193TIP3    H234139   6.395   3.828   8.060 -0.6591 -1.4153 -0.6934
 4194TIP3   OH234140   5.992   6.490   1.798 -0.2241  0.2229  0.2653
 4194TIP3    H134141   6.019   6.427   1.732 -0.1798 -1.0179  1.4393
 4194TIP3    H234142   5.896   6.492   1.793 -0.1976  0.5726 -0.2102
 4195TIP3   OH234143   0.311   1.560   7.835  0.2583 -0.2900  0.1311
 4195TIP3    H134144   0.345   1.646   7.811  2.6010 -0.9297  0.9484
 4195TIP3    H234145   0.364   1.498   7.784  0.1088 -1.3362  1.2130
 4196TIP3   OH234146   2.736   3.533   1.063 -0.0282 -0.5316  0.1953
 4196TIP3    H134147   2.831   3.526   1.070  0.1167  0.0822 -0.8802
 4196TIP3    H234148   2.722   3.588   0.985 -1.2659 -2.3546 -0.9516
 4197TIP3   OH234149   1.166   6.456   1.870 -0.2633 -0.7162 -0.3687
 4197TIP3    H134150   1.138   6.542   1.838 -0.2664 -0.4835  0.2464
 4197TIP3    H234151   1.098   6.396   1.840 -1.0830 -0.2626  0.5082
 4198TIP3   OH234152   2.143   5.804   0.580  0.0762 -0.3678  0.1905
 4198TIP3    H134153   2.187   5.824   0.497  2.1788 -2.0440  0.7947
 4198TIP3    H234154   2.093   5.725   0.562  0.8328 -0.9480  0.5791
 4199TIP3   OH234155   1.249   2.585   1.827 -0.4135  0.0284  0.1397
 4199TIP3    H134156   1.263   2.504   1.778 -0.8882  0.1034 -0.1284
 4199TIP3    H234157   1.336   2.611   1.856 -0.0608  0.2105 -1.0377
 4200TIP3   OH234158   3.691   6.528   7.801 -0.1013  0.2264  0.4219
 4200TIP3    H134159   3.731   6.589   7.863 -0.3911 -0.7145  1.5775
 4200TIP3    H234160   3.696   6.572   7.716  0.2283  1.5917  1.1284
 4201TIP3   OH234161   0.835   0.411   1.471  0.0853 -0.5333  0.0199
 4201TIP3    H134162   0.906   0.458   1.515 -1.2144  0.1372  1.4836
 4201TIP3    H234163   0.813   0.339   1.531  1.7200 -2.8419 -1.9609
 4202TIP3   OH234164   0.923   0.899   7.359  0.2342  0.4275  0.5085
 4202TIP3    H134165   0.876   0.849   7.426  0.9050  1.6551  1.9531
 4202TIP3    H234166   0.856   0.958   7.322 -0.0785 -0.0766  0.2571
 4203TIP3   OH234167   2.021   4.327   1.749  0.1380 -0.8024 -0.5262
 4203TIP3    H134168   2.011   4.244   1.796 -0.1725 -1.0208 -0.9669
 4203TIP3    H234169   2.093   4.310   1.687  1.2289 -0.2023  0.5383
 4204TIP3   OH234170   4.592   0.031   0.102 -0.0660  0.0360  0.4572
 4204TIP3    H134171   4.536   0.108   0.098  0.8426  0.6457 -1.1211
 4204TIP3    H234172   4.680   0.066   0.117  0.2863 -0.7173  0.1871
 4205TIP3   OH234173   6.282   3.262   7.392  0.1817 -0.5443 -0.0725
 4205TIP3    H134174   6.338   3.272   7.469  0.5594 -0.0295 -0.4064
 4205TIP3    H234175   6.247   3.349   7.376  0.8589 -0.4213 -1.0366
 4206TIP3   OH234176   3.252   4.701   0.918  0.7191  0.1938  0.6031
 4206TIP3    H134177   3.313   4.654   0.975  1.6905  1.7016  0.8672
 4206TIP3    H234178   3.242   4.787   0.959 -1.9331 -0.1027  0.7851
 4207TIP3   OH234179   3.343   0.636   0.387 -0.3234 -0.0590  0.1324
 4207TIP3    H134180   3.355   0.711   0.446  1.0985  0.4907 -0.8066
 4207TIP3    H234181   3.308   0.567   0.444  0.5813  0.5854  1.5530
 4208TIP3   OH234182   6.330   1.459   1.531 -0.0127  0.1365 -0.2421
 4208TIP3    H134183   6.393   1.465   1.459  0.6969 -1.6568  0.1572
 4208TIP3    H234184   6.369   1.510   1.602  0.0037  0.6752 -0.6295
 4209TIP3   OH234185   3.883   3.379   2.075 -0.0299  0.1942  0.0012
 4209TIP3    H134186   3.795   3.387   2.039  1.0304  0.7528 -2.8032
 4209TIP3    H234187   3.934   3.446   2.028  2.6040 -2.3874 -1.1520
 4210TIP3   OH234188   5.131   6.404   2.257  0.0067  0.2146 -0.5032
 4210TIP3    H134189   5.177   6.339   2.204  0.1590 -1.1238  1.2064
 4210TIP3    H234190   5.188   6.419   2.332 -1.2391  0.3348  0.4464
 4211TIP3   OH234191   6.675   6.499   2.794 -0.5355 -0.1477  0.0757
 4211TIP3    H134192   6.712   6.493   2.706 -0.7836 -0.8232  0.0080
 4211TIP3    H234193   6.580   6.508   2.779 -0.3275  4.2232  0.1527
 4212TIP3   OH234194   1.358   1.187   0.840  0.2197 -0.5374 -0.7686
 4212TIP3    H134195   1.366   1.203   0.934 -0.8897  3.8542 -1.2049
 4212TIP3    H234196   1.332   1.095   0.834 -1.0257 -0.6828  3.3065
 4213TIP3   OH234197   3.435   3.568   0.944  0.3875 -0.2675 -0.6343
 4213TIP3    H134198   3.388   3.484   0.952 -1.4332  0.5812 -1.6816
 4213TIP3    H234199   3.482   3.561   0.861  0.8759 -0.5354 -0.3390
 4214TIP3   OH234200   0.514   6.400   7.051 -0.1271  0.3562 -0.3677
 4214TIP3    H134201   0.579   6.417   6.983 -1.0592  2.8489 -0.7383
 4214TIP3    H234202   0.564   6.404   7.133  0.6948 -0.8960 -0.7873
 4215TIP3   OH234203   5.151   3.270   0.744  0.3794 -0.9992 -0.0949
 4215TIP3    H134204   5.085   3.271   0.674  2.9804 -0.8514 -2.7525
 4215TIP3    H234205   5.199   3.188   0.730  1.3074 -0.6970  1.1938
 4216TIP3   OH234206   0.135   0.633   7.790  0.6858  0.4948 -0.0722
 4216TIP3    H134207   0.187   0.554   7.798  0.2253  0.2067  0.1564
 4216TIP3    H234208   0.194   0.704   7.816  0.4973  0.0142  1.8159
 4217TIP3   OH234209   0.756   6.201   0.342 -0.1401 -0.0577  0.3529
 4217TIP3    H134210   0.809   6.133   0.382  0.3959  0.6878  0.9347
 4217TIP3    H234211   0.814   6.245   0.281 -1.2369 -1.8833 -2.1584
 4218TIP3   OH234212   0.544   1.290   2.422 -0.3118 -0.5907 -1.0271
 4218TIP3    H134213   0.459   1.301   2.378 -1.3127  0.2309  0.9859
 4218TIP3    H234214   0.526   1.228   2.492  1.1073 -1.4164 -1.3596
 4219TIP3   OH234215   3.049   3.143   8.223 -0.0891  0.0243 -0.2678
 4219TIP3    H134216   3.066   3.171   8.313 -0.6787 -0.6123  0.0528
 4219TIP3    H234217   2.959   3.111   8.224  1.0222 -3.4819 -0.1652
 4220TIP3   OH234218   1.924   2.080   1.117  0.0734  0.1537 -0.3709
 4220TIP3    H134219   1.834   2.055   1.136  0.0566  1.0711  0.9250
 4220TIP3    H234220   1.975   2.045   1.189  0.1566  2.9325  1.0687
 4221TIP3   OH234221   0.613   1.438   0.659 -0.4165 -0.2343 -0.4173
 4221TIP3    H134222   0.561   1.392   0.594 -0.0459 -0.7626 -0.3460
 4221TIP3    H234223   0.557   1.511   0.687 -1.1877 -0.8871 -0.2170
 4222TIP3   OH234224   4.960   5.229   8.596  0.4648 -0.2154  0.0490
 4222TIP3    H134225   4.920   5.187   8.673 -0.3604  2.2092  1.0247
 4222TIP3    H234226   5.046   5.257   8.626  1.6877 -2.4239 -1.0724
 4223TIP3   OH234227   1.226   3.943   7.069  0.3471  0.6613  0.5467
 4223TIP3    H134228   1.300   3.885   7.091  0.6703  1.8207  2.8538
 4223TIP3    H234229   1.180   3.897   6.999  0.7478 -2.2501  2.0312
 4224TIP3   OH234230   5.864   5.879   0.274 -0.0281 -0.3461 -0.7400
 4224TIP3    H134231   5.789   5.825   0.249 -0.7874  0.6633 -0.6916
 4224TIP3    H234232   5.882   5.933   0.196  0.5064 -0.4186 -0.6712
 4225TIP3   OH234233   1.205   6.642   6.986 -0.3602  0.2452  0.3720
 4225TIP3    H134234   1.227   6.555   7.018  0.0830 -0.0310 -0.6448
 4225TIP3    H234235   1.123   6.630   6.937  0.7458 -0.0157 -1.4884
 4226TIP3   OH234236   5.072   3.970   0.350 -0.4909 -0.8170  0.0990
 4226TIP3    H134237   5.095   4.034   0.416 -1.0288 -1.7523  1.2268
 4226TIP3    H234238   5.133   3.897   0.364 -1.0397 -1.3039  0.0253
 4227TIP3   OH234239   4.930   6.281   8.172  0.7071  0.4524  0.0481
 4227TIP3    H134240   5.020   6.266   8.141 -0.1059 -1.6605 -1.5891
 4227TIP3    H234241   4.878   6.216   8.124 -1.5185  0.7576  1.8931
 4228TIP3   OH234242   6.801   6.374   0.456 -0.5192  0.9069 -0.0665
 4228TIP3    H134243   6.881   6.386   0.407 -0.7289 -1.3181 -1.0714
 4228TIP3    H234244   6.771   6.463   0.476  1.0881  1.8068 -1.4419
 4229TIP3   OH234245   0.648   2.823   2.176 -0.4835  0.9000 -0.2148
 4229TIP3    H134246   0.574   2.851   2.230  1.0660  1.0370  1.9616
 4229TIP3    H234247   0.693   2.757   2.229  1.2096  1.1548 -1.2649
 4230TIP3   OH234248   6.691   2.700   0.214  0.1532  0.1271  0.6607
 4230TIP3    H134249   6.783   2.679   0.197  0.7399  2.2009  0.9011
 4230TIP3    H234250   6.681   2.789   0.179 -1.4804  0.3460  1.6006
 4231TIP3   OH234251   2.398   2.619   1.008  0.3421  0.2957 -0.4034
 4231TIP3    H134252   2.409   2.540   0.955  1.0330  0.4418 -0.4877
 4231TIP3    H234253   2.314   2.607   1.052 -0.7340  0.5992 -2.2649
 4232TIP3   OH234254   1.085   2.043   0.834  0.6396 -0.2647  0.2208
 4232TIP3    H134255   1.063   2.050   0.741  0.3021 -0.0838  0.3152
 4232TIP3    H234256   1.165   2.095   0.844 -0.3759  1.2949  0.3997
 4233TIP3   OH234257   3.930   1.599   7.633  0.4616  0.4423 -0.5856
 4233TIP3    H134258   3.958   1.622   7.722  0.7175 -0.2818 -0.4764
 4233TIP3    H234259   4.010   1.568   7.591 -0.1580 -1.7833 -0.2345
 4234TIP3   OH234260   1.446   5.494   1.793 -0.0171  0.3764  0.1199
 4234TIP3    H134261   1.387   5.455   1.857 -0.2140  1.4202  0.6033
 4234TIP3    H234262   1.450   5.431   1.721  1.3938 -1.5523  1.7706
 4235TIP3   OH234263   3.191   4.752   0.127 -0.4749 -0.8271 -0.0746
 4235TIP3    H134264   3.184   4.716   0.216  1.5199 -0.2893  0.3500
 4235TIP3    H234265   3.132   4.698   0.075 -1.4884 -1.3322  1.5116
 4236TIP3   OH234266   1.065   6.489   7.529 -0.2720  0.0316 -0.1322
 4236TIP3    H134267   1.103   6.573   7.502  1.8656 -0.5282  0.9322
 4236TIP3    H234268   1.042   6.445   7.448  0.1002  0.9854 -0.7668
 4237TIP3   OH234269   4.822   3.502   6.991  0.1739 -0.6868  0.4237
 4237TIP3    H134270   4.819   3.538   6.902 -0.3260 -1.8502 -0.0606
 4237TIP3    H234271   4.773   3.420   6.985  1.4680 -1.5805  1.4147
 4238TIP3   OH234272   4.479   3.868   8.341 -0.4036 -0.3663  0.2317
 4238TIP3    H134273   4.556   3.851   8.286 -0.2069 -0.1115  0.4228
 4238TIP3    H234274   4.509   3.935   8.403 -0.2812 -1.4191  1.3561
 4239TIP3   OH234275   3.242   4.181   8.445 -0.1196 -0.3361  0.1012
 4239TIP3    H134276   3.289   4.240   8.504  0.4848 -0.3408 -0.3720
 4239TIP3    H234277   3.284   4.096   8.458 -1.0068 -0.6930  0.8045
 4240TIP3   OH234278   4.631   3.806   1.488  0.3288  0.0566 -0.3864
 4240TIP3    H134279   4.633   3.902   1.499  0.3623  0.0267 -0.1105
 4240TIP3    H234280   4.587   3.775   1.567  1.9588 -0.2787  0.4365
 4241TIP3   OH234281   5.387   4.043   1.790 -0.3100 -1.0224  0.3629
 4241TIP3    H134282   5.441   4.032   1.868  0.5672 -0.8095 -0.1894
 4241TIP3    H234283   5.324   4.111   1.813  0.9710  0.2061  0.3820
 4242TIP3   OH234284   0.208   0.898   1.081  0.0861 -0.1247  0.0036
 4242TIP3    H134285   0.149   0.848   1.138  0.0889 -0.8375 -0.5969
 4242TIP3    H234286   0.153   0.926   1.008  0.7491 -2.0951 -1.3541
 4243TIP3   OH234287   5.994   0.807   1.296 -0.4229  0.6041  0.2768
 4243TIP3    H134288   5.901   0.785   1.291  0.2586 -2.5498 -2.8041
 4243TIP3    H234289   6.031   0.746   1.359 -0.2243  0.8090  0.3616
 4244TIP3   OH234290   1.969   5.784   8.088 -0.3291  0.5040  0.7357
 4244TIP3    H134291   1.891   5.731   8.070 -0.6959  1.1657  0.3296
 4244TIP3    H234292   2.027   5.726   8.138 -0.0793 -0.7921 -0.9589
 4245TIP3   OH234293   4.208   1.089   2.025  0.6961  0.1355 -0.4202
 4245TIP3    H134294   4.180   1.142   2.099  1.9143 -0.7016  0.6867
 4245TIP3    H234295   4.155   1.009   2.031  1.0419 -0.0823 -0.2343
 4246TIP3   OH234296   6.243   4.545   1.030  0.1200 -0.2432  0.1305
 4246TIP3    H134297   6.243   4.614   0.965 -1.1481 -0.9016 -0.5942
 4246TIP3    H234298   6.259   4.590   1.113  1.3003  0.6560 -0.5544
 4247TIP3   OH234299   6.606   6.482   8.352 -0.6459 -0.5688  0.3892
 4247TIP3    H134300   6.527   6.433   8.330 -0.3333 -1.2176  0.6774
 4247TIP3    H234301   6.605   6.489   8.447 -1.4064  1.2390  0.2744
 4248TIP3   OH234302   4.089   0.714   7.401 -0.1674  0.1828 -0.2118
 4248TIP3    H134303   4.153   0.769   7.446 -0.3945  0.0498  0.2774
 4248TIP3    H234304   4.128   0.627   7.402 -0.7378 -0.0825  0.8807
 4249TIP3   OH234305   3.079   0.286   0.774  0.0777 -0.3611  0.4629
 4249TIP3    H134306   3.174   0.282   0.766  0.0742 -1.3467  0.7932
 4249TIP3    H234307   3.062   0.374   0.807  0.8307  0.0096 -0.1056
 4250TIP3   OH234308   2.132   4.632   0.131  0.1996 -0.5037 -0.0777
 4250TIP3    H134309   2.174   4.569   0.189  0.3844  1.1164  1.6634
 4250TIP3    H234310   2.198   4.701   0.119 -0.1750 -0.3670 -1.4957
 4251TIP3   OH234311   0.669   3.816   8.640  0.3267  0.5334  0.1456
 4251TIP3    H134312   0.663   3.775   8.554  2.9378  0.8364 -0.2666
 4251TIP3    H234313   0.666   3.910   8.621  0.4631  0.5959  0.4333
 4252TIP3   OH234314   1.384   3.261   7.959 -0.1638  0.2399 -0.7124
 4252TIP3    H134315   1.379   3.212   7.877 -0.4145  0.3707 -0.7739
 4252TIP3    H234316   1.356   3.199   8.026 -1.2169  0.5240 -0.8776
 4253TIP3   OH234317   0.143   4.901   1.506 -0.1427  0.0232  0.4246
 4253TIP3    H134318   0.158   4.875   1.415  2.5382  0.8421  0.5512
 4253TIP3    H234319   0.050   4.886   1.520 -0.7587  0.3386 -2.6156
 4254TIP3   OH234320   0.877   6.237   8.026 -0.1696  0.0141 -0.0130
 4254TIP3    H134321   0.876   6.301   8.098  0.1479 -1.1270  1.0389
 4254TIP3    H234322   0.854   6.288   7.949  0.1249  1.4144  0.7860
 4255TIP3   OH234323   4.474   0.051   0.551 -0.1191  0.3197  0.2032
 4255TIP3    H134324   4.447  -0.018   0.612  0.5118  0.5139  0.7140
 4255TIP3    H234325   4.562   0.074   0.578  0.3955  0.0276 -1.1388
 4256TIP3   OH234326   1.528   4.208   1.317 -0.3312  0.5093 -1.0402
 4256TIP3    H134327   1.565   4.127   1.282 -1.1362 -0.2166 -0.2787
 4256TIP3    H234328   1.575   4.278   1.271  0.3614 -0.3817 -1.7342
 4257TIP3   OH234329   4.993   5.963   8.467 -0.3268 -0.5002 -0.1343
 4257TIP3    H134330   4.958   5.945   8.380  2.0498  1.3109 -1.5556
 4257TIP3    H234331   4.949   6.044   8.494 -0.9070 -0.9493  0.3213
 4258TIP3   OH234332   3.312   3.987   7.555  0.0530  0.7048  0.3479
 4258TIP3    H134333   3.369   4.031   7.492 -0.9292  0.7577 -0.5279
 4258TIP3    H234334   3.354   4.001   7.640  3.5961 -2.6986 -0.5679
 4259TIP3   OH234335   1.920   1.103   0.717 -0.0494  0.1737 -0.2493
 4259TIP3    H134336   1.981   1.167   0.680  1.8130 -1.0653  0.5251
 4259TIP3    H234337   1.889   1.143   0.798  1.2199  0.0602  0.3093
 4260TIP3   OH234338   0.776   5.374   1.981  0.1127 -0.0153 -0.2676
 4260TIP3    H134339   0.795   5.349   2.072 -0.0693  0.2556 -0.1543
 4260TIP3    H234340   0.839   5.323   1.929 -0.3878 -0.8744 -0.0641
 4261TIP3   OH234341   4.686   4.526   2.528  0.3236  0.5423  0.0315
 4261TIP3    H134342   4.644   4.610   2.510  0.5956  0.3326 -1.7413
 4261TIP3    H234343   4.617   4.471   2.564  0.1106  1.4683  1.0819
 4262TIP3   OH234344   2.872   5.153   6.568  0.1776 -0.3994 -0.2450
 4262TIP3    H134345   2.798   5.164   6.627  0.8294 -0.7562  0.6571
 4262TIP3    H234346   2.847   5.079   6.512  0.3078 -1.2481  0.7974
 4263TIP3   OH234347   0.008   2.143   8.532 -0.1491 -0.2896  0.0166
 4263TIP3    H134348   0.002   2.066   8.475 -1.1189 -1.3120  1.4449
 4263TIP3    H234349  -0.082   2.173   8.542  0.1486  0.6173  0.0336
 4264TIP3   OH234350   4.193   2.710   8.307 -0.2359 -0.1700 -0.0906
 4264TIP3    H134351   4.105   2.673   8.300 -0.1849 -0.1740 -0.8074
 4264TIP3    H234352   4.204   2.761   8.226  1.6746 -2.9352 -1.7633
 4265TIP3   OH234353   0.634   3.916   0.773 -0.9393  0.0973  0.1347
 4265TIP3    H134354   0.562   3.858   0.797 -0.5811  0.0124  1.0100
 4265TIP3    H234355   0.591   4.001   0.758 -1.5233 -0.4524 -1.5638
 4266TIP3   OH234356   1.644   1.106   1.694  0.1807 -0.2554 -0.6740
 4266TIP3    H134357   1.728   1.104   1.648 -0.4860 -0.6572 -1.9054
 4266TIP3    H234358   1.614   1.196   1.687  0.0973 -0.3086 -0.9964
 4267TIP3   OH234359   0.268   1.711   1.010  0.0716 -0.4593 -0.1599
 4267TIP3    H134360   0.241   1.755   1.091 -0.1962 -1.0348  0.0779
 4267TIP3    H234361   0.331   1.644   1.040 -1.8025 -2.2973 -0.0726
 4268TIP3   OH234362   5.148   5.029   7.364 -0.3951  0.3459  0.1405
 4268TIP3    H134363   5.060   4.997   7.346 -0.6614  0.1278  1.6578
 4268TIP3    H234364   5.193   4.955   7.403  0.5912  0.3549 -0.9442
 4269TIP3   OH234365   1.722   2.566   0.824  0.4359 -1.0308 -0.4210
 4269TIP3    H134366   1.804   2.517   0.816  0.6965 -0.6537 -0.0392
 4269TIP3    H234367   1.677   2.550   0.741  1.4270 -0.2546 -1.1271
 4270TIP3   OH234368   3.389   4.401   2.263 -0.0993  0.1844  0.2118
 4270TIP3    H134369   3.417   4.491   2.282  0.8311 -0.0289 -0.0712
 4270TIP3    H234370   3.329   4.379   2.334 -1.8455  1.6846 -0.7261
 4271TIP3   OH234371   0.569   3.086   1.094  0.2253 -0.0440 -0.0169
 4271TIP3    H134372   0.487   3.112   1.137 -1.0513 -2.4118 -0.8347
 4271TIP3    H234373   0.566   3.128   1.009 -0.3279 -0.3622 -0.1646
 4272TIP3   OH234374   3.568   2.467   7.861  0.5921  0.2727  0.2282
 4272TIP3    H134375   3.525   2.440   7.942 -0.3388  0.2718 -0.2419
 4272TIP3    H234376   3.501   2.454   7.794  0.7260  1.9959 -0.2783
 4273TIP3   OH234377   1.896   6.214   6.594  0.0228 -0.4657  0.3190
 4273TIP3    H134378   1.925   6.217   6.685 -1.4321  0.1386  0.7968
 4273TIP3    H234379   1.903   6.305   6.564 -2.1489 -0.1151  0.7392
 4274TIP3   OH234380   6.332   1.554   7.376  0.2143 -0.8227 -0.1024
 4274TIP3    H134381   6.301   1.504   7.300 -0.9668 -0.1060 -0.1192
 4274TIP3    H234382   6.383   1.491   7.426 -0.1884 -1.7045 -0.7585
 4275TIP3   OH234383   4.618   3.883   0.398  0.0614 -0.4338 -0.2833
 4275TIP3    H134384   4.634   3.829   0.476 -1.5449 -1.2629 -0.4842
 4275TIP3    H234385   4.589   3.967   0.434 -0.4102 -0.7238  0.0387
 4276TIP3   OH234386   1.563   4.574   1.617 -0.5013 -0.1306 -0.2082
 4276TIP3    H134387   1.531   4.484   1.618 -0.8479 -0.0108 -0.1533
 4276TIP3    H234388   1.658   4.566   1.609 -0.5220 -0.5027 -0.1165
 4277TIP3   OH234389   2.494   4.489   8.693 -0.7307  0.1522 -0.4158
 4277TIP3    H134390   2.499   4.550   8.619  0.3795  0.4483 -0.1179
 4277TIP3    H234391   2.586   4.470   8.714 -0.9785  0.8301  1.4726
 4278TIP3   OH234392   6.548   4.999   1.186  0.6869  0.5508 -0.5229
 4278TIP3    H134393   6.507   4.991   1.099  2.4170 -0.9919 -1.2502
 4278TIP3    H234394   6.531   4.915   1.229  0.4848  1.0307  0.3544
 4279TIP3   OH234395   0.427   4.875   2.568 -0.2880  0.0630  0.1779
 4279TIP3    H134396   0.404   4.910   2.654  2.6647  2.2548  0.2488
 4279TIP3    H234397   0.382   4.932   2.506  0.2812  0.6623  0.3049
 4280TIP3   OH234398   2.090   5.144   1.976  0.1419  0.1334 -0.1981
 4280TIP3    H134399   2.023   5.120   2.040 -0.5388 -0.0593 -0.9591
 4280TIP3    H234400   2.104   5.238   1.990 -0.4235  0.2156 -0.1399
 4281TIP3   OH234401   5.617   6.313   0.321  0.0663 -0.1907 -0.3995
 4281TIP3    H134402   5.532   6.349   0.294 -0.3424 -0.4918  0.4658
 4281TIP3    H234403   5.597   6.255   0.394  1.0303 -0.2165 -0.1418
 4282TIP3   OH234404   4.316   6.505   8.132 -0.1451 -0.2255 -0.3880
 4282TIP3    H134405   4.376   6.541   8.067  0.5519  0.1808  0.4601
 4282TIP3    H234406   4.230   6.508   8.090  0.3795 -0.5629 -1.5158
 4283TIP3   OH234407   2.930   5.841   7.681  0.1382 -0.2233 -0.3636
 4283TIP3    H134408   2.882   5.769   7.723  1.0099  0.8629  2.7678
 4283TIP3    H234409   3.022   5.816   7.689  0.5569  1.7586  2.0811
 4284TIP3   OH234410   5.167   2.902   0.230  0.0317  0.2542  0.7349
 4284TIP3    H134411   5.258   2.927   0.249  0.5363 -0.3974 -0.6286
 4284TIP3    H234412   5.160   2.910   0.135 -0.8720 -1.1710  0.6451
 4285TIP3   OH234413   1.051   2.343   0.639  0.6633 -0.5464  0.1050
 4285TIP3    H134414   0.961   2.337   0.607  0.6808  0.5377 -0.1665
 4285TIP3    H234415   1.044   2.388   0.723  1.2777  3.6410 -1.8423
 4286TIP3   OH234416   2.257   6.630   0.063 -0.0682 -0.3334  0.1109
 4286TIP3    H134417   2.310   6.671  -0.005 -0.4768  0.4801  0.2662
 4286TIP3    H234418   2.292   6.541   0.072 -0.4595 -0.7132 -1.6727
 4287TIP3   OH234419   1.774   1.061   2.316  0.1984 -0.1076 -0.3789
 4287TIP3    H134420   1.842   0.999   2.289  1.8327  1.1038  0.7675
 4287TIP3    H234421   1.786   1.137   2.259  1.6827  1.2223  1.5800
 4288TIP3   OH234422   6.363   2.570   1.253 -0.1299 -0.0046 -0.1223
 4288TIP3    H134423   6.410   2.653   1.246 -0.0996 -0.1047 -1.3179
 4288TIP3    H234424   6.386   2.536   1.340  0.7774  0.6809 -0.0825
 4289TIP3   OH234425   5.181   0.827   7.291  0.4268 -0.2280  0.2443
 4289TIP3    H134426   5.095   0.868   7.276  0.5826  0.4975  1.2255
 4289TIP3    H234427   5.232   0.847   7.213 -0.1944 -0.4047 -0.2152
 4290TIP3   OH234428   5.178   2.061   8.639 -0.5772  0.0912  0.4382
 4290TIP3    H134429   5.101   2.102   8.601 -0.5663 -0.7495 -0.5388
 4290TIP3    H234430   5.252   2.104   8.598 -0.5649 -0.7238 -0.4437
 4291TIP3   OH234431   2.814   2.123   1.014  0.0161 -0.2120 -0.4634
 4291TIP3    H134432   2.742   2.185   1.022 -0.1873 -0.4586 -0.3819
 4291TIP3    H234433   2.843   2.131   0.923 -0.0578 -0.0514 -0.4722
 4292TIP3   OH234434   2.730   2.720   7.791 -0.3257  0.1043  0.3030
 4292TIP3    H134435   2.709   2.800   7.743 -3.9473 -1.6721 -1.4006
 4292TIP3    H234436   2.697   2.736   7.879 -1.8204  0.2559 -0.2544
 4293TIP3   OH234437   1.145   3.561   1.585  0.4934  0.5272 -0.3549
 4293TIP3    H134438   1.070   3.615   1.561 -1.4581 -1.8007  0.1976
 4293TIP3    H234439   1.173   3.519   1.504  0.8229  0.8951 -0.4384
 4294TIP3   OH234440   3.974   4.466   0.841  0.2487  0.1394 -0.4481
 4294TIP3    H134441   3.927   4.464   0.758 -0.4935  0.8867 -0.0620
 4294TIP3    H234442   3.955   4.552   0.878  0.5297 -0.1913  0.5100
 4295TIP3   OH234443   5.565   4.349   0.796  0.0089 -0.0750 -0.2369
 4295TIP3    H134444   5.606   4.296   0.728  1.8194  1.5928 -0.5191
 4295TIP3    H234445   5.618   4.332   0.874  0.9026  1.5923 -0.4406
 4296TIP3   OH234446   2.354   4.719   0.489 -0.3935 -0.2981  0.2321
 4296TIP3    H134447   2.414   4.686   0.421  0.4238 -0.5962  1.0814
 4296TIP3    H234448   2.387   4.682   0.570 -1.1771  0.3124  0.8431
 4297TIP3   OH234449   4.692   3.245   6.926 -0.0395 -0.1191 -0.0691
 4297TIP3    H134450   4.610   3.255   6.876 -0.2113  0.9497  0.3977
 4297TIP3    H234451   4.758   3.227   6.859 -0.9033 -2.7899 -0.3134
 4298TIP3   OH234452   1.992   2.347   1.091 -0.4720  0.6231  0.0314
 4298TIP3    H134453   1.944   2.277   1.136  1.6749  0.5449  2.3833
 4298TIP3    H234454   2.068   2.304   1.052 -0.4861  1.2785 -0.7717
 4299TIP3   OH234455   2.754   1.677   0.246 -0.1887  0.2186  0.6794
 4299TIP3    H134456   2.689   1.608   0.264 -0.8029  0.9844  1.5085
 4299TIP3    H234457   2.717   1.726   0.173  0.6267 -0.7785 -0.4384
 4300TIP3   OH234458   2.080   4.194   7.254 -0.4027 -0.5436 -0.0179
 4300TIP3    H134459   2.102   4.245   7.175  0.3510 -0.9510 -0.0808
 4300TIP3    H234460   1.987   4.173   7.244 -0.5558  0.2473 -0.3181
 4301TIP3   OH234461   6.309   5.487   8.682  0.1464 -0.5449 -0.2886
 4301TIP3    H134462   6.334   5.419   8.619  2.2136  1.3872 -1.7096
 4301TIP3    H234463   6.295   5.565   8.628  1.7086  1.1219  1.5859
 4302TIP3   OH234464   0.536   1.239   0.910  0.2456 -0.2139 -0.5339
 4302TIP3    H134465   0.572   1.314   0.863 -1.8663  1.8164  0.8747
 4302TIP3    H234466   0.447   1.265   0.934 -0.1404 -2.6745  1.1430
 4303TIP3   OH234467   4.382   4.628   0.147 -0.0194 -0.6482 -0.1544
 4303TIP3    H134468   4.463   4.657   0.189 -0.6114  0.0596  0.5321
 4303TIP3    H234469   4.376   4.535   0.169 -0.4328 -0.2456  1.5795
 4304TIP3   OH234470   5.586   4.847   1.012  0.0957  0.4813  0.0726
 4304TIP3    H134471   5.537   4.919   1.053  1.4960  1.1188  0.6980
 4304TIP3    H234472   5.528   4.771   1.020 -1.9320  1.7250 -1.6583
 4305TIP3   OH234473   5.384   1.544   8.249 -0.7147  0.3085  0.0509
 4305TIP3    H134474   5.406   1.635   8.268 -0.6211  1.0124 -2.9701
 4305TIP3    H234475   5.291   1.546   8.227 -0.6766 -0.2901 -0.1790
 4306TIP3   OH234476   0.271   0.412   1.105  0.0767  0.7939 -0.3817
 4306TIP3    H134477   0.356   0.396   1.065 -0.4808 -0.4494 -1.1343
 4306TIP3    H234478   0.288   0.477   1.173  1.5928  0.6598 -0.6053
 4307TIP3   OH234479   3.906   0.519   7.516  0.2695 -0.7140  0.2112
 4307TIP3    H134480   3.918   0.600   7.565 -1.1458  1.1529 -2.2958
 4307TIP3    H234481   3.993   0.502   7.478  0.1488  0.8594 -0.8888
 4308TIP3   OH234482   0.862   2.756   0.348 -0.8191 -0.3945  0.9472
 4308TIP3    H134483   0.909   2.739   0.429  1.1286  0.3902  0.0547
 4308TIP3    H234484   0.887   2.845   0.324  0.5129 -1.3758 -1.6574
 4309TIP3   OH234485   3.881   0.872   0.549  0.3587 -0.1839 -0.4532
 4309TIP3    H134486   3.825   0.836   0.480  0.6125 -2.1573  0.3076
 4309TIP3    H234487   3.964   0.825   0.539  1.1207  1.0363 -0.1034
 4310TIP3   OH234488   4.094   2.054   8.602 -0.0595  0.4080 -0.4667
 4310TIP3    H134489   4.052   1.985   8.551  0.0497  0.8993 -1.2332
 4310TIP3    H234490   4.042   2.059   8.682  0.9064 -1.6861  0.3660
 4311TIP3   OH234491   5.092   3.992   7.543 -0.3263  0.6005  0.9381
 4311TIP3    H134492   5.006   4.031   7.557 -0.8220 -0.5035  1.0696
 4311TIP3    H234493   5.145   4.063   7.506 -1.7246  0.9066 -0.6122
 4312TIP3   OH234494   6.665   5.219   2.618  0.3890  0.4702 -0.4838
 4312TIP3    H134495   6.587   5.204   2.566  0.7013 -0.3786 -0.7195
 4312TIP3    H234496   6.634   5.223   2.708 -0.0445  1.1317 -0.6539
 4313TIP3   OH234497   1.570   3.434   7.619  0.4423  0.5153  0.4931
 4313TIP3    H134498   1.664   3.422   7.630  0.6079  0.8616 -0.4571
 4313TIP3    H234499   1.537   3.445   7.709  1.7340  3.3908  0.7205
 4314TIP3   OH234500   6.342   4.158   1.505 -0.4247 -0.2301 -0.7445
 4314TIP3    H134501   6.267   4.143   1.448 -2.9629  1.0852  2.0160
 4314TIP3    H234502   6.370   4.248   1.485 -1.4940  0.3342  0.1834
 4315TIP3   OH234503   6.821   4.363   1.911  0.1525  0.4310  0.2946
 4315TIP3    H134504   6.893   4.312   1.874 -0.3173 -0.7230  0.9099
 4315TIP3    H234505   6.743   4.327   1.868 -0.1810  0.6647  0.7027
 4316TIP3   OH234506   3.031   4.474   1.737  0.2970 -0.2482 -0.7596
 4316TIP3    H134507   3.041   4.461   1.832 -1.0436 -1.1094 -0.7142
 4316TIP3    H234508   3.107   4.526   1.712 -0.0058  1.1628  1.0290
 4317TIP3   OH234509   2.966   3.341   0.838 -0.4769  0.0883 -0.3838
 4317TIP3    H134510   2.958   3.363   0.931 -0.4362  2.2821 -0.8503
 4317TIP3    H234511   2.876   3.345   0.805 -0.2185  1.9707 -0.9496
 4318TIP3   OH234512   0.157   3.030   1.759 -0.2157 -0.5670 -0.6712
 4318TIP3    H134513   0.167   2.990   1.672  1.0863 -1.6645 -0.0551
 4318TIP3    H234514   0.214   3.107   1.756 -0.6172 -0.2784 -0.9704
 4319TIP3   OH234515   2.478   3.403   1.716  0.3536 -0.6386  0.1780
 4319TIP3    H134516   2.499   3.401   1.809  0.0897 -1.2107  0.2307
 4319TIP3    H234517   2.559   3.376   1.673  0.7697  0.5336  0.1750
 4320TIP3   OH234518   2.797   3.304   7.362  0.0394  0.3128  0.4630
 4320TIP3    H134519   2.733   3.367   7.395  0.8145  1.2101  0.2899
 4320TIP3    H234520   2.754   3.263   7.287 -1.0420 -0.4523  1.4454
 4321TIP3   OH234521   1.097   4.287   0.091  0.8532 -0.3763 -0.4403
 4321TIP3    H134522   1.015   4.321   0.056  2.2142  2.8346 -0.8368
 4321TIP3    H234523   1.073   4.204   0.133 -2.2310 -0.3946 -1.9979
 4322TIP3   OH234524   6.372   3.636   8.402  0.3469  0.0006  0.3029
 4322TIP3    H134525   6.293   3.685   8.381 -0.6444 -0.7162  2.0966
 4322TIP3    H234526   6.428   3.646   8.325 -1.8531 -0.2227 -1.4280
 4323TIP3   OH234527   3.657   4.985   1.843 -0.1969 -0.3649  0.0440
 4323TIP3    H134528   3.706   4.911   1.880 -0.0507 -0.2705  0.0384
 4323TIP3    H234529   3.615   5.026   1.919  1.0065  0.5048  0.2642
 4324TIP3   OH234530   6.486   4.893   0.004 -0.1783 -0.4612  1.0586
 4324TIP3    H134531   6.479   4.846   0.087  0.1972 -0.1037  1.3015
 4324TIP3    H234532   6.404   4.941  -0.003 -0.0570 -0.1937  1.4171
 4325TIP3   OH234533   2.512   0.403   0.408 -0.3715 -0.1050 -0.0815
 4325TIP3    H134534   2.548   0.315   0.417  0.3091  0.2556  0.8910
 4325TIP3    H234535   2.482   0.408   0.318 -0.2430 -1.2706 -0.1964
 4326TIP3   OH234536   1.427   2.782   0.650  0.0920 -0.5858  0.3025
 4326TIP3    H134537   1.386   2.846   0.592  1.1732 -0.6507 -0.5456
 4326TIP3    H234538   1.354   2.746   0.700 -0.6850  0.4502 -0.0430
 4327TIP3   OH234539   3.027   3.087   6.700  0.1890 -0.2087  0.1012
 4327TIP3    H134540   2.973   3.049   6.632  0.5855 -0.7701  0.0898
 4327TIP3    H234541   3.074   3.159   6.657 -0.2903  0.0621  0.0301
 4328TIP3   OH234542   0.577   0.998   8.065  0.1325  0.1847 -0.0547
 4328TIP3    H134543   0.581   1.029   7.974  2.1079  1.8164  0.5146
 4328TIP3    H234544   0.486   1.012   8.091 -0.5230 -0.5001 -1.8079
 4329TIP3   OH234545   6.173   4.668   1.263 -0.2087 -0.1633 -0.4570
 4329TIP3    H134546   6.096   4.615   1.240 -1.2571  1.2968 -0.4870
 4329TIP3    H234547   6.146   4.714   1.342  1.3123 -0.9276  0.5382
 4330TIP3   OH234548   2.805   1.399   0.182 -0.2389  0.1305 -0.2301
 4330TIP3    H134549   2.854   1.372   0.105  0.2750  1.5727 -0.4305
 4330TIP3    H234550   2.742   1.464   0.149 -0.3333  0.4080  0.4813
 4331TIP3   OH234551   0.574   3.549   0.667 -0.4320 -0.4632 -0.0697
 4331TIP3    H134552   0.559   3.529   0.575 -1.7282 -1.0738  0.2543
 4331TIP3    H234553   0.525   3.482   0.715  0.2631 -0.1867  1.0672
 4332TIP3   OH234554   0.485   2.660   1.005  0.3269 -0.0069  0.1641
 4332TIP3    H134555   0.394   2.691   1.010  0.0605 -0.5483 -1.0582
 4332TIP3    H234556   0.535   2.736   0.977  0.3328  0.4052  1.2327
 4333TIP3   OH234557   4.507   4.846   0.796  0.5980  0.1841  0.1088
 4333TIP3    H134558   4.483   4.826   0.705 -0.1852 -0.7472  0.4995
 4333TIP3    H234559   4.602   4.838   0.798  0.5208 -1.1221 -0.3428
 4334TIP3   OH234560   5.833   0.027   1.404  0.2454  0.0259 -0.3592
 4334TIP3    H134561   5.924   0.006   1.386  0.9300 -0.3264  2.9043
 4334TIP3    H234562   5.783  -0.026   1.341  2.2324 -0.4212 -1.6529
 4335TIP3   OH234563   1.160   2.900   6.245  0.3234 -0.8275 -0.1669
 4335TIP3    H134564   1.195   2.989   6.242  0.7795 -1.0055 -0.2098
 4335TIP3    H234565   1.238   2.844   6.246  0.0357 -1.2484 -0.7500
 4336TIP3   OH234566   5.517   3.972   0.749  0.4385 -0.2617  0.0339
 4336TIP3    H134567   5.561   4.020   0.679 -1.4017  0.5978 -0.6005
 4336TIP3    H234568   5.534   4.024   0.828 -0.7886  0.9970 -0.4944
 4337TIP3   OH234569   2.301   4.115   8.053 -0.4711  0.6333 -0.5998
 4337TIP3    H134570   2.271   4.099   8.142  1.6066  1.3762  0.2908
 4337TIP3    H234571   2.279   4.207   8.037 -0.6478  0.5601 -0.7850
 4338TIP3   OH234572   1.825   1.104   3.268 -0.2607  0.3311 -0.6391
 4338TIP3    H134573   1.730   1.099   3.278 -0.2004 -0.3154 -0.3395
 4338TIP3    H234574   1.840   1.187   3.223 -0.8646  1.1116  0.5468
 4339TIP3   OH234575   1.042   1.473   7.626 -0.0107 -0.1662  0.2738
 4339TIP3    H134576   1.097   1.548   7.645  1.1040 -0.3668 -1.9009
 4339TIP3    H234577   0.952   1.505   7.638  0.4938  1.0130  0.9905
 4340TIP3   OH234578   6.783   4.728   1.271  0.1109  0.1516  0.4685
 4340TIP3    H134579   6.758   4.761   1.358  0.1652  1.4436  0.0127
 4340TIP3    H234580   6.718   4.661   1.251 -0.9972  1.1061  0.7427
 4341TIP3   OH234581   6.452   6.480   0.607  0.2564 -0.1498 -0.2673
 4341TIP3    H134582   6.387   6.429   0.559 -0.3145 -1.0293  1.3484
 4341TIP3    H234583   6.408   6.563   0.626 -0.5476 -0.8333  1.0313
 4342TIP3   OH234584   6.548   5.840   1.845 -0.5588  0.8487 -0.0171
 4342TIP3    H134585   6.481   5.908   1.854  0.1645  1.9418 -2.0264
 4342TIP3    H234586   6.581   5.852   1.756  0.1237 -1.6993 -0.1704
 4343TIP3   OH234587   1.793   2.862   7.615 -0.3956 -0.1228  0.4109
 4343TIP3    H134588   1.728   2.931   7.606  1.4027  1.6641  0.5766
 4343TIP3    H234589   1.815   2.837   7.525 -0.7326 -0.2022  0.3488
 4344TIP3   OH234590   4.519   6.291   8.180 -0.2493 -0.4638 -0.4298
 4344TIP3    H134591   4.500   6.213   8.232  0.9486 -0.1115  0.5707
 4344TIP3    H234592   4.451   6.354   8.205 -0.4924 -0.7602 -0.3382
 4345TIP3   OH234593   2.254   6.113   0.340  0.7741  0.2913  0.0044
 4345TIP3    H134594   2.289   6.129   0.428 -0.2182  0.5773  0.3570
 4345TIP3    H234595   2.309   6.043   0.305  1.9269  0.9733  0.4012
 4346TIP3   OH234596   4.433   3.527   7.890 -0.3366 -0.1448 -0.1907
 4346TIP3    H134597   4.459   3.448   7.938 -1.3732 -1.2216 -1.3621
 4346TIP3    H234598   4.338   3.524   7.886 -0.6504  2.5676  2.0206
 4347TIP3   OH234599   6.230   6.566   7.882 -0.0473 -0.5750 -0.0245
 4347TIP3    H134600   6.263   6.516   7.957  2.5567  0.5105 -0.3416
 4347TIP3    H234601   6.304   6.619   7.853 -1.3499  0.0566 -2.5624
 4348TIP3   OH234602   5.367   2.608   0.660 -0.2082  0.9564  0.0492
 4348TIP3    H134603   5.450   2.571   0.627 -0.0311  1.4930 -0.1304
 4348TIP3    H234604   5.338   2.666   0.590 -0.0737  1.7588  0.6473
 4349TIP3   OH234605   6.439   4.767   1.253 -0.2373 -0.2962 -0.2872
 4349TIP3    H134606   6.344   4.759   1.239  0.0645 -1.0810 -2.1948
 4349TIP3    H234607   6.476   4.689   1.211  1.3946  0.9852 -1.3402
 4350TIP3   OH234608   3.954   0.335   8.144  0.1930  0.4923 -0.1587
 4350TIP3    H134609   3.897   0.377   8.208  0.1609 -0.1169  0.2221
 4350TIP3    H234610   4.037   0.381   8.151 -0.0960  1.0611 -0.3698
 4351TIP3   OH234611   5.191   3.052   1.887 -0.0440  0.0662 -0.4777
 4351TIP3    H134612   5.146   2.991   1.945  0.2821  0.9177  0.6876
 4351TIP3    H234613   5.269   3.004   1.859 -0.6287 -0.6612 -0.9078
 4352TIP3   OH234614   2.081   3.463   0.362  0.2870  0.2472  0.5480
 4352TIP3    H134615   2.098   3.406   0.287  1.7776  2.0974 -0.6262
 4352TIP3    H234616   1.988   3.484   0.355  0.7597  1.9857 -2.1050
 4353TIP3   OH234617   1.724   6.797   6.331  0.4775  0.4927 -0.3783
 4353TIP3    H134618   1.802   6.774   6.281  1.1434  1.5705  0.1325
 4353TIP3    H234619   1.757   6.815   6.419 -0.4981 -0.0679  0.1133
 4354TIP3   OH234620   4.815   2.015   1.760  0.3940  0.4226  0.2183
 4354TIP3    H134621   4.727   2.021   1.723 -0.3195 -4.1162  0.6177
 4354TIP3    H234622   4.810   2.066   1.840 -2.1906 -0.3451  0.6485
 4355TIP3   OH234623   2.681   6.240   7.496  0.4335  0.1024 -0.3273
 4355TIP3    H134624   2.702   6.147   7.501 -0.6622 -0.1616 -0.1907
 4355TIP3    H234625   2.676   6.259   7.402 -2.3486 -0.7604 -0.4417
 4356TIP3   OH234626   1.185   2.413   8.301  0.3852 -0.2929  0.2303
 4356TIP3    H134627   1.266   2.396   8.349  0.4073 -0.1727  0.2368
 4356TIP3    H234628   1.140   2.329   8.298 -0.7574  0.1706  2.5192
 4357TIP3   OH234629   2.427   2.615   8.621  0.4093 -0.3228 -0.3604
 4357TIP3    H134630   2.411   2.566   8.701  0.0905  0.1213 -0.1437
 4357TIP3    H234631   2.517   2.646   8.629 -0.8287  3.3471  1.8964
 4358TIP3   OH234632   6.374   0.883   1.763  0.3045 -0.5022  0.0316
 4358TIP3    H134633   6.309   0.953   1.756  0.5541 -0.4092 -1.8225
 4358TIP3    H234634   6.326   0.809   1.798 -0.6777 -0.2717 -0.8054
 4359TIP3   OH234635   2.077   3.288   7.136 -0.5604 -0.2863  0.5370
 4359TIP3    H134636   2.072   3.310   7.043  0.5159  2.6692  1.0639
 4359TIP3    H234637   2.170   3.272   7.152 -0.2745  2.0764  1.5827
 4360TIP3   OH234638   3.547   3.236   0.688  0.3432 -0.0159  0.1166
 4360TIP3    H134639   3.459   3.231   0.726  0.0381  2.6341 -0.0381
 4360TIP3    H234640   3.559   3.152   0.645 -1.9347 -0.6253  0.5250
 4361TIP3   OH234641   2.736   6.698   6.866  0.0554  0.2547  0.1638
 4361TIP3    H134642   2.664   6.729   6.810  0.5097  0.6058 -0.2350
 4361TIP3    H234643   2.813   6.700   6.809  0.8265  2.0494  1.1738
 4362TIP3   OH234644   4.934   4.568   2.434 -0.1147 -0.0714 -0.2778
 4362TIP3    H134645   4.848   4.534   2.457 -1.0611  0.0885 -3.1845
 4362TIP3    H234646   4.926   4.663   2.443 -0.2065 -0.0619 -0.4677
 4363TIP3   OH234647   2.967   5.122   8.236 -0.6571  0.8010 -0.5791
 4363TIP3    H134648   2.884   5.140   8.193 -0.7666  0.4771 -0.5081
 4363TIP3    H234649   2.970   5.183   8.310 -0.7489  0.9361 -0.6870
 4364TIP3   OH234650   6.144   4.735   0.103  0.0784 -0.4439 -0.3798
 4364TIP3    H134651   6.101   4.650   0.103  0.7528 -0.8067  0.5213
 4364TIP3    H234652   6.134   4.768   0.014 -0.7895 -1.1562 -0.5528
 4365TIP3   OH234653   4.504   2.363   7.492  0.1122 -0.0781 -0.3957
 4365TIP3    H134654   4.408   2.356   7.494 -0.0414  1.4880  1.9086
 4365TIP3    H234655   4.534   2.300   7.557  0.4316  1.0814  0.6259
 4366TIP3   OH234656   0.711   5.415   1.643  0.3725  0.5307  0.5397
 4366TIP3    H134657   0.742   5.482   1.703  1.5529 -1.3516  2.1482
 4366TIP3    H234658   0.668   5.350   1.699 -0.7787 -0.0813 -0.9656
 4367TIP3   OH234659   2.456   0.560   7.783 -0.2868  0.1777 -0.0818
 4367TIP3    H134660   2.527   0.586   7.725  0.7488 -0.0798  1.0426
 4367TIP3    H234661   2.474   0.469   7.805  0.4729  0.8221  2.2097
 4368TIP3   OH234662   5.462   0.974   0.894  0.4655 -0.1384 -0.6654
 4368TIP3    H134663   5.458   0.882   0.868 -2.8867 -0.1519 -0.6046
 4368TIP3    H234664   5.474   0.971   0.989  0.1981 -0.5189 -0.6397
 4369TIP3   OH234665   2.202   2.000   1.200  0.3441 -0.9485  0.3321
 4369TIP3    H134666   2.274   1.973   1.256  0.7304  0.8529  0.7833
 4369TIP3    H234667   2.240   2.007   1.112  0.5240 -0.7674  0.4245
 4370TIP3   OH234668   4.288   5.025   1.389 -0.6378 -0.2712 -0.0447
 4370TIP3    H134669   4.214   5.029   1.328 -0.0469  0.3690 -0.7468
 4370TIP3    H234670   4.255   4.977   1.465 -2.2525  1.3292  0.3314
 4371TIP3   OH234671   0.356   4.245   0.416 -0.2471 -0.2342  0.0625
 4371TIP3    H134672   0.368   4.164   0.466  3.6567 -1.1635 -2.0146
 4371TIP3    H234673   0.429   4.301   0.443 -0.7138  1.0887 -1.2578
 4372TIP3   OH234674   0.040   3.596   1.271  0.1993 -0.5427 -0.0098
 4372TIP3    H134675  -0.053   3.616   1.268  0.4194  0.4162 -1.6028
 4372TIP3    H234676   0.084   3.678   1.248  1.5350 -0.6051  1.9826
 4373TIP3   OH234677   5.068   2.828   2.043 -0.3374  0.1417 -0.6020
 4373TIP3    H134678   5.033   2.743   2.015  0.4117 -1.0078  1.6693
 4373TIP3    H234679   4.990   2.882   2.056 -1.2876 -1.6349  2.0814
 4374TIP3   OH234680   2.104   0.494   7.735  0.0715  0.1938  0.3406
 4374TIP3    H134681   2.175   0.558   7.744 -0.6166  0.8190  1.5462
 4374TIP3    H234682   2.142   0.412   7.768  0.1981  0.5567  1.1226
 4375TIP3   OH234683   0.714   3.109   6.705 -0.4028 -0.1550 -0.0428
 4375TIP3    H134684   0.713   3.195   6.746 -0.9429  0.3385 -1.0451
 4375TIP3    H234685   0.806   3.092   6.686 -0.4031  0.7550 -0.9399
 4376TIP3   OH234686   3.086   4.580   8.641 -0.2451  0.9225  0.2167
 4376TIP3    H134687   3.153   4.609   8.579 -1.3446  0.6025 -1.1814
 4376TIP3    H234688   3.100   4.486   8.650  0.5483  1.1301  1.2735
 4377TIP3   OH234689   2.963   2.102   7.180  0.1680 -0.3100  0.2045
 4377TIP3    H134690   3.036   2.041   7.170 -0.0728 -0.5139 -0.3236
 4377TIP3    H234691   2.923   2.106   7.093 -0.6224 -0.4148  0.5573
 4378TIP3   OH234692   3.440   1.695   1.046 -0.4898  1.1019 -0.3450
 4378TIP3    H134693   3.386   1.725   1.119  0.2639 -0.4713  0.9237
 4378TIP3    H234694   3.523   1.741   1.058 -0.4226  0.9701 -0.3045
 4379TIP3   OH234695   6.023   5.102   8.655  0.0250  0.3431  0.2607
 4379TIP3    H134696   5.989   5.146   8.733 -0.9752  2.2607 -1.1768
 4379TIP3    H234697   5.959   5.033   8.636 -0.0021  0.2108  0.8110
 4380TIP3   OH234698   2.499   6.108   1.097  0.0041  1.0853  0.2446
 4380TIP3    H134699   2.544   6.041   1.148 -2.4549 -0.4132  0.6123
 4380TIP3    H234700   2.490   6.182   1.157 -0.9764  0.1296  1.3202
 4381TIP3   OH234701   2.443   3.936   2.345  0.4199 -0.2109  0.0984
 4381TIP3    H134702   2.485   3.938   2.432 -0.5350  2.3327  0.5880
 4381TIP3    H234703   2.352   3.913   2.363  0.6875 -1.9217 -0.5402
 4382TIP3   OH234704   5.918   3.552   0.445 -0.2969  0.1799  0.0779
 4382TIP3    H134705   5.962   3.600   0.515 -0.3355 -0.2474  0.3931
 4382TIP3    H234706   5.851   3.500   0.489 -0.5906  0.2167 -0.3166
 4383TIP3   OH234707   2.540   5.423   8.113  0.8213 -0.3455  0.1878
 4383TIP3    H134708   2.479   5.353   8.135  2.2755 -1.1227  2.0694
 4383TIP3    H234709   2.491   5.504   8.128  0.2320 -0.9491  1.6797
 4384TIP3   OH234710   3.249   1.183   1.681  0.4259  0.1763 -0.0242
 4384TIP3    H134711   3.292   1.263   1.649  1.7583  0.0992  1.4753
 4384TIP3    H234712   3.261   1.186   1.776  0.8427 -1.9922  0.0307
 4385TIP3   OH234713   3.938   1.054   6.634 -0.3107  0.4136  0.1633
 4385TIP3    H134714   3.899   0.976   6.675  0.7414 -0.5741 -0.6565
 4385TIP3    H234715   4.011   1.020   6.582  0.8099  2.0620  0.5773
 4386TIP3   OH234716   2.320   1.086   8.436 -0.2520 -0.5398  0.6911
 4386TIP3    H134717   2.263   1.032   8.380  1.9447  0.1116 -2.4810
 4386TIP3    H234718   2.367   1.022   8.490 -0.2615 -1.5432 -0.4341
 4387TIP3   OH234719   3.846   1.972   6.954 -0.0225  0.3110 -0.1646
 4387TIP3    H134720   3.849   1.878   6.936 -0.2947  0.2870 -0.0827
 4387TIP3    H234721   3.753   1.994   6.954  0.0034  0.4573  0.4472
 4388TIP3   OH234722   5.956   5.739   0.764  0.4485 -0.6855  0.2637
 4388TIP3    H134723   6.036   5.790   0.777  0.7265 -1.6234  2.7436
 4388TIP3    H234724   5.901   5.795   0.710  1.7451  1.1302  0.7250
 4389TIP3   OH234725   4.654   1.096   0.276 -0.6167 -0.1320 -0.1961
 4389TIP3    H134726   4.598   1.067   0.347 -1.5828  0.1514 -0.8215
 4389TIP3    H234727   4.598   1.091   0.198 -0.3001  1.7447 -0.5879
 4390TIP3   OH234728   5.055   0.440   1.488 -0.3365 -0.3658  0.3141
 4390TIP3    H134729   5.138   0.453   1.534  0.7330  0.7412 -1.7555
 4390TIP3    H234730   4.988   0.449   1.555  1.0907  1.8515  1.5608
 4391TIP3   OH234731   2.038   0.137   8.535 -0.3430  0.1450  0.8160
 4391TIP3    H134732   2.088   0.080   8.477  1.6891  0.6316  2.0117
 4391TIP3    H234733   2.052   0.101   8.622  0.2631  1.9288  1.4969
 4392TIP3   OH234734   2.335   3.143   7.161  0.0269  0.5196  0.3305
 4392TIP3    H134735   2.418   3.096   7.172 -0.3123 -0.1290  0.0900
 4392TIP3    H234736   2.337   3.174   7.071 -0.9078 -1.2806 -0.3497
 4393TIP3   OH234737   1.161   3.038   2.525 -0.1480  0.0721  0.2386
 4393TIP3    H134738   1.181   3.086   2.444 -2.5103 -0.5708 -0.8217
 4393TIP3    H234739   1.081   3.080   2.557  1.0405  0.6939  2.6368
 4394TIP3   OH234740   2.788   1.859   0.005  0.3658  0.3518 -0.1545
 4394TIP3    H134741   2.737   1.852  -0.077 -0.1813 -1.3108  0.2841
 4394TIP3    H234742   2.875   1.826  -0.018  0.1762 -0.2355 -0.0662
 4395TIP3   OH234743   1.886   1.910   0.706 -0.4722 -0.0291  0.6291
 4395TIP3    H134744   1.916   2.000   0.701 -1.1806  0.3325  2.2701
 4395TIP3    H234745   1.827   1.908   0.782 -1.3032 -1.6302 -0.0062
 4396TIP3   OH234746   1.229   5.611   2.248  1.0203  0.7300  0.1373
 4396TIP3    H134747   1.319   5.592   2.272  0.9013 -0.8638 -0.5364
 4396TIP3    H234748   1.176   5.561   2.310  0.6827 -0.7492 -1.2485
 4397TIP3   OH234749   1.565   2.476   2.255 -0.3073 -0.2730 -0.4110
 4397TIP3    H134750   1.571   2.511   2.345 -0.1222 -0.2151 -0.4469
 4397TIP3    H234751   1.619   2.535   2.203 -0.8111 -0.0065 -0.6499
 4398TIP3   OH234752   4.353   3.912   1.285 -0.1477  0.3823  0.4822
 4398TIP3    H134753   4.385   3.822   1.283 -0.5604  0.1371  2.6294
 4398TIP3    H234754   4.326   3.930   1.195  1.0987 -1.1985 -0.2491
 4399TIP3   OH234755   3.189   3.755   8.444 -0.4032  0.5191 -0.5649
 4399TIP3    H134756   3.135   3.762   8.523 -0.1928  0.6702 -0.4345
 4399TIP3    H234757   3.243   3.834   8.445  1.5894 -0.7747  0.6230
 4400TIP3   OH234758   1.123   1.900   1.111  0.3554  0.0970 -0.1085
 4400TIP3    H134759   1.171   1.983   1.113 -0.4677  0.6700 -2.2052
 4400TIP3    H234760   1.120   1.875   1.019 -3.9129  0.4859 -0.2792
 4401TIP3   OH234761   5.452   2.811   8.607 -0.1811  0.1318 -0.1656
 4401TIP3    H134762   5.519   2.841   8.668 -0.2574  1.8730 -0.8932
 4401TIP3    H234763   5.501   2.761   8.541  0.2139  0.2213  0.0595
 4402TIP3   OH234764   5.022   4.968   8.366  0.2141  0.0468 -0.0010
 4402TIP3    H134765   5.068   5.049   8.343  0.9716 -0.8535 -1.9349
 4402TIP3    H234766   4.939   4.974   8.319 -0.1754  0.1454  0.6913
 4403TIP3   OH234767   3.294   1.941   3.068 -0.2216  0.3709  0.3038
 4403TIP3    H134768   3.284   2.036   3.060  0.3899  0.5597  1.5599
 4403TIP3    H234769   3.356   1.918   2.999  0.2416  1.0135  0.4963
 4404TIP3   OH234770   0.026   3.713   1.609  0.1627 -0.1467 -0.2224
 4404TIP3    H134771   0.114   3.682   1.629  0.2473  0.2746  0.0729
 4404TIP3    H234772   0.038   3.775   1.537  0.4132  1.6292  1.2662
 4405TIP3   OH234773   0.036   1.179   1.971 -0.1460  0.1896 -0.0100
 4405TIP3    H134774   0.042   1.262   2.019 -1.1320  0.0990  0.2949
 4405TIP3    H234775   0.096   1.120   2.018  0.8168  0.8029 -0.4298
 4406TIP3   OH234776   1.319   3.084   7.393  0.0165  0.1792 -0.0447
 4406TIP3    H134777   1.356   2.996   7.382  0.5665  0.2609  0.9576
 4406TIP3    H234778   1.225   3.070   7.395 -0.0615 -0.0603 -2.4516
 4407TIP3   OH234779   1.678   6.234   1.733 -0.5347 -0.5266  0.1609
 4407TIP3    H134780   1.712   6.321   1.752  0.0967 -1.0746  1.6617
 4407TIP3    H234781   1.606   6.222   1.794 -0.9856 -0.8635 -0.4198
 4408TIP3   OH234782   0.740   2.887   2.712  0.2249 -0.1938  0.2601
 4408TIP3    H134783   0.663   2.873   2.655  1.9895  0.7822 -2.5845
 4408TIP3    H234784   0.803   2.821   2.683  1.4897  0.8805  0.4907
 4409TIP3   OH234785   1.939   2.630   2.321 -0.2918 -0.2538 -0.6810
 4409TIP3    H134786   1.894   2.661   2.399  0.8492 -0.0946 -0.0740
 4409TIP3    H234787   1.954   2.537   2.338  1.4124  0.1260  0.0259
 4410TIP3   OH234788   0.407   4.137   7.909  0.3787  0.1684  0.0773
 4410TIP3    H134789   0.420   4.077   7.835 -0.9984 -2.4247  1.8055
 4410TIP3    H234790   0.331   4.190   7.884 -0.2558 -0.8788 -0.2562
 4411TIP3   OH234791   3.517   5.776   1.452 -0.0674 -0.2224 -0.2824
 4411TIP3    H134792   3.548   5.732   1.372 -0.0146 -1.5166  0.4219
 4411TIP3    H234793   3.514   5.706   1.518  1.3037  1.1014  1.2507
 4412TIP3   OH234794   5.967   6.280   8.222 -0.3639  0.1800 -0.4307
 4412TIP3    H134795   5.911   6.217   8.176  2.9799 -0.7670 -3.7120
 4412TIP3    H234796   6.016   6.227   8.285 -2.1316  0.8015  1.5727
 4413TIP3   OH234797   6.195   3.509   1.515 -0.3308  0.2635 -0.5551
 4413TIP3    H134798   6.134   3.536   1.583 -0.3062  0.6158 -0.6717
 4413TIP3    H234799   6.139   3.479   1.443 -0.3554 -0.3082 -0.3059
 4414TIP3   OH234800   4.811   2.174   1.970 -0.2564 -0.1950  0.0239
 4414TIP3    H134801   4.744   2.134   2.026  0.0635 -0.2484  0.3743
 4414TIP3    H234802   4.878   2.204   2.031  0.2582 -0.5575 -0.3537
 4415TIP3   OH234803   5.111   0.932   6.934  0.0286  0.2695 -0.1583
 4415TIP3    H134804   5.140   0.866   6.872 -0.4986  0.1128 -0.2391
 4415TIP3    H234805   5.188   0.948   6.990 -0.5641 -2.3558  1.5999
 4416TIP3   OH234806   0.998   2.433   7.624  0.1332 -0.0309 -0.0631
 4416TIP3    H134807   1.084   2.449   7.585 -0.2482  0.9065 -0.5615
 4416TIP3    H234808   0.960   2.520   7.633 -1.3875 -0.5372 -1.2757
 4417TIP3   OH234809   4.948   5.228   6.973 -0.4705 -0.3011 -0.1655
 4417TIP3    H134810   4.977   5.263   6.889 -1.0248  1.6053  0.3685
 4417TIP3    H234811   5.028   5.200   7.017 -0.2206 -1.7924 -1.4874
 4418TIP3   OH234812   6.453   3.591   1.717 -0.1941 -0.7246  0.0304
 4418TIP3    H134813   6.409   3.506   1.713  0.1278 -0.9137  0.4918
 4418TIP3    H234814   6.385   3.653   1.691 -0.1359 -1.2063 -1.4036
 4419TIP3   OH234815   0.874   6.762   2.028 -0.6851  0.1739 -0.0718
 4419TIP3    H134816   0.907   6.766   2.118  0.7160  0.2324 -0.5554
 4419TIP3    H234817   0.950   6.784   1.975 -1.4285 -0.1477 -1.2931
 4420TIP3   OH234818   4.044   0.679   7.962  0.7364 -0.1693 -0.3513
 4420TIP3    H134819   4.018   0.672   7.870  1.2246 -2.3643 -0.3830
 4420TIP3    H234820   3.965   0.655   8.010  1.2220 -1.8634 -0.3223
 4421TIP3   OH234821   2.191   5.435   0.618 -0.3678  0.0118 -0.0546
 4421TIP3    H134822   2.146   5.431   0.702 -0.4158  2.3752  0.1028
 4421TIP3    H234823   2.123   5.457   0.555  0.3685  3.7931  0.2119
 4422TIP3   OH234824   0.531   5.163   7.283 -0.2860 -0.3119 -0.0519
 4422TIP3    H134825   0.598   5.096   7.267 -1.1090 -1.2568  0.3878
 4422TIP3    H234826   0.549   5.193   7.372 -1.1123 -1.3841  0.5047
 4423TIP3   OH234827   6.657   1.922   2.076  0.0215  0.1822  0.5507
 4423TIP3    H134828   6.737   1.915   2.128  0.3598 -3.0267 -0.2396
 4423TIP3    H234829   6.686   1.913   1.985 -1.2377 -1.9377  0.2955
 4424TIP3   OH234830   0.508   6.241   0.222 -0.5889  0.6876 -0.0406
 4424TIP3    H134831   0.591   6.208   0.256 -1.1717  0.4200  1.1845
 4424TIP3    H234832   0.522   6.335   0.210  0.1034  0.5236 -0.5049
 4425TIP3   OH234833   6.695   4.771   8.185  0.6590  0.2758 -0.3449
 4425TIP3    H134834   6.625   4.747   8.246  0.6262 -0.0068 -0.4954
 4425TIP3    H234835   6.694   4.702   8.118 -0.3472  1.3950 -1.5412
 4426TIP3   OH234836   5.010   1.633   2.298  0.1288 -0.3701  0.0797
 4426TIP3    H134837   5.070   1.666   2.232 -1.5946 -1.3640 -2.1039
 4426TIP3    H234838   5.052   1.553   2.331 -0.1519 -1.3704 -1.8318
 4427TIP3   OH234839   6.578   0.453   1.350  0.1677 -0.7323  0.2737
 4427TIP3    H134840   6.572   0.531   1.405 -0.5362 -0.1577 -0.5900
 4427TIP3    H234841   6.496   0.452   1.301  1.5084 -0.1952 -2.1310
 4428TIP3   OH234842   4.975   0.783   1.752  0.1613 -0.2477  0.2440
 4428TIP3    H134843   5.038   0.718   1.781 -0.1790 -0.6325  0.1403
 4428TIP3    H234844   4.977   0.851   1.819  0.3183 -0.4996  0.4949
 4429TIP3   OH234845   2.744   0.276   0.702 -0.0855 -0.1492 -0.1520
 4429TIP3    H134846   2.777   0.346   0.757  0.2771  0.4315 -1.0827
 4429TIP3    H234847   2.788   0.289   0.618  0.7622 -2.0827 -0.0668
 4430TIP3   OH234848   3.179   2.543   8.460  0.0833  0.1150 -0.2675
 4430TIP3    H134849   3.086   2.520   8.452  0.4771 -1.2071 -1.4338
 4430TIP3    H234850   3.206   2.562   8.370  1.2007 -0.6047 -0.0966
 4431TIP3   OH234851   6.043   1.445   0.013  0.3440  0.3371  0.0029
 4431TIP3    H134852   5.990   1.402   0.080  1.3443  2.5512  2.3732
 4431TIP3    H234853   6.123   1.392   0.008  0.0342 -0.1507  0.1344
 4432TIP3   OH234854   4.510   4.206   1.930 -0.1302  0.1215  0.1033
 4432TIP3    H134855   4.425   4.210   1.888  0.3618  1.3148 -0.8350
 4432TIP3    H234856   4.493   4.228   2.022 -1.0420 -1.3443  0.3103
 4433TIP3   OH234857   4.993   4.858   0.302  0.0517  0.0424 -0.0303
 4433TIP3    H134858   5.050   4.882   0.229  0.0976  0.4549  0.1383
 4433TIP3    H234859   4.931   4.796   0.264 -0.0572  0.4144 -0.4719
 4434TIP3   OH234860   4.055   2.627   8.670  0.1300  0.0552  0.4248
 4434TIP3    H134861   4.071   2.718   8.694  1.8889 -0.0192 -0.2929
 4434TIP3    H234862   3.980   2.601   8.723  0.4178  1.5116  1.6206
 4435TIP3   OH234863   5.651   2.732   7.661 -0.2259 -0.1000 -0.5457
 4435TIP3    H134864   5.744   2.742   7.643 -0.4128  0.6637 -1.1473
 4435TIP3    H234865   5.610   2.809   7.621 -1.0558 -0.1420  0.1762
 4436TIP3   OH234866   4.054   3.882   8.438 -0.0792 -0.2951  0.7367
 4436TIP3    H134867   4.001   3.955   8.408  1.0252 -0.4759 -1.9156
 4436TIP3    H234868   4.116   3.921   8.501 -1.4988  0.4084  1.7404
 4437TIP3   OH234869   6.800   4.083   0.798 -0.4166  0.2323  0.7402
 4437TIP3    H134870   6.783   4.031   0.720 -0.0595 -3.5188  2.9233
 4437TIP3    H234871   6.894   4.075   0.813 -0.7675 -1.1183  2.6822
 4438TIP3   OH234872   1.676   0.015   0.506 -0.2728  0.6869  0.2904
 4438TIP3    H134873   1.674   0.108   0.527 -0.3435  0.6898  0.2710
 4438TIP3    H234874   1.608   0.004   0.439 -0.2779  0.6183  0.3065
 4439TIP3   OH234875   1.897   0.063   7.778  0.5197 -0.6887  0.1662
 4439TIP3    H134876   1.850  -0.021   7.785 -1.5642  0.0803 -2.5979
 4439TIP3    H234877   1.975   0.042   7.727  0.3472 -1.0827  0.0548
 4440TIP3   OH234878   2.077   3.533   1.460 -0.1626  0.1995 -0.2723
 4440TIP3    H134879   2.015   3.604   1.478 -0.6251 -0.3121  0.2073
 4440TIP3    H234880   2.026   3.471   1.408 -0.1064 -0.2973  0.2553
 4441TIP3   OH234881   5.338   5.151   8.118 -0.6173 -0.1950 -0.3667
 4441TIP3    H134882   5.310   5.134   8.028  1.1496  1.2473 -1.2711
 4441TIP3    H234883   5.429   5.120   8.120  0.3025  2.2960  0.0119
 4442TIP3   OH234884   0.264   2.292   1.508  0.3743  0.1802 -0.0466
 4442TIP3    H134885   0.284   2.362   1.570  0.2374  0.0258  0.1722
 4442TIP3    H234886   0.281   2.211   1.556 -0.5232  0.0462  0.0748
 4443TIP3   OH234887   3.956   4.129   8.095 -0.5864  0.7859  0.1209
 4443TIP3    H134888   3.922   4.069   8.161 -0.8468  0.1036 -0.6308
 4443TIP3    H234889   3.908   4.108   8.015  1.4324 -0.1035 -0.9383
 4444TIP3   OH234890   6.070   5.545   2.771  0.4423  0.0434  0.3036
 4444TIP3    H134891   6.060   5.473   2.834 -0.0428  0.9883  1.3526
 4444TIP3    H234892   6.149   5.590   2.798 -0.6982  1.5001  1.3792
 4445TIP3   OH234893   3.110   5.459   7.005  0.5574  0.5097 -0.3767
 4445TIP3    H134894   3.134   5.421   7.090  0.2014 -1.0434 -0.9555
 4445TIP3    H234895   3.194   5.489   6.968  0.6277  1.9412  0.8350
 4446TIP3   OH234896   2.296   6.462   0.406  0.0287 -0.3069 -0.1451
 4446TIP3    H134897   2.213   6.509   0.416 -0.8977 -1.7522 -0.7397
 4446TIP3    H234898   2.313   6.465   0.312  1.8343  1.8488  0.1574
 4447TIP3   OH234899   3.154   6.341   0.373  0.0067  0.4917 -0.3626
 4447TIP3    H134900   3.086   6.274   0.377 -1.9523  2.3992 -0.1380
 4447TIP3    H234901   3.123   6.403   0.307  1.5953  1.3865 -0.3158
 4448TIP3   OH234902   3.022   2.170   1.219 -0.5324  0.1214 -0.0781
 4448TIP3    H134903   2.956   2.156   1.151  1.7262  0.3550 -2.4816
 4448TIP3    H234904   2.981   2.231   1.280 -1.7480  2.2686 -2.8033
 4449TIP3   OH234905   0.561   5.545   8.434  0.6174 -0.0359  0.6954
 4449TIP3    H134906   0.476   5.516   8.398  0.7979 -1.4148  1.2953
 4449TIP3    H234907   0.625   5.491   8.388  1.2296  1.3246 -0.0825
 4450TIP3   OH234908   3.496   6.253   1.770  0.2430 -0.0626 -0.6912
 4450TIP3    H134909   3.532   6.216   1.689 -1.0825  0.7613 -1.7229
 4450TIP3    H234910   3.441   6.325   1.740 -0.6003  0.0194  0.9363
 4451TIP3   OH234911   2.607   1.365   8.000  0.2346  0.3298 -0.1601
 4451TIP3    H134912   2.599   1.294   8.063 -0.3704  0.5086 -0.0314
 4451TIP3    H234913   2.550   1.434   8.033  0.2764  0.6070 -0.6492
 4452TIP3   OH234914   5.572   0.540   2.238  0.9200  0.0925  0.0930
 4452TIP3    H134915   5.573   0.445   2.229  0.2109  0.0973 -0.0339
 4452TIP3    H234916   5.555   0.555   2.331  0.0712  0.0950 -0.0551
 4453TIP3   OH234917   1.930   0.389   0.369  0.3089 -0.5193  0.0526
 4453TIP3    H134918   1.937   0.352   0.281 -1.4618 -0.8166 -0.0022
 4453TIP3    H234919   1.882   0.471   0.356  0.1247 -0.5183  0.7307
 4454TIP3   OH234920   4.462   3.804   1.704 -0.5490  0.2426 -0.6117
 4454TIP3    H134921   4.387   3.777   1.756 -0.6514  0.5370 -0.6067
 4454TIP3    H234922   4.493   3.884   1.746 -0.8322  0.6671 -1.1997
 4455TIP3   OH234923   2.638   0.418   1.059 -0.4365  0.1978  0.3824
 4455TIP3    H134924   2.579   0.352   1.095 -0.9834  0.1173 -0.6237
 4455TIP3    H234925   2.635   0.490   1.122 -0.0174 -0.6199  1.3682
 4456TIP3   OH234926   0.011   1.325   8.396  0.6584  0.2227  0.0847
 4456TIP3    H134927  -0.061   1.272   8.362  0.6820  0.4624 -0.3412
 4456TIP3    H234928  -0.016   1.416   8.380  1.0240  0.3155 -0.0150
 4457TIP3   OH234929   1.918   3.336   0.836 -0.3257  0.7831  0.3243
 4457TIP3    H134930   1.933   3.333   0.930 -1.4640 -2.0414  0.5174
 4457TIP3    H234931   2.005   3.324   0.798  0.1222  1.7961  0.9933
 4458TIP3   OH234932   0.648   5.083   0.474 -1.0091 -0.1873 -0.4700
 4458TIP3    H134933   0.696   5.073   0.392  0.2116 -0.0911  0.2117
 4458TIP3    H234934   0.695   5.028   0.537 -0.8011  1.1699  0.6138
 4459TIP3   OH234935   1.459   4.329   1.570  0.3284  0.0053 -0.1321
 4459TIP3    H134936   1.511   4.269   1.625 -1.2304 -1.4280 -0.1364
 4459TIP3    H234937   1.474   4.297   1.481 -1.7344 -1.4683 -0.0163
 4460TIP3   OH234938   6.816   6.399   7.696  0.0705  0.1276  0.2203
 4460TIP3    H134939   6.867   6.479   7.709  1.6872 -0.5298 -1.4832
 4460TIP3    H234940   6.881   6.329   7.691 -1.1049 -0.9634 -0.6791
 4461TIP3   OH234941   6.051   0.086   0.226 -0.3409  0.3844  0.2752
 4461TIP3    H134942   6.029   0.001   0.264 -0.5779  0.4214  0.2249
 4461TIP3    H234943   6.141   0.103   0.254 -0.1508 -0.0659 -0.0445
 4462TIP3   OH234944   1.761   4.844   0.739 -0.5591  0.3089  0.5624
 4462TIP3    H134945   1.824   4.881   0.677  0.4635  0.1941  1.4913
 4462TIP3    H234946   1.764   4.749   0.724 -0.5206  0.3058  0.5889
 4463TIP3   OH234947   5.591   0.167   1.485 -0.8129  0.0651  0.0989
 4463TIP3    H134948   5.510   0.118   1.471 -1.4057  0.3419  2.1581
 4463TIP3    H234949   5.661   0.105   1.466 -1.5244 -1.8175  2.9331
 4464TIP3   OH234950   6.369   3.304   1.968 -0.2149 -0.0254  0.2286
 4464TIP3    H134951   6.378   3.349   1.884 -1.2181  1.5024  0.9058
 4464TIP3    H234952   6.317   3.363   2.022  0.9415 -0.6894  2.1594
 4465TIP3   OH234953   2.694   5.670   1.846  0.3961  0.2717 -0.0625
 4465TIP3    H134954   2.622   5.638   1.792  1.0733 -1.0127 -0.2377
 4465TIP3    H234955   2.653   5.694   1.929 -0.2255 -0.5966 -0.1009
 4466TIP3   OH234956   4.637   4.598   7.035 -0.2858 -0.9418  0.7115
 4466TIP3    H134957   4.578   4.588   7.110 -3.0183 -0.4800 -1.2057
 4466TIP3    H234958   4.631   4.691   7.012 -0.4512 -1.2886 -0.7632
 4467TIP3   OH234959   4.028   0.538   8.572 -0.0982 -0.3858 -0.0265
 4467TIP3    H134960   4.082   0.467   8.540  0.0560 -0.4165  0.2935
 4467TIP3    H234961   3.950   0.537   8.516  0.7886  0.4739 -1.3214
 4468TIP3   OH234962   5.826   3.288   0.573  0.0076  0.2536  0.1596
 4468TIP3    H134963   5.847   3.278   0.666  0.7888 -0.8887 -0.1209
 4468TIP3    H234964   5.892   3.236   0.527 -0.8948  0.0691 -0.9861
 4469TIP3   OH234965   4.354   3.743   0.860  0.0351 -0.1712  0.0179
 4469TIP3    H134966   4.313   3.661   0.835 -1.6509  0.4170  0.7120
 4469TIP3    H234967   4.426   3.717   0.918  0.0860 -1.1907 -0.4886
 4470TIP3   OH234968   2.433   6.816   7.991 -0.1960 -0.0791  0.4500
 4470TIP3    H134969   2.455   6.726   8.014  0.9425 -0.0800 -0.5397
 4470TIP3    H234970   2.515   6.854   7.961 -0.6978  1.2509  0.7130
 4471TIP3   OH234971   3.982   3.525   6.794 -0.0246  0.0601  0.0506
 4471TIP3    H134972   3.980   3.615   6.762 -0.8956 -0.7278 -2.2880
 4471TIP3    H234973   4.074   3.499   6.788  0.2371  0.7771  0.7675
 4472TIP3   OH234974   1.248   5.284   1.175  0.0308  0.0306 -0.1104
 4472TIP3    H134975   1.157   5.261   1.191  0.1189 -1.1041 -1.0890
 4472TIP3    H234976   1.247   5.377   1.152 -0.8296  0.1027  0.2173
 4473TIP3   OH234977   6.518   3.501   8.591  0.5183  0.2307  0.4036
 4473TIP3    H134978   6.447   3.535   8.536 -0.2124 -1.5199  0.2061
 4473TIP3    H234979   6.598   3.526   8.543  0.0986  2.2145  0.6254
 4474TIP3   OH234980   1.013   6.231   8.455 -0.1120 -0.7712 -0.3329
 4474TIP3    H134981   0.970   6.299   8.404 -0.0431 -1.1718 -0.9428
 4474TIP3    H234982   0.952   6.212   8.526  1.0024  1.7958  1.4718
 4475TIP3   OH234983   1.349   0.415   1.420 -0.5058  1.3927  0.4080
 4475TIP3    H134984   1.388   0.476   1.357 -0.2258  0.9615  0.1601
 4475TIP3    H234985   1.266   0.456   1.444 -3.0898 -0.6007 -3.8715
 4476TIP3   OH234986   1.983   2.097   8.430  0.1105 -0.3365  0.1793
 4476TIP3    H134987   1.993   2.176   8.377 -0.4633 -0.0746  0.4481
 4476TIP3    H234988   2.041   2.033   8.389  0.8112  0.3119  0.1417
 4477TIP3   OH234989   4.740   6.418   8.497  0.0941  0.2915  0.0173
 4477TIP3    H134990   4.741   6.488   8.563 -0.1246  0.9867 -0.6972
 4477TIP3    H234991   4.740   6.465   8.413  0.7393 -0.5806 -0.4822
 4478TIP3   OH234992   3.166   4.230   7.901 -0.3831  0.3037 -0.0741
 4478TIP3    H134993   3.071   4.236   7.914 -0.4643 -2.5267  1.4770
 4478TIP3    H234994   3.203   4.264   7.983 -0.2458 -1.6288  0.7176
 4479TIP3   OH234995   1.736   5.593   6.889  0.1244  0.9433 -0.0028
 4479TIP3    H134996   1.642   5.604   6.873  0.0422  0.5958  0.2535
 4479TIP3    H234997   1.744   5.585   6.984  0.5155  1.9763  0.0672
 4480TIP3   OH234998   6.255   1.050   6.832 -0.0296 -0.5467  0.3860
 4480TIP3    H134999   6.164   1.025   6.816 -0.1832  0.8413 -1.1681
 4480TIP3    H235000   6.254   1.091   6.919 -0.2410 -3.3056  1.8122
 4481TIP3   OH235001   4.474   0.848   8.019  0.0459 -0.0365  0.1125
 4481TIP3    H135002   4.501   0.939   8.036  0.2038  0.3997 -2.1636
 4481TIP3    H235003   4.391   0.839   8.066  0.2027  1.1664  0.6607
 4482TIP3   OH235004   4.870   1.930   6.967 -0.1000 -0.1265 -0.2046
 4482TIP3    H135005   4.963   1.921   6.944  0.6725  2.0414  1.6719
 4482TIP3    H235006   4.837   1.840   6.967  2.9886 -1.5311  2.7011
 4483TIP3   OH235007   4.056   0.129   1.464  0.7189 -0.9283  0.3232
 4483TIP3    H135008   3.967   0.156   1.487  0.5530  0.0754 -1.3667
 4483TIP3    H235009   4.106   0.138   1.545 -0.1872  0.8108  0.7225
 4484TIP3   OH235010   4.164   3.491   1.451 -0.4710  0.4466  0.5527
 4484TIP3    H135011   4.072   3.503   1.427 -0.6045 -0.0212  0.8282
 4484TIP3    H235012   4.184   3.402   1.425  0.0174  0.6717  0.1472
 4485TIP3   OH235013   0.100   1.192   0.736  0.4630 -0.7530 -0.2453
 4485TIP3    H135014   0.092   1.144   0.818  0.6589 -1.1098 -0.4301
 4485TIP3    H235015   0.192   1.182   0.711  1.0006  1.3625  0.6989
 4486TIP3   OH235016   0.307   0.196   0.727 -0.2967 -0.7665  0.0064
 4486TIP3    H135017   0.217   0.227   0.716 -0.5059 -1.9419 -2.3626
 4486TIP3    H235018   0.342   0.192   0.638  2.0299 -0.6402  0.8363
 4487TIP3   OH235019   0.375   1.549   7.419  0.5280  0.2272 -0.1171
 4487TIP3    H135020   0.461   1.553   7.378  1.0126 -0.5824  0.7845
 4487TIP3    H235021   0.345   1.640   7.421  1.4052  0.5277 -0.3286
 4488TIP3   OH235022   0.333   4.478   2.527 -0.3591 -0.4071 -0.0371
 4488TIP3    H135023   0.393   4.407   2.548 -0.4067  0.1413  2.1057
 4488TIP3    H235024   0.248   4.436   2.519 -0.1058 -0.8276 -0.6447
 4489TIP3   OH235025   3.566   0.781   0.225  0.0245  0.0632 -0.3484
 4489TIP3    H135026   3.555   0.704   0.169  0.1101 -0.1221 -0.1091
 4489TIP3    H235027   3.592   0.746   0.310 -1.6235  0.2406  0.2727
 4490TIP3   OH235028   5.635   3.720   0.118 -0.3638 -0.0282  0.1428
 4490TIP3    H135029   5.654   3.635   0.158  0.6611  0.4253  0.6474
 4490TIP3    H235030   5.601   3.773   0.190 -3.7062 -0.7774 -0.6939
 4491TIP3   OH235031   5.054   5.811   7.322  0.0442 -0.5116 -0.7029
 4491TIP3    H135032   5.101   5.784   7.402 -0.0261  0.5899 -0.2635
 4491TIP3    H235033   5.111   5.784   7.251  0.9280 -0.0143 -0.2063
 4492TIP3   OH235034   0.085   3.522   2.824  0.2160  0.4506 -0.1184
 4492TIP3    H135035   0.020   3.588   2.849  0.6232  0.8359 -0.0592
 4492TIP3    H235036   0.103   3.541   2.731 -1.8387 -1.4348 -0.9872
 4493TIP3   OH235037   0.379   6.750   2.384  0.2035  0.1680  0.4341
 4493TIP3    H135038   0.468   6.720   2.398  0.9898  1.3500 -1.5887
 4493TIP3    H235039   0.384   6.807   2.307 -2.6442 -1.4456 -1.1614
 4494TIP3   OH235040   5.475   2.634   8.114 -1.0835 -0.3429 -0.4147
 4494TIP3    H135041   5.556   2.657   8.068 -0.5992 -0.1094  0.5284
 4494TIP3    H235042   5.496   2.643   8.207 -1.7122 -1.8584 -0.0845
 4495TIP3   OH235043   1.796   5.730   8.397  0.2565  0.1819  0.6391
 4495TIP3    H135044   1.729   5.799   8.388  0.4120  0.3554  0.8033
 4495TIP3    H235045   1.765   5.660   8.339 -0.4514 -0.0435  1.2776
 4496TIP3   OH235046   4.560   1.824   6.282 -0.0676 -0.2718 -0.8433
 4496TIP3    H135047   4.570   1.766   6.357  3.1691 -1.1498 -1.7870
 4496TIP3    H235048   4.484   1.789   6.235 -1.2830 -0.5635  1.1807
 4497TIP3   OH235049   1.829   6.010   8.230 -0.0162  0.0284  0.7449
 4497TIP3    H135050   1.886   5.934   8.233  1.5776  1.0771 -0.9987
 4497TIP3    H235051   1.764   5.990   8.162  1.0696  0.6134 -0.5026
 4498TIP3   OH235052   0.492   5.841   8.372 -0.4140 -0.9005 -0.3979
 4498TIP3    H135053   0.550   5.787   8.425  0.3671 -0.6546 -0.9761
 4498TIP3    H235054   0.418   5.783   8.352 -0.4307 -1.1857  0.4335
 4499TIP3   OH235055   3.878   6.270   1.365 -0.1088 -0.3189  0.0391
 4499TIP3    H135056   3.787   6.273   1.393  0.0840  3.3132  0.6983
 4499TIP3    H235057   3.920   6.209   1.426 -1.5469  0.1548  1.5740
 4500TIP3   OH235058   6.659   0.463   2.354  0.0292 -0.0116  0.2712
 4500TIP3    H135059   6.597   0.397   2.323 -0.9318  0.8341  0.3294
 4500TIP3    H235060   6.611   0.546   2.345  1.0300  0.6206  0.6656
 4501TIP3   OH235061   0.161   0.299   7.470  0.3361  0.9628  0.1978
 4501TIP3    H135062   0.231   0.266   7.527  0.2390 -0.1781 -0.3037
 4501TIP3    H235063   0.180   0.259   7.385 -1.1745  0.2646  0.1711
 4502TIP3   OH235064   4.389   2.404   8.598 -0.5428  0.0914  0.2110
 4502TIP3    H135065   4.347   2.435   8.678  0.2666  0.5620  0.4618
 4502TIP3    H235066   4.386   2.479   8.539 -2.8481 -0.7915 -0.9402
 4503TIP3   OH235067   4.566   4.241   8.101  0.5296  0.7423 -0.1201
 4503TIP3    H135068   4.610   4.299   8.038 -0.3804  1.4140 -0.1557
 4503TIP3    H235069   4.621   4.246   8.179 -0.5422  3.2928  0.5878
 4504TIP3   OH235070   2.702   4.337   6.817 -0.4154 -0.2747  0.3156
 4504TIP3    H135071   2.620   4.368   6.855 -1.6390 -3.2822  0.4348
 4504TIP3    H235072   2.676   4.265   6.759  1.9229  0.4370 -1.8094
 4505TIP3   OH235073   5.787   2.008   6.930 -0.7514 -0.6453  0.6048
 4505TIP3    H135074   5.780   1.987   6.837  1.2368 -1.6404  0.6150
 4505TIP3    H235075   5.733   2.086   6.941 -0.7985 -0.3238 -1.4547
 4506TIP3   OH235076   4.619   5.153   0.999 -0.5130 -0.0618 -0.2800
 4506TIP3    H135077   4.573   5.151   1.083  0.9525  0.7324  0.6002
 4506TIP3    H235078   4.610   5.065   0.965 -0.5022 -0.6353  1.1111
 4507TIP3   OH235079   0.072   5.995   1.109 -0.2437  0.8040  0.3563
 4507TIP3    H135080   0.167   5.988   1.099 -0.3449  0.8340 -0.7902
 4507TIP3    H235081   0.038   5.915   1.067 -0.6616 -0.1285  2.3637
 4508TIP3   OH235082   3.801   6.135   7.011 -0.6190 -0.0745  0.0034
 4508TIP3    H135083   3.781   6.222   6.977 -0.5718  0.0720  0.3488
 4508TIP3    H235084   3.875   6.149   7.070  0.2345 -0.5465 -0.9295
 4509TIP3   OH235085   1.723   6.812   0.152  0.1085 -0.0437 -0.4777
 4509TIP3    H135086   1.697   6.783   0.064  0.7896  2.1047 -1.4509
 4509TIP3    H235087   1.675   6.894   0.165 -1.2656 -1.1487  1.8973
 4510TIP3   OH235088   1.322   1.847   1.815  0.0220  0.7199  0.7244
 4510TIP3    H135089   1.378   1.769   1.815  2.4923  2.3792  0.4487
 4510TIP3    H235090   1.296   1.858   1.907 -0.4867 -0.4852  0.7391
 4511TIP3   OH235091   1.123   5.000   1.430  0.0003 -0.1792  0.7145
 4511TIP3    H135092   1.197   4.983   1.372  0.6661 -1.4320  1.8606
 4511TIP3    H235093   1.046   4.998   1.374  0.5975 -1.6126 -0.0836
 4512TIP3   OH235094   5.598   6.495   8.676  0.0758 -0.5371 -0.2934
 4512TIP3    H135095   5.534   6.496   8.604 -0.3410  0.0827  0.0734
 4512TIP3    H235096   5.560   6.436   8.740 -1.2914  1.5117  0.9128
 4513TIP3   OH235097   0.587   2.419   8.540 -0.4697  0.4571  0.5076
 4513TIP3    H135098   0.646   2.480   8.496 -0.0452 -0.8397 -0.8257
 4513TIP3    H235099   0.506   2.469   8.551  0.0820  1.4816  0.0898
 4514TIP3   OH235100   3.184   1.243   1.198 -0.5938  0.0585 -0.5621
 4514TIP3    H135101   3.262   1.295   1.176 -2.0587  2.2429 -0.9229
 4514TIP3    H235102   3.185   1.171   1.135  0.1607  1.1107 -1.8155
 4515TIP3   OH235103   5.450   0.497   1.048  0.0226 -0.1034  0.1838
 4515TIP3    H135104   5.421   0.562   1.112  0.9205  2.1992 -1.5669
 4515TIP3    H235105   5.545   0.503   1.049  0.0788 -0.5810 -0.8124
 4516TIP3   OH235106   5.883   6.420   0.302  0.1828 -0.3181 -0.2122
 4516TIP3    H135107   5.807   6.362   0.301  0.2202 -0.4499  1.5438
 4516TIP3    H235108   5.848   6.506   0.278  0.2798 -1.1324 -3.7381
 4517TIP3   OH235109   3.803   0.246   6.994 -0.2006 -0.2105 -0.0046
 4517TIP3    H135110   3.848   0.240   7.079  2.4788  1.0324 -1.2112
 4517TIP3    H235111   3.857   0.307   6.943 -1.7527 -0.8661 -2.5952
 4518TIP3   OH235112   5.630   6.660   0.894  0.1179  0.2465 -0.2342
 4518TIP3    H135113   5.626   6.659   0.989 -1.2523  0.4562 -0.2700
 4518TIP3    H235114   5.678   6.581   0.870 -2.1620 -1.4422  0.5454
 4519TIP3   OH235115   1.873   5.817   1.463 -0.0784  0.5161  0.7030
 4519TIP3    H135116   1.797   5.846   1.412  1.9978  0.0935 -3.0063
 4519TIP3    H235117   1.842   5.743   1.515 -2.3397  0.8588 -0.0768
 4520TIP3   OH235118   6.285   4.073   0.087  0.7321  0.6217  0.2253
 4520TIP3    H135119   6.216   4.057   0.151  0.1446 -2.1368 -0.9389
 4520TIP3    H235120   6.364   4.036   0.128  0.1584 -2.1146 -0.8717
 4521TIP3   OH235121   5.020   5.068   0.811  0.1726 -0.4839 -0.0624
 4521TIP3    H135122   4.946   5.008   0.815 -0.6088  0.5009  0.4874
 4521TIP3    H235123   5.083   5.024   0.755  0.2531 -2.5209  1.5124
 4522TIP3   OH235124   0.611   5.142   1.499 -0.5948  0.0962  0.3136
 4522TIP3    H135125   0.556   5.066   1.479  2.4677 -1.7866 -1.7291
 4522TIP3    H235126   0.671   5.111   1.566 -0.4891  1.3596  0.8297
 4523TIP3   OH235127   4.764   5.246   8.385 -0.5285  0.6454 -0.1173
 4523TIP3    H135128   4.815   5.229   8.464  1.0276 -0.0140 -1.2159
 4523TIP3    H235129   4.757   5.160   8.341  0.3332  1.3214 -1.6532
 4524TIP3   OH235130   1.994   4.356   2.280  0.1467 -0.1286  0.4139
 4524TIP3    H135131   1.967   4.397   2.363  0.5497  0.2885  0.3457
 4524TIP3    H235132   2.058   4.290   2.305  0.0285 -0.2236  0.4645
 4525TIP3   OH235133   1.166   6.179   8.076  0.0339  0.5575 -0.0828
 4525TIP3    H135134   1.071   6.191   8.074 -0.0238  0.1702  0.1519
 4525TIP3    H235135   1.198   6.255   8.125 -0.2587  0.1269  0.7967
 4526TIP3   OH235136   2.760   1.465   7.338  0.3302  0.5754 -0.4247
 4526TIP3    H135137   2.845   1.428   7.362 -0.1459  0.4328  1.1756
 4526TIP3    H235138   2.776   1.512   7.256  1.9096  0.4056 -0.2353
 4527TIP3   OH235139   4.327   4.698   1.269  0.1104  0.3517 -0.1667
 4527TIP3    H135140   4.311   4.638   1.196 -0.0473 -1.3890  1.2536
 4527TIP3    H235141   4.420   4.690   1.287 -0.0053  0.1667  0.3455
 4528TIP3   OH235142   5.999   3.989   0.082 -0.0128  0.0680 -0.4814
 4528TIP3    H135143   6.036   4.046   0.149 -0.9846 -0.4028  0.4858
 4528TIP3    H235144   5.919   4.033   0.054 -0.8317 -0.8620  0.3564
 4529TIP3   OH235145   3.951   5.498   8.446 -0.5221 -0.1909  0.5356
 4529TIP3    H135146   3.940   5.444   8.524 -1.0466  0.2324  0.7614
 4529TIP3    H235147   3.876   5.557   8.447 -0.4038 -0.0208 -0.1608
 4530TIP3   OH235148   1.069   3.205   1.138  0.2241 -0.2656 -0.2977
 4530TIP3    H135149   1.128   3.139   1.103 -0.1317 -0.6581 -0.1665
 4530TIP3    H235150   1.034   3.249   1.061  4.0378  3.0894 -0.4601
 4531TIP3   OH235151   5.612   2.391   0.739 -0.0767 -0.1298 -0.0373
 4531TIP3    H135152   5.606   2.426   0.650 -1.6437 -2.4852 -0.9615
 4531TIP3    H235153   5.536   2.427   0.784  0.4826  0.7193  0.2617
 4532TIP3   OH235154   5.781   4.339   8.436  0.2920 -0.9447 -0.2793
 4532TIP3    H135155   5.718   4.376   8.497  0.0678 -0.4218 -0.8259
 4532TIP3    H235156   5.769   4.388   8.355  0.7187 -1.5009 -0.6924
 4533TIP3   OH235157   6.152   0.950   8.264 -0.4494  0.0088  0.3151
 4533TIP3    H135158   6.189   0.908   8.341  0.4308 -0.4051 -0.3176
 4533TIP3    H235159   6.183   0.898   8.190  0.5017  1.6242 -0.4795
 4534TIP3   OH235160   6.550   6.185   7.572 -0.2570  0.3405  0.1383
 4534TIP3    H135161   6.635   6.225   7.591  0.1306  0.0479 -0.8984
 4534TIP3    H235162   6.521   6.227   7.492 -1.0449  0.3507  0.4235
 4535TIP3   OH235163   0.720   3.831   6.870 -0.3108  0.6595  0.7185
 4535TIP3    H135164   0.741   3.760   6.931  1.3568  1.7284  1.4873
 4535TIP3    H235165   0.628   3.851   6.887 -1.0035 -1.6441  0.0701
 4536TIP3   OH235166   1.016   2.910   1.850  0.2514  0.1421  0.1017
 4536TIP3    H135167   1.104   2.943   1.833  1.4700 -1.3206  2.8496
 4536TIP3    H235168   1.013   2.825   1.806  0.3780  0.0032  0.3599
 4537TIP3   OH235169   6.267   2.981   7.296  0.0698 -0.8169  0.0853
 4537TIP3    H135170   6.356   2.970   7.262  0.7754 -0.9852  1.8692
 4537TIP3    H235171   6.257   3.075   7.307 -0.1823 -0.7581 -0.6364
 4538TIP3   OH235172   2.420   6.201   1.742 -0.1824  0.1214  0.0078
 4538TIP3    H135173   2.370   6.129   1.705 -0.2341 -0.5038  1.2268
 4538TIP3    H235174   2.479   6.158   1.805  1.8295  0.8343 -1.3014
 4539TIP3   OH235175   4.484   2.237   6.898  0.5477  0.5249 -0.6010
 4539TIP3    H135176   4.532   2.221   6.980  0.9878 -2.1653 -1.2899
 4539TIP3    H235177   4.544   2.209   6.829 -0.3412  1.4446 -1.7971
 4540TIP3   OH235178   0.429   3.419   7.667 -0.1542 -0.1321 -0.1248
 4540TIP3    H135179   0.378   3.367   7.729  0.2987 -0.2339  0.1681
 4540TIP3    H235180   0.497   3.460   7.721  0.4020 -0.4277 -0.6012
 4541TIP3   OH235181   3.222   4.865   7.309  0.0075 -0.1420 -0.0178
 4541TIP3    H135182   3.163   4.790   7.320 -0.4382  0.2607  0.3836
 4541TIP3    H235183   3.286   4.856   7.380 -0.1152 -0.0744  0.1005
 4542TIP3   OH235184   2.562   6.581   7.064 -0.0335 -0.3025  0.5723
 4542TIP3    H135185   2.516   6.658   7.097 -0.1469  0.0292 -0.3377
 4542TIP3    H235186   2.607   6.611   6.985  0.2066 -1.0834  0.3992
 4543TIP3   OH235187   1.773   6.101   7.697  0.4268  0.0424  0.1236
 4543TIP3    H135188   1.845   6.038   7.697  1.2767  0.9877  0.6386
 4543TIP3    H235189   1.699   6.052   7.734  0.8227 -0.9116 -0.3157
 4544TIP3   OH235190   4.469   3.549   0.629  0.4646 -0.2772 -0.1248
 4544TIP3    H135191   4.501   3.459   0.624  1.2060 -0.4687  4.3727
 4544TIP3    H235192   4.386   3.543   0.677  0.9715  1.4545  1.0741
 4545TIP3   OH235193   2.751   2.168   7.948  0.8602 -0.4323 -0.0948
 4545TIP3    H135194   2.703   2.086   7.964  0.7134 -1.0887 -3.3226
 4545TIP3    H235195   2.759   2.173   7.853  2.1614  2.6190  0.0755
 4546TIP3   OH235196   1.224   6.851   1.174 -0.1467 -0.0014 -0.0585
 4546TIP3    H135197   1.175   6.914   1.121  1.1361  0.7654 -0.3525
 4546TIP3    H235198   1.277   6.802   1.110  2.1906  1.6163  0.5332
 4547TIP3   OH235199   1.438   6.861   6.370  0.1975 -0.2346  0.3520
 4547TIP3    H135200   1.524   6.837   6.336  1.3289  1.9172  1.4600
 4547TIP3    H235201   1.411   6.786   6.424  0.3868 -1.7842 -1.6295
 4548TIP3   OH235202   5.259   4.250   1.896 -0.2924  0.1367  0.1074
 4548TIP3    H135203   5.294   4.307   1.963  0.5776 -1.8633  1.4473
 4548TIP3    H235204   5.195   4.304   1.849 -1.2498  1.4899  2.7896
 4549TIP3   OH235205   3.609   5.766   8.696  0.1088  0.3230 -0.2225
 4549TIP3    H135206   3.611   5.761   8.600 -1.3170  0.5758 -0.2889
 4549TIP3    H235207   3.518   5.746   8.719  0.4367  0.2519  1.0881
 4550TIP3   OH235208   2.700   2.117   7.389  0.4140  0.5519  0.1709
 4550TIP3    H135209   2.775   2.074   7.350  0.9272  0.9477  0.7008
 4550TIP3    H235210   2.634   2.048   7.398  0.3563  0.3999 -1.1646
 4551TIP3   OH235211   5.082   4.146   0.577  0.0529  0.3908 -0.2250
 4551TIP3    H135212   5.055   4.236   0.560 -2.4349 -0.3474 -0.4959
 4551TIP3    H235213   5.006   4.104   0.617  0.3215 -2.1831 -2.0984
 4552TIP3   OH235214   3.684   0.023   7.868 -0.4886 -0.7506  0.1588
 4552TIP3    H135215   3.697   0.069   7.951 -3.0543  2.6075 -1.0798
 4552TIP3    H235216   3.765   0.038   7.819 -1.0792  2.3688 -0.0462
 4553TIP3   OH235217   0.627   2.824   1.433  0.3342  0.2163  0.2602
 4553TIP3    H135218   0.704   2.815   1.377 -0.5860 -1.7147 -0.7597
 4553TIP3    H235219   0.559   2.773   1.390 -1.5523  1.8131  1.1546
 4554TIP3   OH235220   5.743   0.249   8.073  0.2203  0.3901  0.7099
 4554TIP3    H135221   5.678   0.304   8.030  1.7130 -0.1056 -2.5602
 4554TIP3    H235222   5.799   0.218   8.001  1.9222 -2.0564  2.8816
 4555TIP3   OH235223   6.452   2.707   6.720 -0.7319  0.1115  0.2913
 4555TIP3    H135224   6.480   2.751   6.800  0.8247 -0.2894  0.0051
 4555TIP3    H235225   6.456   2.613   6.740  2.8031 -0.1760 -1.1092
 4556TIP3   OH235226   1.369   2.103   1.709 -0.0044  0.3843 -0.1278
 4556TIP3    H135227   1.335   2.136   1.791 -0.7204 -0.4295 -0.0872
 4556TIP3    H235228   1.412   2.021   1.732 -0.3481  0.0698 -0.5837
 4557TIP3   OH235229   0.044   2.745   1.727 -0.0183  0.3347 -0.6435
 4557TIP3    H135230   0.035   2.704   1.813  0.6722  0.3121 -0.5749
 4557TIP3    H235231   0.063   2.837   1.746 -0.1863  0.3988 -0.7786
 4558TIP3   OH235232   2.098   3.456   8.458  0.1642  0.1676 -0.2086
 4558TIP3    H135233   2.015   3.437   8.504  0.3262  0.1136  0.0646
 4558TIP3    H235234   2.162   3.400   8.502  0.1656 -0.5103 -1.0492
 4559TIP3   OH235235   6.288   4.336   2.365 -1.1971  0.2913 -0.5703
 4559TIP3    H135236   6.203   4.294   2.350 -1.1532  0.6051 -1.8026
 4559TIP3    H235237   6.282   4.419   2.318 -0.9359  1.2688  1.0270
 4560TIP3   OH235238   5.917   4.240   2.158 -0.2504 -0.2999  0.1988
 4560TIP3    H135239   5.930   4.335   2.159  1.3155 -0.4750 -0.2648
 4560TIP3    H235240   5.965   4.208   2.233 -1.0764 -0.7206  0.5650
 4561TIP3   OH235241   1.136   5.967   0.748 -0.4970  0.3248  0.0385
 4561TIP3    H135242   1.158   5.948   0.657  1.2500 -2.2441  0.8820
 4561TIP3    H235243   1.124   5.881   0.789  0.9827  1.2692  2.7299
 4562TIP3   OH235244   3.753   6.000   8.623 -0.4575  0.4939 -0.4135
 4562TIP3    H135245   3.775   6.077   8.675 -0.3036  0.9289 -1.1021
 4562TIP3    H235246   3.727   5.934   8.687  1.2248  0.4930  0.3274
 4563TIP3   OH235247   6.560   0.775   8.141  0.0053  0.8216 -0.4009
 4563TIP3    H135248   6.567   0.815   8.228 -0.1686  2.2256 -1.0102
 4563TIP3    H235249   6.643   0.728   8.130 -1.5275 -3.0310  2.1909
 4564TIP3   OH235250   2.188   4.060   0.020 -0.1142  0.0026  0.8873
 4564TIP3    H135251   2.269   4.058   0.070 -0.5060 -0.6663  1.5195
 4564TIP3    H235252   2.203   4.000  -0.053  0.1550  0.3212  0.6765
 4565TIP3   OH235253   3.950   1.348   7.384  0.1833 -0.1353 -0.3601
 4565TIP3    H135254   4.008   1.331   7.459 -0.1629  1.3172  0.2736
 4565TIP3    H235255   4.010   1.363   7.311  0.5805  0.0542 -0.0042
 4566TIP3   OH235256   2.653   3.008   2.115  0.1106 -0.0021 -0.5833
 4566TIP3    H135257   2.713   2.935   2.131 -2.1765 -1.5289  1.7446
 4566TIP3    H235258   2.681   3.077   2.175  2.4523  1.3566 -2.9830
 4567TIP3   OH235259   3.493   2.590   2.087 -0.1517 -0.6288 -0.2677
 4567TIP3    H135260   3.485   2.511   2.033 -0.4048 -0.0025 -1.1542
 4567TIP3    H235261   3.503   2.661   2.025  1.5875 -0.1084  0.5584
 4568TIP3   OH235262   4.358   1.449   8.636  0.3487  0.1643 -0.5390
 4568TIP3    H135263   4.369   1.543   8.654  0.5846 -0.1126  0.9752
 4568TIP3    H235264   4.350   1.443   8.541 -0.3099  1.7795 -0.6235
 4569TIP3   OH235265   5.832   2.857   7.404 -0.1659 -0.4100  0.3760
 4569TIP3    H135266   5.807   2.775   7.362  0.9531 -0.3067 -0.5441
 4569TIP3    H235267   5.860   2.832   7.492 -3.0837 -0.5626  1.3686
 4570TIP3   OH235268   6.059   0.980   7.872  0.4017  0.7156 -0.1742
 4570TIP3    H135269   6.129   0.921   7.844 -1.0653 -1.1626 -0.0733
 4570TIP3    H235270   5.995   0.922   7.914 -1.7470  2.1791 -1.2737
 4571TIP3   OH235271   5.949   2.499   8.409 -0.1605  0.7863  0.2382
 4571TIP3    H135272   5.986   2.550   8.337  0.3976  0.1254  0.0395
 4571TIP3    H235273   5.865   2.540   8.428 -0.9916  0.1234 -1.7555
 4572TIP3   OH235274   6.767   3.242   0.018  0.1596  0.5491 -0.2846
 4572TIP3    H135275   6.717   3.184  -0.039  0.1887 -1.8442  1.9525
 4572TIP3    H235276   6.830   3.285  -0.041 -3.3870  2.6425 -2.9699
 4573TIP3   OH235277   5.518   5.779   7.498  0.0856 -0.1209  0.1112
 4573TIP3    H135278   5.456   5.706   7.488  0.2682 -0.5396  1.6861
 4573TIP3    H235279   5.482   5.831   7.570  1.9002 -0.7926  1.6047
 4574TIP3   OH235280   6.513   2.868   2.095  0.7168  0.2152  1.0647
 4574TIP3    H135281   6.486   2.942   2.040 -1.2923 -0.0371  1.6683
 4574TIP3    H235282   6.606   2.856   2.073  0.3887  1.1153 -1.1057
 4575TIP3   OH235283   2.422   2.362   7.917 -0.0915  0.4864 -0.2935
 4575TIP3    H135284   2.385   2.451   7.915  0.1273  0.5979  0.2452
 4575TIP3    H235285   2.493   2.368   7.981  0.9206  0.2923 -1.3812
 4576TIP3   OH235286   5.168   3.167   7.479  0.3729 -0.4770  0.3404
 4576TIP3    H135287   5.128   3.173   7.392  1.2159  0.1573 -0.0217
 4576TIP3    H235288   5.262   3.158   7.462  0.5983  0.1397  1.1815
 4577TIP3   OH235289   0.171   4.472   0.687 -0.3287 -0.0529  0.0534
 4577TIP3    H135290   0.131   4.407   0.630  2.1845  0.1135 -2.0321
 4577TIP3    H235291   0.124   4.553   0.667 -0.0865 -0.1903 -1.0985
 4578TIP3   OH235292   2.604   3.265   1.116  0.2285 -0.1542  0.1752
 4578TIP3    H135293   2.624   3.353   1.083  0.4772  0.8366  2.7212
 4578TIP3    H235294   2.517   3.246   1.081 -1.1411  2.4154  1.8495
 4579TIP3   OH235295   2.357   0.377   1.898 -0.3681  0.2905 -0.4898
 4579TIP3    H135296   2.362   0.440   1.970  1.0350 -0.3525  0.0115
 4579TIP3    H235297   2.311   0.302   1.936 -0.0335  0.1304 -0.4000
 4580TIP3   OH235298   3.376   0.837   6.704  0.3654  0.0080  0.1597
 4580TIP3    H135299   3.401   0.927   6.685  0.3807  0.2183  1.1209
 4580TIP3    H235300   3.285   0.830   6.677  0.3106  0.3675  0.2518
 4581TIP3   OH235301   2.433   1.997   1.612  0.6857  0.2103 -0.4512
 4581TIP3    H135302   2.437   1.916   1.560 -2.3963  0.6689 -1.6204
 4581TIP3    H235303   2.494   2.056   1.568  1.4972 -0.8512 -0.7917
 4582TIP3   OH235304   4.485   4.101   0.700 -0.0004 -0.0877 -0.6719
 4582TIP3    H135305   4.534   4.051   0.765  0.2843  2.2156  1.0288
 4582TIP3    H235306   4.473   4.187   0.741 -1.6274  0.8131 -2.8615
 4583TIP3   OH235307   0.555   4.219   7.633  0.2618 -0.0025 -0.3038
 4583TIP3    H135308   0.635   4.252   7.675  0.9847  0.9993 -2.3330
 4583TIP3    H235309   0.489   4.286   7.651 -0.3448 -1.1405  1.9240
 4584TIP3   OH235310   2.348   1.699   8.305  0.0085 -0.4484 -0.3948
 4584TIP3    H135311   2.424   1.641   8.295  0.7464 -0.0660  2.2170
 4584TIP3    H235312   2.303   1.666   8.383 -1.8269  0.1152 -1.1577
 4585TIP3   OH235313   6.276   4.359   0.103 -0.1174 -0.1368  0.0943
 4585TIP3    H135314   6.286   4.277   0.054  0.8746  0.0231  0.0160
 4585TIP3    H235315   6.205   4.405   0.058 -0.8338 -1.0373  0.2656
 4586TIP3   OH235316   5.460   1.644   0.544  0.2463  0.0402 -0.4423
 4586TIP3    H135317   5.555   1.630   0.547  0.1283 -0.7467 -0.1777
 4586TIP3    H235318   5.432   1.642   0.635 -0.1780 -0.8827 -0.5794
 4587TIP3   OH235319   0.417   1.498   1.418  0.1498 -0.1596  0.1296
 4587TIP3    H135320   0.503   1.500   1.461  0.0802  3.3942  0.3607
 4587TIP3    H235321   0.356   1.532   1.484 -0.6969  1.3427 -1.3662
 4588TIP3   OH235322   3.861   0.866   0.272  0.2952 -0.0897  0.0284
 4588TIP3    H135323   3.766   0.870   0.282  0.3738 -1.7079  2.3966
 4588TIP3    H235324   3.875   0.828   0.185 -1.2121  0.0092 -0.2754
 4589TIP3   OH235325   0.222   2.961   6.937  0.0912  0.4269  0.0910
 4589TIP3    H135326   0.252   2.971   6.847  1.0970  1.8133  0.5535
 4589TIP3    H235327   0.275   2.889   6.973 -1.9525 -1.7995 -1.0536
 4590TIP3   OH235328   5.148   4.134   1.079  0.2947  0.2687  0.1398
 4590TIP3    H135329   5.211   4.181   1.026  1.3856 -1.6242 -0.3498
 4590TIP3    H235330   5.138   4.049   1.035 -2.4273  0.3889  0.3330
 4591TIP3   OH235331   2.039   1.627   0.294 -0.1166  0.1857 -0.2759
 4591TIP3    H135332   2.015   1.706   0.344 -1.9118 -0.3237 -0.2401
 4591TIP3    H235333   2.035   1.655   0.203  0.5154  0.4551 -0.2217
 4592TIP3   OH235334   2.280   6.664   1.670 -0.1153 -0.3377 -0.0770
 4592TIP3    H135335   2.220   6.592   1.649 -0.9775  0.5823 -0.8770
 4592TIP3    H235336   2.352   6.654   1.608  0.1368 -0.9324  0.3035
 4593TIP3   OH235337   2.513   0.068   7.324 -0.0379  0.2530 -0.3146
 4593TIP3    H135338   2.482   0.020   7.401  0.6427 -1.5259 -1.1203
 4593TIP3    H235339   2.443   0.132   7.307 -2.0274 -1.8374 -0.4639
 4594TIP3   OH235340   2.307   0.569   2.186 -0.0729  0.1370 -0.0051
 4594TIP3    H135341   2.371   0.500   2.205  0.2519  0.5563  0.4235
 4594TIP3    H235342   2.227   0.539   2.229 -0.6181 -1.1270 -1.7821
 4595TIP3   OH235343   4.129   4.170   8.333  0.1138  0.2350  0.0316
 4595TIP3    H135344   4.199   4.219   8.290  0.3240  0.1005  0.2182
 4595TIP3    H235345   4.075   4.136   8.261  1.1347 -1.0010 -0.1910
 4596TIP3   OH235346   2.308   0.563   1.701 -0.2174 -0.1421 -0.2638
 4596TIP3    H135347   2.315   0.496   1.770 -0.3960  0.6527  0.5451
 4596TIP3    H235348   2.399   0.588   1.684 -0.2516  0.9060  0.9547
 4597TIP3   OH235349   3.293   1.916   7.426  0.0363  0.5772 -0.5436
 4597TIP3    H135350   3.242   1.909   7.507 -0.9450  0.6923 -1.1298
 4597TIP3    H235351   3.228   1.906   7.357  0.8309  0.7098 -1.3193
 4598TIP3   OH235352   3.810   3.711   1.138  0.4816  0.7740  0.0412
 4598TIP3    H135353   3.861   3.718   1.058 -0.6660 -0.1738 -0.8021
 4598TIP3    H235354   3.718   3.713   1.109 -0.1019 -4.0192  0.7142
 4599TIP3   OH235355   3.853   2.646   1.980  0.1587 -0.1747 -0.6559
 4599TIP3    H135356   3.848   2.714   2.047 -0.3313  0.5634 -1.4335
 4599TIP3    H235357   3.852   2.564   2.030  0.1415  0.3657  0.2569
 4600TIP3   OH235358   5.579   5.690   1.424 -0.6166  0.5412  0.6507
 4600TIP3    H135359   5.519   5.676   1.350 -0.1971  0.9044  0.2331
 4600TIP3    H235360   5.617   5.777   1.408  0.1057  0.2679  0.8451
 4601TIP3   OH235361   0.019   1.016   0.952 -0.0360  0.3185 -0.1204
 4601TIP3    H135362  -0.050   1.046   1.011  0.0171  0.1723  0.0136
 4601TIP3    H235363  -0.028   0.968   0.884 -0.0959  0.4842 -0.1984
 4602TIP3   OH235364   6.648   0.024   0.213 -0.8066 -0.8804 -0.0645
 4602TIP3    H135365   6.642   0.023   0.308 -1.0188  0.1110 -0.0532
 4602TIP3    H235366   6.560  -0.001   0.183 -1.6065  1.5425  0.0421
 4603TIP3   OH235367   0.165   6.517   2.249 -0.4669 -0.0575 -0.5133
 4603TIP3    H135368   0.211   6.586   2.296  0.4860 -0.7191 -0.4358
 4603TIP3    H235369   0.082   6.556   2.224 -1.0224  0.3019  1.7197
 4604TIP3   OH235370   6.323   4.446   0.362 -0.2063 -0.2292 -0.2725
 4604TIP3    H135371   6.305   4.540   0.359  1.3488  0.0918 -0.6403
 4604TIP3    H235372   6.307   4.415   0.272 -1.4912 -0.4834  0.0369
 4605TIP3   OH235373   6.494   6.362   1.438 -0.1912  0.0042  0.1047
 4605TIP3    H135374   6.586   6.387   1.434 -0.0762  0.4820  3.2467
 4605TIP3    H235375   6.460   6.407   1.515 -3.1002 -0.1657 -0.9462
 4606TIP3   OH235376   6.639   5.731   8.437 -0.7071 -0.1100 -0.7484
 4606TIP3    H135377   6.633   5.772   8.523 -0.6312  0.2523 -0.9129
 4606TIP3    H235378   6.551   5.697   8.420 -0.2926 -1.8651  0.2835
 4607TIP3   OH235379   3.546   4.691   7.179  0.2849 -0.0746 -0.4834
 4607TIP3    H135380   3.488   4.616   7.167 -0.1280  0.2753 -0.6945
 4607TIP3    H235381   3.623   4.672   7.125  0.8560 -1.0316  0.6072
 4608TIP3   OH235382   0.807   3.223   7.527 -0.7939 -0.2316  0.5836
 4608TIP3    H135383   0.724   3.271   7.533  1.0857  3.2834  0.8760
 4608TIP3    H235384   0.856   3.269   7.459  0.2449 -3.5218 -1.0970
 4609TIP3   OH235385   5.509   0.715   7.205 -0.2618 -0.3909 -0.1860
 4609TIP3    H135386   5.529   0.803   7.175 -2.0972 -0.3624 -1.4641
 4609TIP3    H235387   5.565   0.658   7.152  0.8580 -0.0408  0.5790
 4610TIP3   OH235388   1.273   4.112   0.435 -1.0018 -0.6749 -0.0562
 4610TIP3    H135389   1.291   4.022   0.462 -2.1433 -1.6534 -2.2790
 4610TIP3    H235390   1.355   4.142   0.395 -0.9490 -1.1501 -0.3117
 4611TIP3   OH235391   3.866   6.754   1.773  0.1795 -0.3760  0.5773
 4611TIP3    H135392   3.850   6.725   1.683 -0.2874  0.2297  0.4594
 4611TIP3    H235393   3.850   6.849   1.771  3.2919  0.2457  0.5769
 4612TIP3   OH235394   5.386   3.345   8.427 -0.8532 -0.5623  0.1432
 4612TIP3    H135395   5.393   3.255   8.459 -2.1785 -0.8928 -0.4670
 4612TIP3    H235396   5.456   3.391   8.473  1.0120 -2.2498 -0.8369
 4613TIP3   OH235397   0.461   5.125   7.951 -0.1357 -0.1166 -0.3793
 4613TIP3    H135398   0.402   5.087   8.016 -1.2995  0.9687 -0.7383
 4613TIP3    H235399   0.544   5.079   7.963 -0.9038 -1.3352  0.5027
 4614TIP3   OH235400   1.628   5.660   0.510 -0.2034  0.1186 -0.1438
 4614TIP3    H135401   1.665   5.733   0.559  0.5282 -0.1110 -0.3318
 4614TIP3    H235402   1.690   5.646   0.438 -0.2064 -0.8174  0.0187
 4615TIP3   OH235403   6.309   4.719   7.225  0.7465 -0.7538 -0.4489
 4615TIP3    H135404   6.341   4.785   7.286 -0.5105 -1.9295  1.5897
 4615TIP3    H235405   6.239   4.763   7.176  2.2975  0.4381 -1.6840
 4616TIP3   OH235406   0.717   2.076   1.482 -0.1003  0.7614  0.0710
 4616TIP3    H135407   0.790   2.083   1.543 -0.7385  1.3112  0.8002
 4616TIP3    H235408   0.639   2.085   1.538 -0.7431 -0.3598 -0.6029
 4617TIP3   OH235409   1.371   6.364   0.678  0.6305 -0.0188 -0.1705
 4617TIP3    H135410   1.449   6.364   0.623 -0.4007 -0.5635 -1.6948
 4617TIP3    H235411   1.399   6.404   0.761  2.5717 -0.4914 -0.5742
 4618TIP3   OH235412   6.216   2.871   1.977 -0.0651  0.2196 -0.1139
 4618TIP3    H135413   6.299   2.898   1.936 -1.0105  1.2713 -1.4155
 4618TIP3    H235414   6.201   2.938   2.043 -1.0561  1.4574 -1.5266
 4619TIP3   OH235415   1.412   3.393   0.379  0.3172 -0.0653 -0.0173
 4619TIP3    H135416   1.397   3.406   0.286 -0.3138  3.1178  0.4165
 4619TIP3    H235417   1.327   3.365   0.414  0.4935 -1.0237 -0.3423
 4620TIP3   OH235418   3.356   1.010   2.421  0.4187 -0.2098 -0.6995
 4620TIP3    H135419   3.359   1.076   2.351  0.9856  0.5383  0.0103
 4620TIP3    H235420   3.435   1.027   2.473  0.0996 -0.8761  0.0209
 4621TIP3   OH235421   0.197   3.993   0.964 -0.2899  0.2523  0.1119
 4621TIP3    H135422   0.222   4.038   1.044 -1.3348  3.4256 -1.2146
 4621TIP3    H235423   0.259   4.024   0.898 -1.0643 -0.2174 -0.8795
 4622TIP3   OH235424   2.003   0.166   0.852 -0.1131  0.3096  0.3660
 4622TIP3    H135425   1.947   0.224   0.903 -1.2095 -0.8724  0.5563
 4622TIP3    H235426   1.973   0.177   0.762  0.9563  1.4257  0.1193
 4623TIP3   OH235427   0.207   1.972   2.002  0.2119 -0.6174  0.5655
 4623TIP3    H135428   0.210   1.958   2.097 -0.2809  1.2691  0.8976
 4623TIP3    H235429   0.216   2.066   1.992 -0.2794 -0.7407 -1.2544
 4624TIP3   OH235430   0.173   0.481   7.202 -0.4256  0.1513  0.1553
 4624TIP3    H135431   0.100   0.434   7.243 -1.6554  1.2176 -0.7423
 4624TIP3    H235432   0.168   0.458   7.109  0.8966 -0.3884  0.1902
 4625TIP3   OH235433   1.918   6.851   7.371 -0.6851  0.5155  0.3347
 4625TIP3    H135434   1.953   6.931   7.411  0.1732 -0.1711  0.9963
 4625TIP3    H235435   1.981   6.783   7.395 -0.1560  0.0473 -2.1255
 4626TIP3   OH235436   5.923   2.534   2.230 -0.1275  0.3936 -0.1473
 4626TIP3    H135437   5.910   2.627   2.209 -2.7150  0.5896  1.7672
 4626TIP3    H235438   5.837   2.494   2.217  0.7835 -1.6360 -0.3476
 4627TIP3   OH235439   5.300   1.318   7.856 -0.1127 -0.1502 -0.6132
 4627TIP3    H135440   5.373   1.347   7.910 -0.6511  1.9055 -0.9039
 4627TIP3    H235441   5.238   1.280   7.919  0.4844 -0.3979 -0.1636
 4628TIP3   OH235442   3.053   0.335   2.648 -0.6995 -0.2038 -0.4506
 4628TIP3    H135443   3.093   0.292   2.573 -0.6525 -1.5859  0.3369
 4628TIP3    H235444   2.986   0.274   2.678 -0.6021  0.2442  0.7274
 4629TIP3   OH235445   1.042   2.770   7.492  0.4390 -0.2690  1.1761
 4629TIP3    H135446   1.009   2.761   7.403 -1.6789  0.5142  1.8102
 4629TIP3    H235447   1.049   2.865   7.506 -1.2564 -0.2887  2.4679
 4630TIP3   OH235448   5.224   4.459   1.447  0.0711 -0.2741 -0.2371
 4630TIP3    H135449   5.260   4.511   1.376  0.3250 -0.6621 -0.3976
 4630TIP3    H235450   5.222   4.370   1.413  1.2805 -0.6609  0.6370
 4631TIP3   OH235451   6.444   1.813   7.226  0.4485 -0.1598  0.0103
 4631TIP3    H135452   6.461   1.737   7.281 -1.3342 -0.5072  0.1417
 4631TIP3    H235453   6.349   1.823   7.227  0.2977 -0.3058 -3.1835
 4632TIP3   OH235454   1.079   4.459   7.583 -0.3718  0.6000  0.0265
 4632TIP3    H135455   1.069   4.365   7.565  0.4921  0.4712  0.1581
 4632TIP3    H235456   1.090   4.499   7.497  0.7998  0.3687  0.0520
 4633TIP3   OH235457   6.781   5.158   2.343 -0.3488  0.3602 -0.1233
 4633TIP3    H135458   6.751   5.220   2.409  0.0183  1.0908 -0.6339
 4633TIP3    H235459   6.727   5.080   2.356 -0.3595  0.5374  0.9566
 4634TIP3   OH235460   1.344   5.985   8.008 -0.8406 -0.5394  0.0466
 4634TIP3    H135461   1.287   5.945   7.942 -2.4872 -1.2548  1.8080
 4634TIP3    H235462   1.286   6.043   8.057  0.9024  1.9783 -0.6756
 4635TIP3   OH235463   6.454   0.555   0.665 -0.0650  0.2504 -0.9635
 4635TIP3    H135464   6.493   0.502   0.735 -1.3580 -1.7920 -1.7188
 4635TIP3    H235465   6.529   0.589   0.617  0.8238  0.1822  0.3171
 4636TIP3   OH235466   2.158   4.146   8.287 -0.0833 -0.1382 -0.4942
 4636TIP3    H135467   2.116   4.211   8.230 -1.5000  0.3984  1.0716
 4636TIP3    H235468   2.088   4.084   8.307  0.8894 -1.3899 -0.8274
 4637TIP3   OH235469   6.135   4.784   7.639  0.2606  0.6620  0.0926
 4637TIP3    H135470   6.051   4.743   7.660  0.4714 -1.1124 -2.0743
 4637TIP3    H235471   6.201   4.719   7.665  0.9225  1.5990  0.8251
 4638TIP3   OH235472   4.220   4.562   0.442  0.2516  0.6796 -0.1987
 4638TIP3    H135473   4.147   4.505   0.417  0.6985  0.0173 -0.0146
 4638TIP3    H235474   4.269   4.511   0.506 -0.2048  1.8804  1.1731
 4639TIP3   OH235475   3.123   3.385   7.582  0.1689  0.2280  0.5378
 4639TIP3    H135476   3.183   3.326   7.537 -0.6613  0.2881 -0.7032
 4639TIP3    H235477   3.126   3.466   7.530  0.9991  1.1631  1.9888
 4640TIP3   OH235478   2.054   3.798   0.476 -0.6705  0.1444 -0.1565
 4640TIP3    H135479   1.966   3.799   0.515 -0.0839 -2.6062  1.5517
 4640TIP3    H235480   2.110   3.835   0.544 -0.1519 -0.9552  0.0332
 4641TIP3   OH235481   6.595   2.727   1.254  0.6693 -0.6285 -0.6391
 4641TIP3    H135482   6.638   2.647   1.285 -0.0318 -0.4564  0.8785
 4641TIP3    H235483   6.665   2.792   1.251  1.0400 -1.0360 -0.8440
 4642TIP3   OH235484   4.477   4.924   7.607  0.3508 -0.1080  0.2870
 4642TIP3    H135485   4.403   4.891   7.556  0.8383  0.3237 -0.7058
 4642TIP3    H235486   4.449   4.912   7.698 -1.3822  1.0060 -0.0530
 4643TIP3   OH235487   3.144   4.894   8.265 -0.3866 -0.2313  0.1496
 4643TIP3    H135488   3.084   4.963   8.237 -0.2253  0.0923  0.5876
 4643TIP3    H235489   3.138   4.895   8.361  0.7180  0.1770  0.2334
 4644TIP3   OH235490   6.646   0.042   0.507 -0.4812  0.3139 -0.3437
 4644TIP3    H135491   6.655   0.119   0.562 -0.7513 -1.1877  1.9418
 4644TIP3    H235492   6.734   0.004   0.505 -0.6302 -0.0374 -0.3000
 4645TIP3   OH235493   2.567   0.752   1.628 -0.4536  0.1275 -0.0154
 4645TIP3    H135494   2.622   0.808   1.573  1.2286 -1.4455 -0.0438
 4645TIP3    H235495   2.494   0.808   1.653 -1.3203  0.9823 -3.7567
 4646TIP3   OH235496   3.217   2.014   1.307  0.6736  0.7698 -0.2034
 4646TIP3    H135497   3.257   2.092   1.347 -1.6983  2.0253 -0.1072
 4646TIP3    H235498   3.138   2.047   1.265  0.0332 -1.4876 -0.8826
 4647TIP3   OH235499   0.421   4.501   7.917  0.2034 -0.2164  1.0796
 4647TIP3    H135500   0.422   4.579   7.860  0.9421 -0.6392  0.4932
 4647TIP3    H235501   0.513   4.483   7.934 -0.0116 -0.0263  2.5437
 4648TIP3   OH235502   5.392   6.869   1.343 -0.1902 -0.1689 -0.2573
 4648TIP3    H135503   5.363   6.947   1.296  3.4368  0.2413 -2.1401
 4648TIP3    H235504   5.471   6.841   1.298 -0.1432 -3.7543  1.6630
 4649TIP3   OH235505   2.666   2.558   8.433  0.0648  0.6387  0.1907
 4649TIP3    H135506   2.649   2.514   8.516  0.6320 -0.3599 -0.2177
 4649TIP3    H235507   2.740   2.616   8.451  0.0650  0.5680  0.4186
 4650TIP3   OH235508   1.064   4.612   0.230 -0.2542 -0.3403 -0.2946
 4650TIP3    H135509   1.099   4.540   0.282 -0.9023 -1.1244 -0.9219
 4650TIP3    H235510   1.061   4.686   0.291  1.6903 -0.4395 -0.0018
 4651TIP3   OH235511   0.810   3.189   0.172  0.7941  0.4476 -0.2374
 4651TIP3    H135512   0.767   3.258   0.122  0.2190 -0.1387 -0.5572
 4651TIP3    H235513   0.875   3.236   0.224  0.5099  1.2185 -0.5494
 4652TIP3   OH235514   6.324   6.180   8.107 -0.8214  0.2957  0.0447
 4652TIP3    H135515   6.377   6.143   8.178 -0.1616 -1.4685 -1.3006
 4652TIP3    H235516   6.253   6.118   8.094 -0.8148  0.4788 -0.9656
 4653TIP3   OH235517   2.328   2.526   8.197  0.2345 -0.1187  0.3204
 4653TIP3    H135518   2.342   2.620   8.182 -2.2402  0.0179 -1.8808
 4653TIP3    H235519   2.414   2.487   8.186  0.8729  1.6225 -1.5149
 4654TIP3   OH235520   6.071   4.160   7.083 -0.2126 -0.1873  0.1271
 4654TIP3    H135521   6.071   4.231   7.019  2.6879  0.0759  0.2647
 4654TIP3    H235522   6.098   4.202   7.165  1.1303 -1.3177  0.3021
 4655TIP3   OH235523   0.834   3.862   6.611 -0.0331  0.3478 -0.1583
 4655TIP3    H135524   0.830   3.767   6.599 -1.2034  0.4996 -1.1477
 4655TIP3    H235525   0.789   3.878   6.694 -0.4241  0.0827 -0.3145
 4656TIP3   OH235526   6.436   6.036   3.023  0.0389 -0.0749 -0.0497
 4656TIP3    H135527   6.507   5.986   3.062 -0.2618 -0.2866  0.2389
 4656TIP3    H235528   6.478   6.112   2.982  0.4343 -0.2501  0.0310
 4657TIP3   OH235529   3.573   0.855   1.311 -0.5666 -0.2654  0.3891
 4657TIP3    H135530   3.528   0.830   1.391 -1.2736 -2.8250 -0.7148
 4657TIP3    H235531   3.665   0.864   1.337 -0.9314 -0.0423  1.6649
 4658TIP3   OH235532   0.001   5.422   0.877 -0.2768  0.0575 -0.4471
 4658TIP3    H135533   0.078   5.457   0.832 -0.7971  2.0996  0.1245
 4658TIP3    H235534   0.013   5.327   0.875  2.2683  0.3030 -0.3609
 4659TIP3   OH235535   0.438   6.764   7.908 -0.0492  0.1273 -0.0596
 4659TIP3    H135536   0.432   6.740   7.816  0.7412  1.2399 -0.4245
 4659TIP3    H235537   0.531   6.752   7.930 -0.1775  0.1503  0.5173
 4660TIP3   OH235538   5.641   6.617   8.302  0.4845 -0.8396  0.3122
 4660TIP3    H135539   5.670   6.670   8.376 -2.2614 -0.4634  1.2359
 4660TIP3    H235540   5.657   6.527   8.329  0.6231 -0.6627  0.8378
 4661TIP3   OH235541   1.180   3.768   0.419 -0.2844  0.5186  1.0946
 4661TIP3    H135542   1.262   3.803   0.385 -0.9499  2.4317  1.3181
 4661TIP3    H235543   1.193   3.762   0.513 -0.0527 -0.2091  1.0212
 4662TIP3   OH235544   6.199   0.485   1.548  0.0840 -0.0733 -0.6705
 4662TIP3    H135545   6.104   0.487   1.533  0.2526 -1.0087 -2.0626
 4662TIP3    H235546   6.237   0.525   1.469  0.8928 -1.0812 -0.8104
 4663TIP3   OH235547   5.715   1.681   2.155  0.0328 -0.5791 -0.2368
 4663TIP3    H135548   5.624   1.667   2.179 -0.0138  0.6564  0.4148
 4663TIP3    H235549   5.766   1.641   2.226  0.0463 -2.0161 -1.0180
 4664TIP3   OH235550   0.386   2.091   1.197  0.1868  0.0963 -0.4363
 4664TIP3    H135551   0.391   2.186   1.208 -0.1898 -0.1072  2.2842
 4664TIP3    H235552   0.477   2.061   1.199  0.4381  0.4612 -3.0406
 4665TIP3   OH235553   2.306   6.197   7.209  0.2769 -0.2496 -0.1074
 4665TIP3    H135554   2.340   6.226   7.124  0.9923 -0.0119  0.2483
 4665TIP3    H235555   2.211   6.193   7.197  0.0032  3.0101  0.0125
 4666TIP3   OH235556   3.713   4.906   8.693 -0.5563 -0.0736 -0.0136
 4666TIP3    H135557   3.701   4.950   8.609 -0.3245 -0.1128 -0.0682
 4666TIP3    H235558   3.797   4.861   8.684 -0.6282 -0.2422  0.1667
 4667TIP3   OH235559   5.843   0.123   8.623 -0.4565  1.0542  0.1522
 4667TIP3    H135560   5.857   0.203   8.673 -0.3472  0.5665  0.9115
 4667TIP3    H235561   5.931   0.091   8.604 -0.3505  2.6990 -2.8273
 4668TIP3   OH235562   0.415   2.627   1.350 -0.1817 -0.3873 -0.2573
 4668TIP3    H135563   0.335   2.632   1.403  0.1296 -0.3498  0.2154
 4668TIP3    H235564   0.394   2.675   1.270 -0.7878 -0.7685 -0.3324
 4669TIP3   OH235565   4.797   2.057   7.387 -0.1026  0.3450  0.0925
 4669TIP3    H135566   4.702   2.044   7.387 -0.1991  0.9836  0.6996
 4669TIP3    H235567   4.830   1.996   7.453 -0.0005 -0.4128 -0.6421
 4670TIP3   OH235568   3.068   6.052   1.830  0.2445 -0.0355  0.0073
 4670TIP3    H135569   3.023   5.976   1.868  2.2059 -1.6525 -0.7142
 4670TIP3    H235570   3.061   6.039   1.736 -0.4298  1.3603 -0.1542
 4671TIP3   OH235571   1.842   1.917   7.217  0.5381 -0.5053 -0.5360
 4671TIP3    H135572   1.909   1.984   7.205  0.3886 -0.1542  0.4982
 4671TIP3    H235573   1.805   1.935   7.303  1.3193 -2.6439  0.3190
 4672TIP3   OH235574   1.730   1.043   7.554  0.0879 -0.1033  0.3342
 4672TIP3    H135575   1.714   1.122   7.605  0.0694  2.0305 -2.6767
 4672TIP3    H235576   1.722   1.072   7.463  1.9710 -3.2030 -0.9692
 4673TIP3   OH235577   4.694   0.433   7.429  0.7209  0.3171 -0.0191
 4673TIP3    H135578   4.686   0.383   7.510  0.3859 -1.8350 -1.2957
 4673TIP3    H235579   4.747   0.378   7.372  0.3459  1.4335 -1.5185
 4674TIP3   OH235580   0.311   3.907   0.392  0.2531  0.6405  0.3543
 4674TIP3    H135581   0.252   3.957   0.335  0.4986  0.6922  0.1421
 4674TIP3    H235582   0.263   3.897   0.474 -0.9928 -1.2011 -0.5155
 4675TIP3   OH235583   6.710   2.053   1.568 -0.3330  0.4390  0.3708
 4675TIP3    H135584   6.686   2.006   1.488 -3.4353  0.8574  0.9322
 4675TIP3    H235585   6.760   2.129   1.537  1.0572 -0.9039 -0.8622
 4676TIP3   OH235586   0.453   5.588   2.816 -0.3816  0.4404 -0.2513
 4676TIP3    H135587   0.536   5.625   2.848 -0.2380 -0.5071  0.5493
 4676TIP3    H235588   0.417   5.542   2.892 -1.1854  0.0497 -0.8519
 4677TIP3   OH235589   3.437   3.654   6.383  0.6481 -0.0949 -0.4739
 4677TIP3    H135590   3.354   3.700   6.387  0.9373  0.3970 -0.0903
 4677TIP3    H235591   3.478   3.685   6.302 -0.3245 -1.7165 -1.6696
 4678TIP3   OH235592   2.888   3.059   6.477  0.8975 -0.3853 -0.2750
 4678TIP3    H135593   2.907   3.153   6.473  0.8831 -0.2840  1.4035
 4678TIP3    H235594   2.900   3.028   6.387 -0.8299  1.5433 -1.2607
 4679TIP3   OH235595   2.031   3.295   1.644 -0.6899 -0.4928 -0.2239
 4679TIP3    H135596   2.070   3.211   1.668  1.1575  0.1535 -0.8298
 4679TIP3    H235597   1.993   3.279   1.557  1.5156 -0.2262 -1.3187
 4680TIP3   OH235598   1.933   6.285   7.407 -0.5590  0.0970 -0.0339
 4680TIP3    H135599   1.943   6.273   7.312 -1.5142  0.3914 -0.1784
 4680TIP3    H235600   2.004   6.232   7.445  1.3976  1.8726 -0.9638
 4681TIP3   OH235601   3.828   2.861   1.360  0.2783 -0.0110  0.5290
 4681TIP3    H135602   3.824   2.911   1.279 -1.0189 -0.2542  0.4282
 4681TIP3    H235603   3.836   2.928   1.429  0.3155  0.2475  0.2759
 4682TIP3   OH235604   5.977   6.385   3.069 -0.0305 -0.3814 -0.5104
 4682TIP3    H135605   5.972   6.442   2.992  0.6494 -0.8141 -0.8882
 4682TIP3    H235606   6.070   6.364   3.077  0.1607  0.9830  1.4308
 4683TIP3   OH235607   2.310   5.645   2.556 -0.2757  0.4373  1.1406
 4683TIP3    H135608   2.222   5.607   2.549 -0.6357  1.2309  1.2125
 4683TIP3    H235609   2.301   5.732   2.517  0.7595  0.1085  0.1283
 4684TIP3   OH235610   4.004   5.393   1.718 -0.5619 -0.4093 -0.0701
 4684TIP3    H135611   3.917   5.363   1.746 -0.3568 -1.9900 -0.9918
 4684TIP3    H235612   4.021   5.343   1.638  1.3099 -0.3137  0.2351
 4685TIP3   OH235613   0.136   4.684   8.247 -0.0251 -0.1793 -0.3423
 4685TIP3    H135614   0.076   4.754   8.222  1.1772  0.9875 -0.0674
 4685TIP3    H235615   0.198   4.726   8.306  0.7698 -1.4645 -0.2323
 4686TIP3   OH235616   2.733   4.942   6.502  0.1402  0.2052  0.2856
 4686TIP3    H135617   2.653   4.949   6.555  0.0475  0.8492  0.0715
 4686TIP3    H235618   2.749   4.848   6.496 -0.9193  0.0316 -0.1306
 4687TIP3   OH235619   1.378   1.262   1.118  0.2395 -0.6861  0.4578
 4687TIP3    H135620   1.363   1.266   1.212 -1.6163  0.1409  0.1753
 4687TIP3    H235621   1.321   1.330   1.081 -1.8122 -3.2278 -1.5096
 4688TIP3   OH235622   5.656   2.445   2.232  0.6828 -0.0528  0.6318
 4688TIP3    H135623   5.582   2.505   2.239  0.5226 -0.2434  0.6088
 4688TIP3    H235624   5.627   2.379   2.169  1.0116  0.0676  0.3505
 4689TIP3   OH235625   0.854   5.150   0.862 -0.0770  0.3484 -0.0350
 4689TIP3    H135626   0.858   5.059   0.891  0.2993  0.2431 -0.4049
 4689TIP3    H235627   0.881   5.201   0.938  0.1425  0.1192  0.0421
 4690TIP3   OH235628   2.316   3.603   7.611 -0.2903  0.0332 -0.1172
 4690TIP3    H135629   2.271   3.533   7.564 -0.7612  0.3534 -0.1494
 4690TIP3    H235630   2.384   3.558   7.663 -1.0223 -0.5144  0.3847
 4691TIP3   OH235631   3.888   3.968   7.593 -0.1939 -0.4462  0.2637
 4691TIP3    H135632   3.939   4.043   7.623  0.2123 -0.6201  0.0173
 4691TIP3    H235633   3.817   4.006   7.542 -0.3994 -0.1937  0.7262
 4692TIP3   OH235634   3.832   4.546   2.777  0.1451  0.5446 -0.3705
 4692TIP3    H135635   3.874   4.625   2.809  2.4358  0.4677 -2.8177
 4692TIP3    H235636   3.788   4.574   2.696 -0.4224 -0.3545 -0.3865
 4693TIP3   OH235637   2.967   5.937   8.137  0.8291 -0.5665 -0.5801
 4693TIP3    H135638   2.995   5.849   8.113 -0.9926 -0.4229 -3.6911
 4693TIP3    H235639   3.014   5.995   8.078 -0.0716  0.3092 -0.4711
 4694TIP3   OH235640   5.094   2.654   7.252  0.0212  0.2139  0.4750
 4694TIP3    H135641   5.171   2.649   7.196 -0.3679 -0.2708 -0.0273
 4694TIP3    H235642   5.052   2.737   7.228  2.4248  2.5174  3.4802
 4695TIP3   OH235643   4.088   0.967   2.663 -0.1030 -1.0241 -0.7433
 4695TIP3    H135644   4.048   1.049   2.692 -0.0033 -1.0859 -0.4237
 4695TIP3    H235645   4.019   0.901   2.675  0.0766 -1.1243 -0.2274
 4696TIP3   OH235646   2.406   3.016   7.854  0.2177 -0.5553  0.8744
 4696TIP3    H135647   2.393   3.022   7.759 -0.6952 -0.3922  1.0002
 4696TIP3    H235648   2.501   3.019   7.865  0.3019  2.2891  0.1374
 4697TIP3   OH235649   0.462   1.098   1.208 -0.6313 -0.1920 -0.4981
 4697TIP3    H135650   0.404   1.085   1.133 -1.8098  1.4571  0.0805
 4697TIP3    H235651   0.435   1.182   1.246  0.7581 -0.3823  1.0424
 4698TIP3   OH235652   2.752   3.923   2.388  0.7620 -0.0511  0.1328
 4698TIP3    H135653   2.800   3.929   2.305  1.8863 -0.7748  0.7147
 4698TIP3    H235654   2.752   4.012   2.423  2.1894 -0.1326  0.3919
 4699TIP3   OH235655   3.567   0.318   1.145  1.0021  0.0510 -0.1809
 4699TIP3    H135656   3.566   0.323   1.240  1.3274  0.3322 -0.1872
 4699TIP3    H235657   3.587   0.226   1.126 -0.4704 -0.3318  0.0027
 4700TIP3   OH235658   0.542   1.931   0.959  0.1434  0.6987  0.0694
 4700TIP3    H135659   0.591   1.981   1.024  1.1453 -0.0191 -0.0933
 4700TIP3    H235660   0.491   1.868   1.010 -0.9801  1.7332  0.2632
 4701TIP3   OH235661   0.956   4.095   8.603  0.4956  0.2018 -0.8521
 4701TIP3    H135662   0.955   4.112   8.509  0.6940  0.4941 -0.8034
 4701TIP3    H235663   0.871   4.124   8.634  0.1660 -0.5233 -1.0472
 4702TIP3   OH235664   3.703   3.910   0.236  0.3547  0.5809 -0.3704
 4702TIP3    H135665   3.638   3.890   0.304  0.9026  1.3818  0.4091
 4702TIP3    H235666   3.652   3.919   0.155 -0.0465 -3.2630 -0.7395
 4703TIP3   OH235667   1.568   2.691   8.236  0.1771  0.7968  0.4798
 4703TIP3    H135668   1.511   2.673   8.310 -0.5109 -0.0730 -0.2424
 4703TIP3    H235669   1.509   2.723   8.167  0.6490  0.5599 -0.0451
 4704TIP3   OH235670   6.631   4.923   0.803  0.3841  0.0240 -0.0646
 4704TIP3    H135671   6.668   4.943   0.717  1.2878 -0.1673  0.2657
 4704TIP3    H235672   6.629   4.828   0.807  3.5028 -0.1228  1.3540
 4705TIP3   OH235673   0.329   6.242   1.324 -0.2145  0.0658  0.7507
 4705TIP3    H135674   0.291   6.315   1.275 -0.2537 -0.3509  0.1436
 4705TIP3    H235675   0.312   6.165   1.269  2.0955 -0.0546  0.1037
 4706TIP3   OH235676   6.252   4.810   0.945  0.7336  0.1024 -0.0173
 4706TIP3    H135677   6.256   4.796   0.850  0.6395 -0.1498  0.0146
 4706TIP3    H235678   6.325   4.869   0.964  1.4202 -0.6997 -0.0976
 4707TIP3   OH235679   0.922   5.667   8.383  0.4863  0.2396  0.1162
 4707TIP3    H135680   0.991   5.626   8.331 -1.0305  0.4986 -2.2728
 4707TIP3    H235681   0.931   5.761   8.366 -0.0336  0.3277  0.2987
 4708TIP3   OH235682   0.689   4.658   1.339  0.3353 -0.5847  0.3894
 4708TIP3    H135683   0.716   4.665   1.430  0.0965 -2.4945  0.6415
 4708TIP3    H235684   0.599   4.625   1.343 -0.5906  1.5980 -0.5209
 4709TIP3   OH235685   3.336   0.453   1.128  0.4535 -0.1090  0.2084
 4709TIP3    H135686   3.261   0.395   1.118 -0.3655  1.0380 -0.5232
 4709TIP3    H235687   3.412   0.396   1.113 -0.2224 -1.3523  1.2438
 4710TIP3   OH235688   0.473   3.394   7.386 -0.7321 -0.1074 -0.8735
 4710TIP3    H135689   0.459   3.433   7.472  1.8330  0.2852 -0.5592
 4710TIP3    H235690   0.441   3.459   7.323  1.6220  1.7516 -0.2961
 4711TIP3   OH235691   0.005   2.622   0.966 -0.2895  0.1561 -0.4320
 4711TIP3    H135692   0.054   2.604   1.047  2.3808 -1.8809 -2.3363
 4711TIP3    H235693  -0.061   2.553   0.961 -1.0788  0.8225  0.3893
 4712TIP3   OH235694   2.965   5.396   8.008 -0.0124  0.0691 -0.0947
 4712TIP3    H135695   3.003   5.410   8.094  0.7479  1.3702 -0.6200
 4712TIP3    H235696   3.038   5.366   7.954 -0.1149  0.8114 -0.6648
 4713TIP3   OH235697   0.927   1.493   1.444  0.3312 -0.2034  0.7383
 4713TIP3    H135698   0.905   1.586   1.447 -0.7509 -0.4743  1.9184
 4713TIP3    H235699   0.939   1.468   1.535  0.8262 -1.1907  0.4197
 4714TIP3   OH235700   5.278   5.163   7.862 -0.7120 -0.0771 -0.3156
 4714TIP3    H135701   5.225   5.241   7.844  0.5834  1.1125  0.8309
 4714TIP3    H235702   5.344   5.163   7.793 -0.3569  0.1761  0.0233
 4715TIP3   OH235703   2.975   4.015   8.609 -0.1396 -0.0465  0.4883
 4715TIP3    H135704   2.947   3.938   8.560 -0.3777  0.2871  0.0870
 4715TIP3    H235705   3.066   3.997   8.633 -0.7654 -1.3099  2.1220
 4716TIP3   OH235706   5.202   3.493   7.345 -0.1462  0.0607  0.7296
 4716TIP3    H135707   5.185   3.582   7.376  0.8281 -0.4608  2.9841
 4716TIP3    H235708   5.125   3.470   7.293 -1.4213  1.4421  1.9231
 4717TIP3   OH235709   1.814   0.916   8.319  0.5307  0.3945 -0.2108
 4717TIP3    H135710   1.845   0.994   8.273 -2.1191  0.4791 -2.0898
 4717TIP3    H235711   1.750   0.949   8.382  0.1043 -0.1708 -0.3393
 4718TIP3   OH235712   5.001   4.436   8.260  0.0358 -0.4459 -0.0041
 4718TIP3    H135713   5.018   4.528   8.242  0.9048 -0.3753  1.0677
 4718TIP3    H235714   5.002   4.429   8.356  2.4372 -1.9613 -0.0399
 4719TIP3   OH235715   5.343   1.845   7.616 -0.2454 -0.7387  0.3090
 4719TIP3    H135716   5.326   1.822   7.708 -0.6637 -1.3166  0.0950
 4719TIP3    H235717   5.432   1.879   7.616 -0.7910  0.8071  1.1938
 4720TIP3   OH235718   3.222   4.662   8.430  0.1179  0.0969 -0.0836
 4720TIP3    H135719   3.295   4.709   8.390 -0.5311  0.5371 -0.8077
 4720TIP3    H235720   3.161   4.648   8.357 -1.5669  1.7978  0.9172
 4721TIP3   OH235721   4.521   5.827   0.758 -0.2282 -1.0870  0.3455
 4721TIP3    H135722   4.570   5.902   0.792 -0.7013 -0.4628 -0.3270
 4721TIP3    H235723   4.576   5.751   0.778  0.0581 -0.6134  1.4176
 4722TIP3   OH235724   1.757   0.038   2.073  0.4806 -0.2629 -0.1745
 4722TIP3    H135725   1.812  -0.020   2.020  2.8714 -1.0558  2.8730
 4722TIP3    H235726   1.814   0.113   2.092 -0.7387  0.5878  0.2490
 4723TIP3   OH235727   6.212   6.370   1.398  0.9499  0.0207 -0.4490
 4723TIP3    H135728   6.170   6.318   1.329  0.2349  1.2445 -0.9750
 4723TIP3    H235729   6.306   6.354   1.386  0.8606  0.4180 -1.9078
 4724TIP3   OH235730   3.978   0.586   1.050  0.6261  0.6062  0.1289
 4724TIP3    H135731   3.993   0.677   1.077 -1.9527  0.8480  1.0529
 4724TIP3    H235732   4.059   0.540   1.074  1.1048  2.2166  1.8369
 4725TIP3   OH235733   2.035   5.205   0.454  0.1625 -0.0779 -0.1883
 4725TIP3    H135734   2.022   5.213   0.548 -1.2774  3.3245 -0.5362
 4725TIP3    H235735   2.116   5.154   0.445 -1.8308 -4.3478  2.6693
 4726TIP3   OH235736   5.386   0.362   1.624  0.4654  0.0502  0.5052
 4726TIP3    H135737   5.464   0.323   1.584  0.0904 -0.0633 -0.1289
 4726TIP3    H235738   5.399   0.456   1.615  1.1185  0.0680  1.5473
 4727TIP3   OH235739   0.871   3.214   0.490  0.2555 -0.4031 -0.0242
 4727TIP3    H135740   0.819   3.286   0.455  1.2665  1.3552  1.8436
 4727TIP3    H235741   0.847   3.210   0.583  1.1652 -1.6305  0.1926
 4728TIP3   OH235742   4.132   0.390   7.419  0.2002  0.3625 -0.2609
 4728TIP3    H135743   4.130   0.381   7.324 -1.0181  1.3075 -0.3426
 4728TIP3    H235744   4.167   0.306   7.450  0.3719 -0.0479 -1.5161
 4729TIP3   OH235745   2.606   2.233   0.493 -0.0773  0.3862 -0.7493
 4729TIP3    H135746   2.581   2.220   0.401 -1.6336  2.3802 -0.6870
 4729TIP3    H235747   2.535   2.194   0.543 -0.2502  1.0784 -0.4424
 4730TIP3   OH235748   3.925   1.375   1.624 -0.1356  0.0445 -0.3316
 4730TIP3    H135749   3.969   1.297   1.590 -0.7208  0.7592 -2.8880
 4730TIP3    H235750   3.832   1.352   1.625 -0.0319 -0.8663  3.4569
 4731TIP3   OH235751   4.149   2.893   1.538  0.0997 -0.1524 -0.1019
 4731TIP3    H135752   4.078   2.956   1.551  0.4068  0.1904 -0.0594
 4731TIP3    H235753   4.106   2.816   1.499 -0.0809  0.5542 -1.3514
 4732TIP3   OH235754   1.188   3.617   8.046 -0.2424 -0.3209  0.6635
 4732TIP3    H135755   1.133   3.690   8.019  0.0400  0.3334  1.7673
 4732TIP3    H235756   1.245   3.654   8.114  0.6230 -1.3124  0.5087
 4733TIP3   OH235757   1.277   2.905   1.730  0.9395 -0.1957 -0.3684
 4733TIP3    H135758   1.358   2.881   1.776  1.7833  1.7474 -0.7416
 4733TIP3    H235759   1.301   2.982   1.678 -0.9958  0.0242 -1.0037
 4734TIP3   OH235760   2.257   1.653   1.217 -0.1337 -0.6287  0.3829
 4734TIP3    H135761   2.327   1.622   1.158  0.6836  1.4600  0.1531
 4734TIP3    H235762   2.176   1.624   1.174  0.5182 -2.0383  0.0094
 4735TIP3   OH235763   3.235   1.240   7.615  0.5530 -0.1082 -0.2628
 4735TIP3    H135764   3.178   1.164   7.605  1.6706 -0.7218 -2.8845
 4735TIP3    H235765   3.313   1.207   7.658  0.0776  0.1340  0.8207
 4736TIP3   OH235766   5.538   5.388   0.809 -0.3563  0.5407  0.2771
 4736TIP3    H135767   5.619   5.435   0.827 -0.3796  1.2048 -1.2064
 4736TIP3    H235768   5.476   5.456   0.781 -0.5058 -0.2816 -1.5289
 4737TIP3   OH235769   6.356   4.816   7.479  0.1015 -0.3560  0.3461
 4737TIP3    H135770   6.275   4.846   7.519  0.6060 -1.3967  2.2489
 4737TIP3    H235771   6.412   4.894   7.477  0.1167 -0.2985  1.8773
 4738TIP3   OH235772   0.419   4.239   1.221 -0.4796  0.3141 -0.1209
 4738TIP3    H135773   0.502   4.232   1.268 -1.3243 -1.1021  1.2418
 4738TIP3    H235774   0.443   4.228   1.129  1.0263  1.6505  0.0575
 4739TIP3   OH235775   3.042   2.859   7.552  0.2015 -0.6126  0.3762
 4739TIP3    H135776   3.116   2.916   7.572  1.3039 -1.8089 -0.1602
 4739TIP3    H235777   2.966   2.917   7.552  1.2213  0.7607  0.2869
 4740TIP3   OH235778   4.513   1.771   1.581 -0.4307  0.1270  0.8287
 4740TIP3    H135779   4.435   1.716   1.583 -1.1251  0.9921 -0.8028
 4740TIP3    H235780   4.479   1.860   1.582  0.4831  0.5222 -0.7575
 4741TIP3   OH235781   3.110   6.050   7.934  0.6058 -0.3733  0.3343
 4741TIP3    H135782   3.039   6.051   7.870  1.2895 -0.8841 -0.4673
 4741TIP3    H235783   3.163   6.127   7.913  0.9449 -0.6539  0.1344
 4742TIP3   OH235784   0.323   5.550   0.559 -0.0989  0.2377  0.7500
 4742TIP3    H135785   0.288   5.463   0.538 -2.8313  1.2073  0.9386
 4742TIP3    H235786   0.329   5.595   0.475 -0.6238  0.5245  0.8631
 4743TIP3   OH235787   4.829   6.794   1.538  0.2642 -0.6370 -0.0139
 4743TIP3    H135788   4.746   6.813   1.582 -0.8563  0.5182 -2.4619
 4743TIP3    H235789   4.875   6.878   1.536  1.1469 -1.0904  0.5754
 4744TIP3   OH235790   4.862   6.677   1.801 -0.6114  0.1862  0.3844
 4744TIP3    H135791   4.864   6.655   1.708  0.1882  0.4055  0.3364
 4744TIP3    H235792   4.837   6.769   1.803  0.0261  0.3678  0.3363
 4745TIP3   OH235793   5.221   1.343   1.655 -0.0427  0.0616 -0.7352
 4745TIP3    H135794   5.263   1.390   1.727 -0.1531  2.2414 -1.9970
 4745TIP3    H235795   5.292   1.296   1.612  0.2930  0.0091 -0.1296
 4746TIP3   OH235796   1.958   4.810   0.257 -0.3265  0.7099  0.3658
 4746TIP3    H135797   2.001   4.748   0.198 -1.5521 -1.6158  1.7400
 4746TIP3    H235798   1.886   4.846   0.206  0.7283  1.4397 -0.6289
 4747TIP3   OH235799   5.753   2.166   0.770  0.0801  0.1239  0.3477
 4747TIP3    H135800   5.837   2.211   0.766  0.7411 -0.9509  1.4296
 4747TIP3    H235801   5.689   2.231   0.741  1.2671  0.9660 -0.4561
 4748TIP3   OH235802   4.203   5.104   0.551 -0.2032  0.7719 -0.0504
 4748TIP3    H135803   4.136   5.171   0.538 -2.0588 -1.3516 -2.3405
 4748TIP3    H235804   4.251   5.101   0.468 -2.1129 -2.6022 -1.2310
 4749TIP3   OH235805   5.082   6.526   8.373  0.0238 -0.2978 -0.6771
 4749TIP3    H135806   4.989   6.511   8.354 -0.0188  0.8450 -1.4547
 4749TIP3    H235807   5.101   6.468   8.447 -1.1375 -1.0334 -0.9247
 4750TIP3   OH235808   5.280   2.424   0.381  0.3557  0.7878 -0.5100
 4750TIP3    H135809   5.333   2.485   0.432 -2.3275  1.9340  1.0862
 4750TIP3    H235810   5.204   2.475   0.353 -1.0778 -1.3228 -0.7086
 4751TIP3   OH235811   4.533   6.670   1.174 -0.6397  0.3409 -0.5321
 4751TIP3    H135812   4.605   6.729   1.150 -0.3119  1.0569  1.9656
 4751TIP3    H235813   4.481   6.720   1.237 -0.6009 -1.8048  1.3465
 4752TIP3   OH235814   4.655   6.421   0.184  0.6523  0.1303  0.2722
 4752TIP3    H135815   4.639   6.506   0.142  0.2869  0.1329  0.4189
 4752TIP3    H235816   4.709   6.443   0.260  0.9916  0.1693  0.0236
 4753TIP3   OH235817   4.387   1.706   7.586 -0.0922  0.1860  0.3938
 4753TIP3    H135818   4.393   1.762   7.663 -0.2886  0.0310  0.5210
 4753TIP3    H235819   4.461   1.733   7.531  0.1348  0.1931  0.7001
 4754TIP3   OH235820   4.400   3.229   1.465  0.4226  0.0408  0.2026
 4754TIP3    H135821   4.420   3.300   1.525 -0.6707 -0.0995  0.7639
 4754TIP3    H235822   4.485   3.195   1.438  0.9389  1.0323  0.5639
 4755TIP3   OH235823   6.765   5.356   8.505 -0.5554 -0.4016  0.3860
 4755TIP3    H135824   6.847   5.306   8.511 -0.3319 -0.1316 -0.3977
 4755TIP3    H235825   6.755   5.396   8.592  0.1450 -0.4313  0.4835
 4756TIP3   OH235826   3.762   5.427   7.082 -0.7096  0.0361 -0.1789
 4756TIP3    H135827   3.702   5.367   7.127 -0.3512 -0.9165 -0.9410
 4756TIP3    H235828   3.768   5.392   6.993  1.1284 -0.0073 -0.0725
 4757TIP3   OH235829   0.259   2.595   1.970 -0.5333 -0.5678  0.0563
 4757TIP3    H135830   0.258   2.505   2.001 -0.6324 -0.6087 -0.0622
 4757TIP3    H235831   0.342   2.630   2.000 -0.3468 -0.7997 -0.1777
 4758TIP3   OH235832   4.156   6.161   0.602 -0.0171 -0.8755 -0.2807
 4758TIP3    H135833   4.103   6.235   0.570  0.2104 -0.8709 -0.6445
 4758TIP3    H235834   4.103   6.123   0.672 -0.4254 -0.7575 -0.5215
 4759TIP3   OH235835   1.244   2.185   1.188  0.2970 -0.4731 -0.1673
 4759TIP3    H135836   1.154   2.218   1.181  1.1460  1.9390 -0.9145
 4759TIP3    H235837   1.270   2.205   1.278  0.0699 -1.2237  0.0661
 4760TIP3   OH235838   3.659   2.718   7.230  0.3015  0.4718  0.1087
 4760TIP3    H135839   3.573   2.719   7.272  0.6474 -1.2867  0.9361
 4760TIP3    H235840   3.640   2.705   7.137 -0.3766  2.0757 -0.0098
 4761TIP3   OH235841   1.149   1.428   0.519 -0.0889 -0.2621 -0.2104
 4761TIP3    H135842   1.175   1.466   0.603 -1.5322  0.0397  0.1193
 4761TIP3    H235843   1.227   1.438   0.463  0.7495 -0.0988  0.9535
 4762TIP3   OH235844   1.892   3.115   7.433  0.1165  0.2653  0.2585
 4762TIP3    H135845   1.987   3.123   7.435  0.0117  3.5324 -1.5564
 4762TIP3    H235846   1.865   3.161   7.354 -3.0046 -0.7055  0.6168
 4763TIP3   OH235847   3.357   3.097   1.746 -0.5567 -0.3352 -0.2778
 4763TIP3    H135848   3.400   3.040   1.809  0.3387  0.8738  0.2366
 4763TIP3    H235849   3.381   3.061   1.661 -1.7378 -1.9576  0.0173
 4764TIP3   OH235850   0.376   2.544   7.679 -0.3604 -0.1477  0.0294
 4764TIP3    H135851   0.418   2.563   7.762 -1.5396  3.6074 -0.0462
 4764TIP3    H235852   0.283   2.532   7.700 -0.3337 -1.7194 -0.5465
 4765TIP3   OH235853   1.432   4.380   1.010 -0.0816  0.0284  0.2287
 4765TIP3    H135854   1.518   4.412   1.035  0.0277 -0.3386  0.3330
 4765TIP3    H235855   1.443   4.349   0.920  0.0495 -0.5615  0.4397
 4766TIP3   OH235856   1.596   4.454   7.634  0.3535  0.1592 -0.5189
 4766TIP3    H135857   1.550   4.531   7.667 -0.8374 -0.4993 -0.5629
 4766TIP3    H235858   1.647   4.486   7.560 -0.7586  0.7751 -1.0438
 4767TIP3   OH235859   5.072   6.096   7.248  0.3136  0.0048  0.3276
 4767TIP3    H135860   5.027   6.035   7.306 -0.6442  0.6404  0.2812
 4767TIP3    H235861   5.156   6.112   7.290 -0.3811  0.5036  1.5852
 4768TIP3   OH235862   1.969   2.354   0.435  0.3329 -0.0943  0.1939
 4768TIP3    H135863   2.021   2.434   0.429  0.2810 -0.1305 -1.2478
 4768TIP3    H235864   1.879   2.383   0.416  0.2367 -0.4121  0.1674
 4769TIP3   OH235865   5.345   2.006   0.427  0.7063 -0.3802  0.0854
 4769TIP3    H135866   5.355   1.988   0.521  0.8053 -0.8216 -0.0061
 4769TIP3    H235867   5.415   2.067   0.407  0.9585 -0.6233  0.2115
 4770TIP3   OH235868   0.878   5.152   2.874  0.2395 -0.3464  0.6008
 4770TIP3    H135869   0.918   5.183   2.955  1.2303  0.0829 -0.0230
 4770TIP3    H235870   0.953   5.135   2.816 -0.4655 -0.0605 -0.4230
 4771TIP3   OH235871   0.420   0.117   2.588  0.1622  0.1419  0.0988
 4771TIP3    H135872   0.331   0.149   2.606  0.5536  0.4363  1.6409
 4771TIP3    H235873   0.471   0.145   2.664  1.1573 -1.7012  0.1417
 4772TIP3   OH235874   4.587   4.588   0.689 -0.1621  0.1890 -0.4006
 4772TIP3    H135875   4.623   4.611   0.775  1.0081 -0.2928 -0.7449
 4772TIP3    H235876   4.503   4.634   0.686  0.0925  0.7804  0.7177
 4773TIP3   OH235877   0.271   4.593   2.010  0.4295  0.0380 -0.3967
 4773TIP3    H135878   0.232   4.507   2.026  0.5228  0.2395  1.0583
 4773TIP3    H235879   0.317   4.613   2.091  0.1326  1.6113 -0.5969
 4774TIP3   OH235880   5.437   6.431   8.450 -0.0141 -0.0056 -0.3443
 4774TIP3    H135881   5.367   6.365   8.455 -0.6855  0.7080 -0.1536
 4774TIP3    H235882   5.435   6.461   8.360 -0.7799  0.8727 -0.0564
 4775TIP3   OH235883   1.534   3.752   3.035  0.0555 -0.4759  0.0623
 4775TIP3    H135884   1.559   3.830   2.985 -1.6505  0.5862  0.7755
 4775TIP3    H235885   1.615   3.724   3.077  0.7609  0.7978 -0.3629
 4776TIP3   OH235886   4.528   4.996   0.383  0.2218  0.3321 -0.2477
 4776TIP3    H135887   4.480   5.063   0.335  1.4588  1.0135 -0.5782
 4776TIP3    H235888   4.576   5.044   0.451  1.0139 -0.2270 -0.3979
 4777TIP3   OH235889   3.528   4.373   7.378 -0.1742  0.2179 -1.0171
 4777TIP3    H135890   3.556   4.456   7.418  0.6278  0.3469 -1.8134
 4777TIP3    H235891   3.486   4.400   7.296 -1.1861 -0.0835 -0.6075
 4778TIP3   OH235892   5.123   2.552   0.797  0.0944 -0.2202 -0.2723
 4778TIP3    H135893   5.152   2.493   0.867 -0.1717  0.3743  0.3541
 4778TIP3    H235894   5.204   2.589   0.762  0.3641 -2.0431 -1.6669
 4779TIP3   OH235895   0.197   5.412   7.300  0.3385 -0.0699 -0.3582
 4779TIP3    H135896   0.191   5.488   7.242 -0.4560 -0.7234 -1.1598
 4779TIP3    H235897   0.251   5.349   7.251 -2.4839 -1.6620 -1.6301
 4780TIP3   OH235898   0.947   2.320   7.901  0.0055 -0.3074  0.0432
 4780TIP3    H135899   0.978   2.351   7.815  0.2498  0.0385  0.2510
 4780TIP3    H235900   0.982   2.384   7.963  0.2594 -0.8422  0.4553
 4781TIP3   OH235901   3.788   6.335   0.887  0.5396 -0.0620  0.8462
 4781TIP3    H135902   3.803   6.424   0.917 -0.7622  0.5465 -0.2165
 4781TIP3    H235903   3.819   6.334   0.797 -0.2044 -0.4483  0.5863
 4782TIP3   OH235904   1.494   4.279   0.761  0.1187  0.1371 -0.5827
 4782TIP3    H135905   1.551   4.299   0.688  0.6935  0.5085 -0.0422
 4782TIP3    H235906   1.410   4.256   0.721  0.4315  0.3141 -1.3486
 4783TIP3   OH235907   4.090   5.310   0.432 -0.2696 -0.1762  0.6082
 4783TIP3    H135908   4.143   5.370   0.379  1.1839 -1.8959  0.0284
 4783TIP3    H235909   4.001   5.347   0.427  0.2502  1.0030 -1.0899
 4784TIP3   OH235910   2.063   0.348   2.015 -0.2065 -0.5743 -0.5946
 4784TIP3    H135911   2.058   0.282   1.946  0.2283 -0.1952 -0.9979
 4784TIP3    H235912   2.057   0.298   2.096  0.5631 -1.1539 -0.8813
 4785TIP3   OH235913   4.887   4.870   1.080 -0.7421 -0.3668 -0.6164
 4785TIP3    H135914   4.881   4.873   1.176 -0.6265 -1.1231 -0.5810
 4785TIP3    H235915   4.945   4.942   1.057 -0.1560 -0.6541 -0.0581
 4786TIP3   OH235916   2.026   3.977   1.087 -0.0276  0.7813 -0.0128
 4786TIP3    H135917   2.051   4.006   1.176 -0.6492  0.1137  0.3851
 4786TIP3    H235918   1.957   3.913   1.101  3.2486 -3.3565 -0.6338
 4787TIP3   OH235919   2.192   4.196   2.419 -0.2631  0.3497  0.0626
 4787TIP3    H135920   2.197   4.226   2.510 -0.2486 -1.4717  0.7034
 4787TIP3    H235921   2.143   4.114   2.424 -2.3986  1.4102 -1.9014
 4788TIP3   OH235922   1.012   2.431   7.258 -0.2969 -0.1600  0.4329
 4788TIP3    H135923   1.031   2.522   7.235 -0.5973 -0.3588 -0.6432
 4788TIP3    H235924   0.917   2.424   7.254 -0.2543 -0.6214  0.1087
 4789TIP3   OH235925   6.776   2.923   1.409  0.3721 -0.3274 -0.1551
 4789TIP3    H135926   6.869   2.909   1.430  0.7393  0.5805 -1.0618
 4789TIP3    H235927   6.768   3.018   1.399 -0.0516 -0.5432 -2.5673
 4790TIP3   OH235928   6.060   3.823   1.024  0.4702  0.4540  0.1345
 4790TIP3    H135929   6.109   3.904   1.037 -0.2320  0.9276 -0.1252
 4790TIP3    H235930   6.123   3.754   1.043  1.0997  1.0574  0.2843
 4791TIP3   OH235931   1.935   0.382   8.447 -0.8637  0.0965  0.7621
 4791TIP3    H135932   1.961   0.298   8.486  0.7071 -0.1415 -0.6606
 4791TIP3    H235933   1.988   0.388   8.367 -1.1925  2.2993  0.6588
 4792TIP3   OH235934   3.723   4.069   7.380  0.1749  0.0262 -0.7930
 4792TIP3    H135935   3.680   4.138   7.431  1.2478  0.2683 -0.1805
 4792TIP3    H235936   3.679   4.071   7.295  1.7966  3.1909 -1.7337
 4793TIP3   OH235937   3.367   4.483   7.171  0.0297 -0.1870 -0.2039
 4793TIP3    H135938   3.355   4.490   7.076  0.2234  0.4405 -0.1874
 4793TIP3    H235939   3.281   4.504   7.208  0.5530  2.0994 -0.1642
 4794TIP3   OH235940   5.885   5.611   6.538  0.7223  0.2087  0.4271
 4794TIP3    H135941   5.810   5.567   6.498  0.5160  0.8504  0.0801
 4794TIP3    H235942   5.940   5.541   6.570  0.3447 -0.2968 -0.0075
 4795TIP3   OH235943   6.411   3.517   1.330 -0.0985  0.5037 -0.8296
 4795TIP3    H135944   6.340   3.526   1.395 -0.4699  1.1304 -1.3091
 4795TIP3    H235945   6.365   3.506   1.247  0.3796 -0.1372 -1.0127
 4796TIP3   OH235946   5.965   6.145   7.833 -0.3257 -0.0993  0.0261
 4796TIP3    H135947   6.029   6.216   7.824 -0.9925  0.5652  0.4518
 4796TIP3    H235948   5.981   6.089   7.758  0.9283 -0.0752  0.2552
 4797TIP3   OH235949   1.726   3.708   8.419  0.7617  0.0855 -0.5237
 4797TIP3    H135950   1.785   3.633   8.416 -0.3495 -0.7842 -1.7928
 4797TIP3    H235951   1.735   3.749   8.333 -1.2190 -0.7152 -1.1878
 4798TIP3   OH235952   6.324   3.135   7.978  0.0839 -0.3321  0.6275
 4798TIP3    H135953   6.389   3.187   7.931  0.2090  1.4387  2.6508
 4798TIP3    H235954   6.245   3.141   7.924 -0.1365  2.6646  1.1152
 4799TIP3   OH235955   1.908   2.351   1.436 -0.0113 -0.6623  0.2376
 4799TIP3    H135956   1.995   2.322   1.409 -0.1211 -1.1713  0.4198
 4799TIP3    H235957   1.918   2.444   1.454  0.4397 -0.6666  0.0250
 4800TIP3   OH235958   6.772   1.636   7.329  0.2749  0.6740  0.3893
 4800TIP3    H135959   6.816   1.554   7.304  1.2818  1.0025  1.0303
 4800TIP3    H235960   6.765   1.630   7.424 -0.6989  0.8278  0.3331
 4801TIP3   OH235961   0.185   2.599   7.977  1.2749 -0.4104 -0.0891
 4801TIP3    H135962   0.187   2.677   7.921 -0.2667  3.4529  4.6010
 4801TIP3    H235963   0.094   2.571   7.975  2.0239 -3.1671 -2.6897
 4802TIP3   OH235964   5.598   5.950   8.409 -0.4794 -0.1652 -0.4971
 4802TIP3    H135965   5.576   5.921   8.498  0.7685 -0.1980 -0.1743
 4802TIP3    H235966   5.649   6.030   8.422 -0.8811  0.2157 -1.2187
 4803TIP3   OH235967   2.907   3.312   0.477 -0.6347  0.0726 -0.5395
 4803TIP3    H135968   2.974   3.254   0.514 -0.6311  1.6268  2.1310
 4803TIP3    H235969   2.824   3.277   0.511 -0.7838  0.5742 -0.3828
 4804TIP3   OH235970   5.748   1.688   0.447  0.7368 -0.3589  0.2021
 4804TIP3    H135971   5.721   1.709   0.357  0.7047 -0.3457  0.2145
 4804TIP3    H235972   5.704   1.754   0.500  1.5722  0.2652  0.1357
 4805TIP3   OH235973   6.667   0.955   0.790 -0.4617  0.2914 -0.0712
 4805TIP3    H135974   6.586   0.999   0.763 -1.2570 -1.8278 -1.4329
 4805TIP3    H235975   6.652   0.863   0.769  2.3566 -0.1732 -0.4182
 4806TIP3   OH235976   0.346   0.410   7.854  0.1077  0.1965 -0.2355
 4806TIP3    H135977   0.305   0.328   7.827  0.4685 -0.7035  1.7918
 4806TIP3    H235978   0.378   0.393   7.943 -1.3215  3.0659  0.9465
 4807TIP3   OH235979   5.360   5.486   0.528 -0.4097 -0.0424  0.8921
 4807TIP3    H135980   5.357   5.581   0.515 -2.5081 -0.3741 -1.9818
 4807TIP3    H235981   5.430   5.455   0.471 -1.5050 -0.4012 -0.3128
 4808TIP3   OH235982   6.258   5.521   1.159 -0.4397  0.6026 -0.4149
 4808TIP3    H135983   6.273   5.608   1.195 -0.5388 -0.4949  2.5288
 4808TIP3    H235984   6.322   5.465   1.203 -1.0918 -1.0138 -1.4280
 4809TIP3   OH235985   2.892   4.259   7.933  0.5191  0.3300  0.1414
 4809TIP3    H135986   2.811   4.310   7.925  0.1049 -0.5799 -1.8682
 4809TIP3    H235987   2.863   4.171   7.956  0.6798 -0.5939 -2.8475
 4810TIP3   OH235988   6.253   3.985   7.104  0.0662 -0.3674 -0.1893
 4810TIP3    H135989   6.168   4.026   7.120 -0.2766 -1.7446  2.1072
 4810TIP3    H235990   6.307   4.054   7.068 -1.6382  0.9320 -0.3886
 4811TIP3   OH235991   6.039   6.248   1.224  0.6971  0.0414  0.0770
 4811TIP3    H135992   6.056   6.186   1.152  3.2736 -2.7053  2.7663
 4811TIP3    H235993   5.964   6.210   1.270 -0.1520  1.1033 -0.3985
 4812TIP3   OH235994   6.147   1.263   7.465 -0.2166  0.0847  0.0484
 4812TIP3    H135995   6.212   1.315   7.416  0.8807 -0.7832  0.5481
 4812TIP3    H235996   6.188   1.248   7.550 -1.5586  0.4461  0.7853
 4813TIP3   OH235997   5.273   2.818   6.726 -0.7030  0.0518 -0.3577
 4813TIP3    H135998   5.200   2.786   6.674  0.6465 -0.1208 -2.2480
 4813TIP3    H235999   5.350   2.804   6.671  0.4560  2.7323  0.4194
 4814TIP3   OH236000   1.868   0.228   0.598 -0.3307 -0.0114 -0.1863
 4814TIP3    H136001   1.910   0.279   0.529  1.6817 -0.6820  0.4826
 4814TIP3    H236002   1.907   0.140   0.590  0.3866  0.0317  2.1000
 4815TIP3   OH236003   4.966   4.939   6.873  0.0384  0.7816 -0.2787
 4815TIP3    H136004   4.934   5.028   6.882 -0.2104  0.4682  2.6577
 4815TIP3    H236005   5.057   4.943   6.903 -0.3778 -0.1579  1.1964
 4816TIP3   OH236006   1.883   4.808   8.527  0.2111  0.0043  0.7418
 4816TIP3    H136007   1.977   4.794   8.525  0.1884 -0.0897 -0.7990
 4816TIP3    H236008   1.873   4.897   8.562  0.8317 -0.1306  1.2897
 4817TIP3   OH236009   5.054   5.604   2.466 -0.7333 -0.3124  0.3042
 4817TIP3    H136010   5.030   5.657   2.542  0.4044 -2.0759  1.9778
 4817TIP3    H236011   5.118   5.541   2.500  1.1805 -0.0359 -2.5053
 4818TIP3   OH236012   1.123   1.218   7.823  0.0600  0.2086  0.1540
 4818TIP3    H136013   1.127   1.308   7.790 -0.1793 -0.3215 -1.4015
 4818TIP3    H236014   1.125   1.163   7.745  0.1457 -1.1530  1.0705
 4819TIP3   OH236015   4.752   0.552   1.910 -0.5444 -0.1162  0.2845
 4819TIP3    H136016   4.829   0.508   1.874  1.0502  1.4630  1.6367
 4819TIP3    H236017   4.684   0.484   1.910  0.4538 -1.2267 -2.0245
 4820TIP3   OH236018   6.852   5.703   0.165 -0.3689  0.2359  0.1554
 4820TIP3    H136019   6.905   5.673   0.092 -0.8341 -1.9719  0.6348
 4820TIP3    H236020   6.912   5.754   0.219  1.0481 -1.3362  0.1609
 4821TIP3   OH236021   3.553   1.519   0.090 -0.2496  0.0551  0.7920
 4821TIP3    H136022   3.533   1.433   0.128 -0.5290 -0.1921  0.0851
 4821TIP3    H236023   3.475   1.571   0.108 -1.2498 -0.6625 -1.2178
 4822TIP3   OH236024   3.708   2.168   0.583 -0.2340 -0.4090 -0.4536
 4822TIP3    H136025   3.671   2.224   0.515 -0.0520  0.5095  0.1906
 4822TIP3    H236026   3.632   2.139   0.633 -0.1109  2.2753  1.4805
 4823TIP3   OH236027   3.213   1.654   1.492  0.3375  0.0222  0.0731
 4823TIP3    H136028   3.176   1.574   1.528 -3.5782  0.9345 -1.3952
 4823TIP3    H236029   3.192   1.651   1.399 -0.3287  2.8945  0.0326
 4824TIP3   OH236030   0.671   3.336   0.968  0.5382 -0.1814 -0.2478
 4824TIP3    H136031   0.740   3.402   0.976  0.7581 -0.4984  0.6446
 4824TIP3    H236032   0.590   3.386   0.972  0.6488 -0.0670  2.4187
 4825TIP3   OH236033   5.150   3.431   6.785 -0.3736 -0.0445  0.2644
 4825TIP3    H136034   5.079   3.394   6.838  0.1227 -0.7911  0.4161
 4825TIP3    H236035   5.139   3.526   6.794 -2.9125 -0.0151 -1.7372
 4826TIP3   OH236036   4.580   5.622   8.660 -0.1403  0.0158  0.3109
 4826TIP3    H136037   4.547   5.662   8.740 -0.4318 -1.0147  0.7193
 4826TIP3    H236038   4.654   5.568   8.688  0.6864  0.7786 -0.3286
 4827TIP3   OH236039   0.656   2.092   1.198  0.2869 -0.1030  1.0243
 4827TIP3    H136040   0.706   2.105   1.278  0.6099  0.9757  0.6651
 4827TIP3    H236041   0.716   2.117   1.127 -0.4673  0.3961  0.5413
 4828TIP3   OH236042   5.273   5.327   7.364  0.0492  0.0037 -0.1261
 4828TIP3    H136043   5.204   5.260   7.369 -0.9501  0.5962 -3.3814
 4828TIP3    H236044   5.332   5.295   7.295  2.8137 -0.1643  2.1125
 4829TIP3   OH236045   1.136   3.678   0.686  0.0804  0.0399  0.1842
 4829TIP3    H136046   1.105   3.762   0.721  2.1597  1.1641 -0.4790
 4829TIP3    H236047   1.164   3.629   0.763 -0.3130  0.3265  0.5130
 4830TIP3   OH236048   5.158   6.287   1.872  0.6638 -0.2709  0.5087
 4830TIP3    H136049   5.171   6.281   1.966  0.7576  1.6024  0.6554
 4830TIP3    H236050   5.074   6.331   1.862  0.6887 -0.3850 -0.2754
 4831TIP3   OH236051   4.031   4.117   1.913  0.2153 -0.9270  0.3604
 4831TIP3    H136052   4.007   4.107   2.005  0.0944  0.9054  0.5536
 4831TIP3    H236053   3.948   4.109   1.866 -0.0115  0.0875  0.5795
 4832TIP3   OH236054   5.776   0.280   7.081  0.4902  0.3995  0.2377
 4832TIP3    H136055   5.705   0.234   7.127  0.6671  0.3819  0.4915
 4832TIP3    H236056   5.831   0.315   7.150  1.5095 -0.7798  0.0584
 4833TIP3   OH236057   0.330   1.058   0.641  0.0013  0.5702 -0.0495
 4833TIP3    H136058   0.425   1.071   0.634 -0.1333  1.4953 -0.2483
 4833TIP3    H236059   0.321   0.968   0.671  0.8881 -0.4595 -2.6158
 4834TIP3   OH236060   5.988   0.947   6.850 -0.2529  0.1204  0.0930
 4834TIP3    H136061   5.936   0.909   6.922 -2.0984  1.1538 -0.6176
 4834TIP3    H236062   5.937   0.927   6.772 -0.4685  2.5810 -0.4692
 4835TIP3   OH236063   1.359   2.420   0.686 -0.6746  0.3829  0.0308
 4835TIP3    H136064   1.351   2.408   0.780 -0.6701  1.1409  0.1292
 4835TIP3    H236065   1.288   2.366   0.649 -1.5052  1.0985  0.5370
 4836TIP3   OH236066   1.739   5.590   8.171  0.2121  0.2559 -0.0608
 4836TIP3    H136067   1.721   5.514   8.226  1.4380 -0.6243 -0.8130
 4836TIP3    H236068   1.726   5.559   8.082 -1.4722  1.5848 -0.3307
 4837TIP3   OH236069   3.424   6.550   0.324 -0.1734  0.0792 -0.0120
 4837TIP3    H136070   3.428   6.461   0.360  0.1543 -0.1849 -0.6722
 4837TIP3    H236071   3.494   6.552   0.258 -0.8853  0.4755 -0.7710
 4838TIP3   OH236072   1.692   5.904   7.441  0.2013  0.2225  0.1464
 4838TIP3    H136073   1.634   5.968   7.399  0.0299  1.1386  1.7001
 4838TIP3    H236074   1.775   5.913   7.394 -0.1073  0.9044 -0.2865
 4839TIP3   OH236075   3.597   5.367   6.552 -0.2889 -0.7055  0.5745
 4839TIP3    H136076   3.684   5.350   6.516 -0.2031 -2.4627  1.5081
 4839TIP3    H236077   3.614   5.421   6.630 -0.0466 -0.8882  0.6503
 4840TIP3   OH236078   0.143   5.276   0.548  0.7156 -0.6038 -0.3291
 4840TIP3    H136079   0.184   5.231   0.622 -0.2460 -2.8276 -1.0632
 4840TIP3    H236080   0.153   5.215   0.474  1.6595  1.5276 -2.1084
 4841TIP3   OH236081   3.113   5.367   7.275 -0.5198  0.0591  0.4416
 4841TIP3    H136082   3.034   5.319   7.302 -0.2272 -0.1413  0.9626
 4841TIP3    H236083   3.146   5.406   7.356  0.1756 -0.2491  0.3130
 4842TIP3   OH236084   3.592   0.714   1.082  0.4442  0.1558 -0.1663
 4842TIP3    H136085   3.648   0.647   1.120 -0.5252 -0.4917  0.1393
 4842TIP3    H236086   3.569   0.770   1.156 -0.2925 -0.2854 -0.0547
 4843TIP3   OH236087   6.659   0.337   7.653 -0.3639 -0.2633  0.2294
 4843TIP3    H136088   6.695   0.271   7.593 -0.5813 -0.4309  0.2867
 4843TIP3    H236089   6.666   0.297   7.740 -1.0813 -0.4627  0.1951
 4844TIP3   OH236090   5.424   5.050   1.095 -0.1768 -0.3952  0.0939
 4844TIP3    H136091   5.386   5.112   1.033 -1.3643 -0.9995  0.1854
 4844TIP3    H236092   5.350   5.021   1.148  0.4951 -1.2856  0.5727
 4845TIP3   OH236093   6.511   5.665   1.048  0.1903 -0.0229 -0.0907
 4845TIP3    H136094   6.603   5.639   1.053  0.2942  0.3737  0.0602
 4845TIP3    H236095   6.471   5.600   0.989  0.4891 -0.4076  0.1289
 4846TIP3   OH236096   4.951   3.020   0.423  0.9025  0.4925  0.1604
 4846TIP3    H136097   4.992   2.950   0.371 -0.9501 -0.0290 -0.6829
 4846TIP3    H236098   5.025   3.073   0.453  2.1858 -0.2332 -1.5037
 4847TIP3   OH236099   5.981   2.856   1.851 -0.5355 -0.5341  0.3356
 4847TIP3    H136100   6.067   2.858   1.892  0.0807  0.0513 -0.9200
 4847TIP3    H236101   5.919   2.868   1.923  0.5414  2.0573  0.9354
 4848TIP3   OH236102   6.223   5.671   7.606 -0.2456  0.5517  0.0847
 4848TIP3    H136103   6.200   5.642   7.518 -0.0860 -0.4710  0.3700
 4848TIP3    H236104   6.144   5.655   7.658 -0.0096  0.2116  0.3398
 4849TIP3   OH236105   3.623   0.953   0.668 -0.3187 -0.4267 -0.1299
 4849TIP3    H136106   3.588   0.908   0.591  0.1630 -1.1691  0.0755
 4849TIP3    H236107   3.697   0.899   0.696 -0.9717 -0.6297  1.3311
 4850TIP3   OH236108   4.832   0.144   7.570 -0.1584  0.2344  0.3834
 4850TIP3    H136109   4.828   0.232   7.609 -1.1903  0.5854 -0.4693
 4850TIP3    H236110   4.828   0.160   7.476  2.4445 -0.5891  0.0686
 4851TIP3   OH236111   2.419   6.162   7.449  0.1593 -0.8216 -0.1000
 4851TIP3    H136112   2.499   6.214   7.444 -0.6361  0.3837 -0.5110
 4851TIP3    H236113   2.390   6.152   7.358 -0.9309 -0.0066  0.1369
 4852TIP3   OH236114   5.669   3.810   0.566 -0.2941  0.3149 -0.1660
 4852TIP3    H136115   5.578   3.814   0.595 -1.2887 -3.0688 -2.2295
 4852TIP3    H236116   5.714   3.762   0.636 -0.5501  0.2880 -0.0183
 4853TIP3   OH236117   0.255   2.028   1.664 -0.4195  0.2530  0.1954
 4853TIP3    H136118   0.190   1.963   1.692 -0.1271  0.1525  0.6521
 4853TIP3    H236119   0.332   1.976   1.640  0.2919  0.4743  1.8311
 4854TIP3   OH236120   5.090   4.225   2.868 -0.6107  0.3861  0.2444
 4854TIP3    H136121   5.053   4.224   2.779  0.6908 -0.1850 -0.3155
 4854TIP3    H236122   5.087   4.134   2.896  1.6146  0.0672 -0.3795
 4855TIP3   OH236123   4.555   4.527   7.748 -0.1283  0.5068  0.4766
 4855TIP3    H136124   4.608   4.470   7.805 -1.2931 -0.9101  0.2013
 4855TIP3    H236125   4.465   4.497   7.760 -0.2786 -1.4985 -3.7337
 4856TIP3   OH236126   6.820   6.857   8.417 -0.1522  0.2328  0.2198
 4856TIP3    H136127   6.840   6.785   8.357 -0.5601  1.1579 -1.0835
 4856TIP3    H236128   6.779   6.815   8.492 -0.4487 -0.8906 -0.5429
 4857TIP3   OH236129   1.657   0.438   7.673 -0.2706 -0.1766 -0.1234
 4857TIP3    H136130   1.598   0.492   7.726  1.3970 -1.3273  3.1927
 4857TIP3    H236131   1.737   0.490   7.666 -0.4053 -0.1077 -1.5290
 4858TIP3   OH236132   5.330   5.234   0.939  0.3124 -0.5785  0.3797
 4858TIP3    H136133   5.395   5.277   0.884  1.4283 -0.3457  1.8182
 4858TIP3    H236134   5.251   5.230   0.884  1.7017 -1.5204 -1.6821
 4859TIP3   OH236135   5.448   2.974   1.119  0.7047  0.2633 -0.0005
 4859TIP3    H136136   5.420   2.893   1.160  1.2124 -0.5326 -1.1677
 4859TIP3    H236137   5.379   3.037   1.140  1.2344  0.1096  2.5592
 4860TIP3   OH236138   2.558   5.754   7.612  0.0659 -0.1340 -0.4071
 4860TIP3    H136139   2.598   5.698   7.544 -1.7103 -0.2749 -1.4012
 4860TIP3    H236140   2.532   5.693   7.681  1.9849  0.0227  0.5069
 4861TIP3   OH236141   5.614   3.102   1.824  0.2936 -0.6869 -0.3165
 4861TIP3    H136142   5.659   3.111   1.908 -1.0429 -1.2361  0.4861
 4861TIP3    H236143   5.683   3.077   1.763  0.9135 -2.6143  1.0848
 4862TIP3   OH236144   0.219   2.856   0.183  0.2865 -0.0173 -0.3233
 4862TIP3    H136145   0.299   2.901   0.154  0.1277  1.0339  0.7812
 4862TIP3    H236146   0.148   2.916   0.160 -0.0593 -0.3033 -0.0240
 4863TIP3   OH236147   5.998   5.932   1.473 -1.1123  0.4422  0.0427
 4863TIP3    H136148   6.006   5.882   1.392 -2.0236  1.4641 -0.7137
 4863TIP3    H236149   5.998   5.867   1.542 -1.0643 -0.5066 -0.8290
 4864TIP3   OH236150   3.115   0.811   8.434  0.0131 -0.6010  0.2675
 4864TIP3    H136151   3.126   0.744   8.502  1.7535  0.2506  0.8945
 4864TIP3    H236152   3.056   0.772   8.370  0.0106 -2.2419  1.2291
 4865TIP3   OH236153   3.466   0.812   8.422  0.2110  0.3421 -0.1222
 4865TIP3    H136154   3.454   0.885   8.362 -0.3645 -0.8714 -1.5270
 4865TIP3    H236155   3.405   0.745   8.392  0.3800 -0.5534  1.4198
 4866TIP3   OH236156   5.658   4.924   1.942 -0.0164 -0.1352 -0.1060
 4866TIP3    H136157   5.587   4.893   1.999 -0.2532  1.3739  0.4738
 4866TIP3    H236158   5.704   4.845   1.915 -1.2235 -1.0507  0.4469
 4867TIP3   OH236159   2.336   5.431   0.147  0.6419  0.1559 -0.1407
 4867TIP3    H136160   2.241   5.422   0.147  0.4829  1.4422 -1.2714
 4867TIP3    H236161   2.360   5.428   0.239 -0.5050 -0.0752  0.1677
 4868TIP3   OH236162   0.410   6.592   1.380 -0.1642  0.1677  0.1849
 4868TIP3    H136163   0.375   6.661   1.436 -0.3372 -0.3349  0.6983
 4868TIP3    H236164   0.505   6.601   1.387 -0.1794 -0.1060  0.8346
 4869TIP3   OH236165   2.600   2.578   0.232 -0.4183  0.1148 -0.5112
 4869TIP3    H136166   2.595   2.653   0.172 -0.9269  1.0517  0.6585
 4869TIP3    H236167   2.687   2.542   0.218 -0.1057  1.0233 -0.9990
 4870TIP3   OH236168   2.837   4.827   8.201  0.1016 -0.0648 -0.7057
 4870TIP3    H136169   2.892   4.904   8.214  0.7628 -0.4303 -1.2408
 4870TIP3    H236170   2.899   4.755   8.190 -0.4864 -0.5226 -1.0964
 4871TIP3   OH236171   0.684   1.837   6.629  0.0066 -0.4015  0.5690
 4871TIP3    H136172   0.599   1.800   6.649 -0.0943 -0.4280  0.1143
 4871TIP3    H236173   0.741   1.761   6.619  0.4350 -0.3434  2.3389
 4872TIP3   OH236174   3.227   4.798   1.520 -0.4370 -0.2555 -0.0907
 4872TIP3    H136175   3.211   4.867   1.585 -1.9139 -1.0551  0.4282
 4872TIP3    H236176   3.183   4.828   1.441  0.3439  0.1567 -0.3807
 4873TIP3   OH236177   4.123   3.855   7.375  0.3582  0.1873  0.0449
 4873TIP3    H136178   4.106   3.832   7.466 -2.3792  0.7755 -0.2347
 4873TIP3    H236179   4.100   3.776   7.326 -0.1611  0.5290 -0.2666
 4874TIP3   OH236180   2.876   0.169   6.837  0.2943 -0.5913  0.2940
 4874TIP3    H136181   2.913   0.258   6.836  0.1252 -0.5208 -0.2582
 4874TIP3    H236182   2.925   0.122   6.770  0.9991 -1.1839  1.2017
 4875TIP3   OH236183   5.680   0.506   1.580 -0.2659  0.1569 -0.1454
 4875TIP3    H136184   5.656   0.576   1.640 -0.6591 -1.0164  1.1072
 4875TIP3    H236185   5.621   0.518   1.505  0.1882  1.5993 -0.2995
 4876TIP3   OH236186   4.468   4.490   1.098  0.3318  0.1740  0.2294
 4876TIP3    H136187   4.417   4.548   1.041 -0.4380 -0.4186  0.2832
 4876TIP3    H236188   4.552   4.533   1.108 -0.4063  1.5782  0.7340
 4877TIP3   OH236189   4.392   2.828   7.821  0.5275  0.7007  0.1847
 4877TIP3    H136190   4.408   2.810   7.913 -0.3680  2.7838  0.8032
 4877TIP3    H236191   4.478   2.819   7.779  0.9506 -0.2044  1.2005
 4878TIP3   OH236192   6.112   4.853   7.092 -0.6191  0.1358 -0.3895
 4878TIP3    H136193   6.066   4.936   7.108  0.1297  0.6322 -0.7980
 4878TIP3    H236194   6.174   4.873   7.022  1.0763 -0.1985  0.9686
 4879TIP3   OH236195   2.003   0.894   1.735 -0.2280 -0.3147  0.1701
 4879TIP3    H136196   1.991   0.987   1.717 -0.4381  0.1295  2.3128
 4879TIP3    H236197   1.919   0.853   1.712 -0.2474  0.0792 -0.4599
 4880TIP3   OH236198   0.877   0.276   8.516 -0.0193 -0.1922  0.0103
 4880TIP3    H136199   0.829   0.319   8.587  0.3467 -2.7174  1.9213
 4880TIP3    H236200   0.961   0.322   8.512 -0.1596  0.1702  1.0385
 4881TIP3   OH236201   1.074   0.902   1.225  0.1868 -0.4229 -0.2414
 4881TIP3    H136202   1.044   0.993   1.216  1.6201  0.1604  0.5664
 4881TIP3    H236203   1.016   0.864   1.291 -0.5899 -0.1859 -0.7748
 4882TIP3   OH236204   3.095   6.010   7.469  0.5915 -0.5226 -0.0232
 4882TIP3    H136205   3.060   6.099   7.483  1.9475 -0.1552  1.3615
 4882TIP3    H236206   3.022   5.961   7.433 -1.4091  0.1847  2.7638
 4883TIP3   OH236207   1.998   2.781   0.474 -0.4633  0.4447  0.3213
 4883TIP3    H136208   1.981   2.823   0.558 -4.8256 -0.0963 -0.0529
 4883TIP3    H236209   2.034   2.695   0.496  0.6148  1.1798  1.4840
 4884TIP3   OH236210   6.323   6.547   7.589 -0.2055  0.0025  0.6411
 4884TIP3    H136211   6.246   6.503   7.624  0.1990  0.1832  1.8034
 4884TIP3    H236212   6.397   6.507   7.635  0.5059 -0.7906 -1.0764
 4885TIP3   OH236213   0.978   2.700   7.195 -0.7530 -0.4287 -0.0518
 4885TIP3    H136214   0.927   2.656   7.127  1.5094 -2.4586 -0.5771
 4885TIP3    H236215   1.018   2.775   7.152  0.6615 -1.6981 -1.0242
 4886TIP3   OH236216   2.395   5.455   7.532  0.4470  0.1952 -0.3516
 4886TIP3    H136217   2.483   5.466   7.495  0.5774  1.4646  0.2674
 4886TIP3    H236218   2.348   5.534   7.506  0.5355  1.1399  2.1041
 4887TIP3   OH236219   2.749   1.185   2.211 -0.2721 -0.1635 -0.1963
 4887TIP3    H136220   2.689   1.161   2.282 -1.5906  0.9703 -0.8913
 4887TIP3    H236221   2.741   1.280   2.204  1.4518 -0.0166 -0.4835
 4888TIP3   OH236222   4.504   0.589   7.596  0.8335  0.1361  0.9124
 4888TIP3    H136223   4.419   0.546   7.609  1.4230 -1.4776 -0.2364
 4888TIP3    H236224   4.521   0.633   7.680 -1.5783  1.3854  0.8163
 4889TIP3   OH236225   2.396   0.985   1.733 -0.3076 -0.7042  1.1473
 4889TIP3    H136226   2.335   1.032   1.790  0.1358  0.8389  0.3929
 4889TIP3    H236227   2.432   1.052   1.675  0.3278 -1.9890 -0.0111
 4890TIP3   OH236228   0.726   5.992   7.601 -0.4906 -0.3409 -0.0772
 4890TIP3    H136229   0.799   5.952   7.649  0.5414  2.6121  1.0606
 4890TIP3    H236230   0.750   5.982   7.509  1.5079  0.6903  0.2679
 4891TIP3   OH236231   0.438   4.884   1.497  0.1917 -0.6160 -0.0207
 4891TIP3    H136232   0.410   4.799   1.531 -0.9829 -0.5846 -0.8412
 4891TIP3    H236233   0.363   4.941   1.509 -0.0916 -0.4646 -2.0631
 4892TIP3   OH236234   4.098   1.665   1.231 -0.3949  0.5916  0.1062
 4892TIP3    H136235   4.162   1.736   1.233  0.1177  0.2433 -1.8637
 4892TIP3    H236236   4.115   1.615   1.311 -0.1713  2.1447  1.0667
 4893TIP3   OH236237   6.027   6.595   1.433  0.3314  0.4722 -0.2218
 4893TIP3    H136238   6.021   6.605   1.338 -1.5176  0.7590 -0.0971
 4893TIP3    H236239   6.069   6.510   1.445  1.6642  0.9447 -1.2673
 4894TIP3   OH236240   5.055   6.668   2.017 -0.1380  0.6497 -0.5687
 4894TIP3    H136241   5.150   6.675   2.032 -0.1963  0.1779  0.0454
 4894TIP3    H236242   5.044   6.693   1.925  0.8129 -1.1634 -1.2168
 4895TIP3   OH236243   4.411   4.104   2.620 -0.4395  1.1020 -0.6143
 4895TIP3    H136244   4.412   4.009   2.626  2.3734  1.1220  1.1293
 4895TIP3    H236245   4.318   4.127   2.616 -1.1922 -1.7436 -3.6624
 4896TIP3   OH236246   6.406   1.860   0.987  0.6163 -0.2696 -0.3702
 4896TIP3    H136247   6.381   1.787   1.044 -2.3911 -0.1639 -1.3406
 4896TIP3    H236248   6.458   1.819   0.918 -0.4227 -1.4436 -0.5079
 4897TIP3   OH236249   4.223   6.797   0.798  0.0104 -0.9546 -0.2937
 4897TIP3    H136250   4.307   6.775   0.759  1.0245  0.6823  0.8013
 4897TIP3    H236251   4.246   6.845   0.878 -1.9514  0.0791 -0.2792
 4898TIP3   OH236252   2.273   0.713   1.095  0.9303 -0.1841 -0.3608
 4898TIP3    H136253   2.303   0.775   1.161  0.0939  0.0403 -0.1739
 4898TIP3    H236254   2.267   0.765   1.015  0.0401  0.0442 -0.1610
 4899TIP3   OH236255   6.053   6.722   0.363  0.3842  0.1472  0.0462
 4899TIP3    H136256   6.057   6.629   0.343  3.1403  0.3095 -0.4784
 4899TIP3    H236257   6.031   6.725   0.457 -0.2482 -0.9777 -0.0431
 4900TIP3   OH236258   6.377   6.037   0.673 -0.3285  0.5533 -0.1678
 4900TIP3    H136259   6.412   6.118   0.712 -0.2487  0.7240 -0.5930
 4900TIP3    H236260   6.412   6.036   0.584  2.9803 -1.9477  0.9731
 4901TIP3   OH236261   0.823   2.625   7.896 -0.1042  0.4791 -0.5756
 4901TIP3    H136262   0.905   2.659   7.862  0.4681 -0.3230 -0.0614
 4901TIP3    H236263   0.790   2.566   7.828 -1.6060  2.6925 -1.9036
 4902TIP3   OH236264   6.667   5.003   0.299  0.2439 -0.9310  0.0829
 4902TIP3    H136265   6.600   4.956   0.250  0.1837 -0.2921 -0.4584
 4902TIP3    H236266   6.746   4.992   0.246 -0.0574  0.6771 -0.7494
 4903TIP3   OH236267   3.439   3.950   8.393 -0.4949  0.1795 -0.0830
 4903TIP3    H136268   3.444   3.916   8.482 -0.0487  1.1790  0.2786
 4903TIP3    H236269   3.501   4.023   8.391 -0.3723  0.0591 -1.2603
 4904TIP3   OH236270   1.370   6.344   2.649  0.5580 -0.2714  0.1313
 4904TIP3    H136271   1.295   6.356   2.709  0.3436  0.1718 -0.2215
 4904TIP3    H236272   1.399   6.254   2.665  1.2217  0.1910  1.7225
 4905TIP3   OH236273   3.719   5.987   0.323 -0.0271  0.0134 -0.3296
 4905TIP3    H136274   3.692   5.974   0.414 -0.1459 -1.3004 -0.5453
 4905TIP3    H236275   3.786   6.055   0.328  1.1338 -1.1762  0.9476
 4906TIP3   OH236276   3.841   0.266   1.579  0.3239 -0.1227 -0.3551
 4906TIP3    H136277   3.775   0.240   1.644  1.8254 -1.0372  0.8855
 4906TIP3    H236278   3.896   0.329   1.625  0.7457  0.0758 -1.1186
 4907TIP3   OH236279   4.849   1.718   0.580  0.2817 -0.3051  0.2636
 4907TIP3    H136280   4.932   1.681   0.610  0.3139  0.7413  1.5381
 4907TIP3    H236281   4.784   1.681   0.639  0.3148  1.5858  1.5744
 4908TIP3   OH236282   6.319   2.538   7.751  0.0757 -0.5495 -0.4518
 4908TIP3    H136283   6.371   2.486   7.690  2.0924  0.6384  0.1573
 4908TIP3    H236284   6.239   2.559   7.702  1.1216 -0.6054 -2.2867
 4909TIP3   OH236285   6.422   2.225   0.237  0.3549  0.5979 -0.1343
 4909TIP3    H136286   6.438   2.230   0.331 -0.7549  0.4711  0.0798
 4909TIP3    H236287   6.334   2.261   0.225 -0.0300 -0.5346 -0.9549
 4910TIP3   OH236288   2.942   2.256   8.465 -0.0313 -0.2607  0.0385
 4910TIP3    H136289   2.913   2.332   8.415  1.0505  0.0079 -0.2119
 4910TIP3    H236290   2.882   2.186   8.439 -0.7713  0.3921 -0.0516
 4911TIP3   OH236291   4.713   3.260   6.511 -0.0484 -0.1523  0.5025
 4911TIP3    H136292   4.646   3.316   6.471  1.2221  0.3297 -1.0364
 4911TIP3    H236293   4.789   3.317   6.521  0.2580 -0.7573  1.9900
 4912TIP3   OH236294   2.149   6.195   1.042  0.0294  0.2062  0.5888
 4912TIP3    H136295   2.083   6.229   0.981 -0.0841 -0.8326  0.1092
 4912TIP3    H236296   2.189   6.123   0.994  1.2496  0.5757  1.0342
 4913TIP3   OH236297   0.826   4.694   2.328  0.5962  0.1887  0.4688
 4913TIP3    H136298   0.758   4.693   2.395 -0.2645  1.2871 -0.3502
 4913TIP3    H236299   0.888   4.761   2.356 -1.0775  2.4756 -1.0236
 4914TIP3   OH236300   6.095   6.295   1.645 -0.1613 -0.2915 -0.0904
 4914TIP3    H136301   6.127   6.341   1.567 -0.6978  0.2825  0.0180
 4914TIP3    H236302   6.128   6.206   1.636  1.2037  0.1899 -0.1415
 4915TIP3   OH236303   0.277   3.293   1.817  1.1228  0.3596 -0.2810
 4915TIP3    H136304   0.230   3.316   1.897  0.8882  2.9595 -1.0738
 4915TIP3    H236305   0.369   3.308   1.837  0.9499  2.5793 -0.8829
 4916TIP3   OH236306   4.930   4.827   2.389  0.1328  0.1816 -0.7631
 4916TIP3    H136307   4.911   4.890   2.458 -1.8498 -1.6803  0.5156
 4916TIP3    H236308   4.880   4.859   2.314  1.1435  1.4181 -0.9585
 4917TIP3   OH236309   1.405   2.692   8.455  0.2326 -0.0137  0.9609
 4917TIP3    H136310   1.388   2.632   8.527 -0.7866  0.2670  0.9602
 4917TIP3    H236311   1.439   2.771   8.496  1.5617 -0.5545  0.9638
 4918TIP3   OH236312   2.777   0.311   7.747  0.3307 -0.6412 -0.0122
 4918TIP3    H136313   2.734   0.239   7.702 -1.2935 -0.2514  0.8313
 4918TIP3    H236314   2.835   0.349   7.681 -1.8007 -0.2186 -1.7672
 4919TIP3   OH236315   2.543   4.653   0.947  0.7354 -0.2636 -0.6733
 4919TIP3    H136316   2.621   4.616   0.990  1.5583 -1.0065 -2.6753
 4919TIP3    H236317   2.567   4.742   0.925  1.0072 -0.4645 -1.2092
 4920TIP3   OH236318   4.293   1.784   8.384 -0.3410  0.2062 -0.8222
 4920TIP3    H136319   4.286   1.761   8.476  0.9466 -0.8733 -0.9641
 4920TIP3    H236320   4.202   1.797   8.356 -0.7889 -0.0940  0.4259
 4921TIP3   OH236321   2.632   4.664   8.061  0.7110  0.9065  0.3850
 4921TIP3    H136322   2.579   4.607   8.118  0.0590  2.3715  1.2942
 4921TIP3    H236323   2.685   4.715   8.121  2.2637  0.3758 -0.4827
 4922TIP3   OH236324   0.668   4.910   8.386  0.3212  0.1019  0.2551
 4922TIP3    H136325   0.702   4.843   8.445  2.0772  2.5886  2.2494
 4922TIP3    H236326   0.574   4.914   8.406  0.7446  0.3456  2.3810
 4923TIP3   OH236327   6.780   3.706   7.773 -0.3365 -0.4570 -0.1483
 4923TIP3    H136328   6.845   3.642   7.803 -1.6603 -0.9497  1.8928
 4923TIP3    H236329   6.821   3.749   7.698  1.7145 -1.7720  0.1462
 4924TIP3   OH236330   2.383   6.533   8.071  0.0237  0.0715 -0.3079
 4924TIP3    H136331   2.443   6.490   8.010  1.3348 -1.6779  2.0340
 4924TIP3    H236332   2.296   6.500   8.047  0.5403 -0.8263 -1.0114
 4925TIP3   OH236333   3.857   1.169   0.033 -0.5782  0.6676  0.4141
 4925TIP3    H136334   3.909   1.102  -0.012 -0.4525  1.3082 -0.4232
 4925TIP3    H236335   3.907   1.188   0.113 -0.9490 -0.6849  0.9858
 4926TIP3   OH236336   5.458   2.227   2.392  0.5066 -0.0583  0.9570
 4926TIP3    H136337   5.412   2.175   2.459 -0.2568  0.8639  1.1670
 4926TIP3    H236338   5.432   2.317   2.410 -0.3944  0.1391 -1.1054
 4927TIP3   OH236339   4.861   5.209   6.703 -0.8382 -0.2409  0.3667
 4927TIP3    H136340   4.883   5.302   6.708  2.6303 -0.7133 -2.4671
 4927TIP3    H236341   4.813   5.201   6.620  2.0730 -1.3086 -1.3563
 4928TIP3   OH236342   0.334   2.885   8.101  0.1416  0.0099  0.0234
 4928TIP3    H136343   0.399   2.823   8.133  0.2744  0.1363 -0.0027
 4928TIP3    H236344   0.357   2.968   8.143 -0.3977 -0.0898  0.5387
 4929TIP3   OH236345   0.386   3.766   0.758 -0.1801 -0.3630 -0.6598
 4929TIP3    H136346   0.434   3.691   0.722 -1.4903 -0.6209 -1.9329
 4929TIP3    H236347   0.315   3.728   0.809 -2.2918 -0.1087 -3.2088
 4930TIP3   OH236348   4.837   1.919   1.180  0.3089 -0.0741  0.0587
 4930TIP3    H136349   4.907   1.857   1.160  0.4849  0.1614 -0.0585
 4930TIP3    H236350   4.784   1.921   1.101  1.0700  0.9441 -0.4528
 4931TIP3   OH236351   4.612   2.038   6.477  0.1695 -0.2592 -0.1711
 4931TIP3    H136352   4.554   2.112   6.458 -2.1118 -1.5198  1.4938
 4931TIP3    H236353   4.621   1.993   6.393 -0.2006  0.6661 -0.7301
 4932TIP3   OH236354   5.963   1.783   2.086  0.5013 -0.3696  0.5087
 4932TIP3    H136355   5.887   1.726   2.081 -0.8171  1.3740 -1.9490
 4932TIP3    H236356   5.936   1.854   2.144  0.2374  0.2000 -0.2881
 4933TIP3   OH236357   2.347   5.867   0.192  0.3874  0.5082 -0.5497
 4933TIP3    H136358   2.283   5.823   0.248  1.4292 -0.8423 -0.3670
 4933TIP3    H236359   2.308   5.867   0.105  0.9976 -2.3255 -0.9176
 4934TIP3   OH236360   6.752   4.664   7.882 -0.3594 -0.0728  0.2307
 4934TIP3    H136361   6.840   4.637   7.856 -0.8946  0.1774 -2.0527
 4934TIP3    H236362   6.707   4.583   7.903  0.4187 -0.1919  1.5540
 4935TIP3   OH236363   0.799   1.799   7.817  0.2924 -0.1061  0.1965
 4935TIP3    H136364   0.800   1.781   7.911  0.8939 -0.1801  0.1788
 4935TIP3    H236365   0.788   1.893   7.810 -2.0768 -0.3018  0.3036
 4936TIP3   OH236366   1.673   3.999   0.534 -0.2920 -0.0323  0.0947
 4936TIP3    H136367   1.729   3.997   0.456  0.8745 -3.0118  0.8509
 4936TIP3    H236368   1.698   4.079   0.580 -0.8659  1.7120 -2.3976
 4937TIP3   OH236369   2.208   4.994   7.740  0.3896 -0.1780 -0.1879
 4937TIP3    H136370   2.270   5.060   7.772  1.3837 -0.2946 -1.7969
 4937TIP3    H236371   2.123   5.036   7.749  0.8362  0.6368  0.4638
 4938TIP3   OH236372   1.976   2.861   1.538 -0.3278  0.3551  0.1682
 4938TIP3    H136373   1.905   2.844   1.600  1.2440  0.5479  2.1663
 4938TIP3    H236374   2.013   2.945   1.567  0.0079  0.8381 -1.5393
 4939TIP3   OH236375   5.359   4.657   7.037  0.0959  0.6864 -0.1871
 4939TIP3    H136376   5.319   4.720   7.097 -0.2696 -0.4147  0.7432
 4939TIP3    H236377   5.380   4.581   7.091  2.3378  0.7247 -0.8930
 4940TIP3   OH236378   3.464   2.661   1.635 -0.1656 -0.2131 -0.8110
 4940TIP3    H136379   3.403   2.600   1.594  0.1242 -0.5016 -0.8244
 4940TIP3    H236380   3.459   2.740   1.581 -0.0461 -0.4656 -1.1979
 4941TIP3   OH236381   0.500   3.530   8.453 -0.2104  0.0848 -0.3445
 4941TIP3    H136382   0.585   3.491   8.436 -0.1027 -0.5137  1.4375
 4941TIP3    H236383   0.512   3.623   8.434  0.4827 -0.1763 -1.2719
 4942TIP3   OH236384   5.219   5.305   0.694  0.1523 -0.0841 -0.2818
 4942TIP3    H136385   5.159   5.261   0.634  1.2928 -0.3740 -1.2343
 4942TIP3    H236386   5.272   5.362   0.638  1.7950 -0.9568  0.3072
 4943TIP3   OH236387   1.698   4.621   8.434 -0.3821  0.1476  0.2292
 4943TIP3    H136388   1.617   4.671   8.428  0.0122  0.9324  1.1181
 4943TIP3    H236389   1.759   4.680   8.477 -0.2395 -1.4973  2.4758
 4944TIP3   OH236390   4.913   6.837   0.499 -0.2767 -0.2628  0.1570
 4944TIP3    H136391   4.887   6.905   0.561  2.0369 -0.3478  1.3387
 4944TIP3    H236392   4.954   6.770   0.552  1.0972 -0.7066 -1.3696
 4945TIP3   OH236393   2.081   1.413   1.591 -0.5274  0.4738 -0.1786
 4945TIP3    H136394   2.051   1.411   1.500 -0.6142 -0.4424 -0.1337
 4945TIP3    H236395   2.148   1.482   1.592  0.1078 -0.1152 -1.1386
 4946TIP3   OH236396   2.317   5.897   0.974  0.1294 -0.5583 -0.4935
 4946TIP3    H136397   2.293   5.849   1.053 -2.0721  0.7047 -0.2825
 4946TIP3    H236398   2.409   5.919   0.986 -0.0830 -0.5723  1.6592
 4947TIP3   OH236399   4.199   6.851   7.206 -0.3156 -0.3219  0.2985
 4947TIP3    H136400   4.159   6.801   7.276 -1.4961  0.0374 -0.1013
 4947TIP3    H236401   4.291   6.858   7.231 -0.6655 -0.4161  1.6656
 4948TIP3   OH236402   1.359   4.340   7.732 -0.1874  0.3074  0.3869
 4948TIP3    H136403   1.446   4.353   7.768 -0.3517 -1.0520  1.3557
 4948TIP3    H236404   1.322   4.428   7.725  1.0821  0.8610  0.3735
 4949TIP3   OH236405   6.468   1.410   6.916 -0.6224  0.9469  0.1750
 4949TIP3    H136406   6.442   1.485   6.968  0.2018  0.4147  1.4025
 4949TIP3    H236407   6.492   1.343   6.980 -1.7359 -0.5381 -0.8568
 4950TIP3   OH236408   1.153   3.654   2.110  0.7658 -0.2610 -0.2283
 4950TIP3    H136409   1.173   3.608   2.029  0.2659  0.4758 -0.7796
 4950TIP3    H236410   1.147   3.585   2.176  0.5335 -0.9315 -0.9380
 4951TIP3   OH236411   3.454   6.428   6.632 -0.2677  0.2184 -0.1219
 4951TIP3    H136412   3.473   6.445   6.724 -0.1788 -0.6835  0.0347
 4951TIP3    H236413   3.538   6.403   6.594 -0.4684 -0.2540 -0.2522
 4952TIP3   OH236414   6.308   0.360   8.489 -0.0321  0.4366  0.1670
 4952TIP3    H136415   6.233   0.416   8.509 -0.1298 -0.2432  1.8510
 4952TIP3    H236416   6.355   0.352   8.572 -0.3264 -2.3892  0.1773
 4953TIP3   OH236417   5.202   3.934   2.076 -0.3653  0.6251 -0.2891
 4953TIP3    H136418   5.267   4.003   2.087 -0.4304  0.6971 -0.3485
 4953TIP3    H236419   5.144   3.943   2.152 -1.3875  1.7465 -1.1671
 4954TIP3   OH236420   2.256   5.298   2.164 -0.1765  0.0174  0.2099
 4954TIP3    H136421   2.227   5.313   2.254 -1.0803 -1.4007  0.1912
 4954TIP3    H236422   2.351   5.290   2.171 -0.2078  0.1790  0.9901
 4955TIP3   OH236423   4.807   4.720   1.609 -0.3908  0.4750  0.7399
 4955TIP3    H136424   4.897   4.734   1.581 -0.7800  0.7759 -0.4515
 4955TIP3    H236425   4.804   4.628   1.637  0.4100  0.6264  1.3230
 4956TIP3   OH236426   2.566   3.750   7.897  0.2523  0.1457  0.0621
 4956TIP3    H136427   2.593   3.711   7.813 -1.0260  0.3790 -0.4796
 4956TIP3    H236428   2.585   3.682   7.961 -0.3773 -0.7486 -0.6617
 4957TIP3   OH236429   3.913   3.729   8.666 -0.6640 -0.4260 -0.0566
 4957TIP3    H136430   3.951   3.771   8.743 -1.8352 -0.8394  0.7810
 4957TIP3    H236431   3.964   3.763   8.592  2.3085 -2.0159  1.0625
 4958TIP3   OH236432   5.040   6.196   1.342  0.7357  0.0086 -0.3392
 4958TIP3    H136433   5.100   6.264   1.310  0.1309  1.0482  0.6444
 4958TIP3    H236434   4.969   6.195   1.279  0.2667  1.0043  0.1550
 4959TIP3   OH236435   4.766   0.224   0.158 -0.5634  0.2673  0.4834
 4959TIP3    H136436   4.845   0.172   0.175 -0.3141 -0.1033 -1.6418
 4959TIP3    H236437   4.747   0.266   0.242  1.4463 -0.2330  1.2346
 4960TIP3   OH236438   3.144   1.022   6.907  0.3298 -0.0331 -0.1928
 4960TIP3    H136439   3.152   1.101   6.959  1.2618 -0.7980  0.8810
 4960TIP3    H236440   3.107   1.051   6.824 -1.7458  1.1573  1.0496
 4961TIP3   OH236441   2.759   6.706   2.331 -0.2448 -0.1800 -0.0582
 4961TIP3    H136442   2.737   6.617   2.304 -1.4657  0.2141 -0.4511
 4961TIP3    H236443   2.681   6.757   2.309 -0.1255  0.7210  1.4916
 4962TIP3   OH236444   6.473   4.060   2.303  0.4818 -0.0164  0.1418
 4962TIP3    H136445   6.443   4.121   2.236  1.5196 -0.1605 -0.4798
 4962TIP3    H236446   6.407   4.065   2.372  0.7291  2.1042  0.2949
 4963TIP3   OH236447   2.951   4.192   0.562 -0.3099 -0.1722 -0.4910
 4963TIP3    H136448   3.030   4.211   0.511 -1.0245 -0.8993 -1.9171
 4963TIP3    H236449   2.941   4.268   0.619  0.7899  0.4504 -1.0826
 4964TIP3   OH236450   3.958   5.389   2.049  0.1586  0.1304  0.4881
 4964TIP3    H136451   4.047   5.361   2.070  0.5669  1.7325  1.0108
 4964TIP3    H236452   3.922   5.316   1.999  2.7631  0.5733 -2.3356
 4965TIP3   OH236453   0.035   4.175   2.673 -0.6841  0.4882  0.2527
 4965TIP3    H136454   0.065   4.262   2.648 -0.7808  0.0876 -1.3349
 4965TIP3    H236455  -0.002   4.138   2.593  0.8279 -1.6537  0.4672
 4966TIP3   OH236456   3.306   6.643   0.075 -0.3306 -0.4578 -0.1251
 4966TIP3    H136457   3.373   6.696   0.033  1.4708 -1.4369  1.3855
 4966TIP3    H236458   3.315   6.662   0.168 -1.8847 -0.9610  0.1610
 4967TIP3   OH236459   3.687   3.165   1.478  0.3660 -0.2144 -0.0552
 4967TIP3    H136460   3.655   3.111   1.550  0.9576  0.3012  0.6049
 4967TIP3    H236461   3.609   3.184   1.425 -0.0957 -0.4722  0.5311
 4968TIP3   OH236462   6.723   3.460   6.976 -0.3981 -0.0676  0.3277
 4968TIP3    H136463   6.652   3.470   6.912  0.2496 -0.8547 -0.5451
 4968TIP3    H236464   6.778   3.391   6.939  0.8698  0.5848  0.9385
 4969TIP3   OH236465   5.941   1.350   1.022  0.3347 -0.4720  0.6071
 4969TIP3    H136466   5.976   1.439   1.019 -1.9878  0.5403  0.9453
 4969TIP3    H236467   5.922   1.336   1.115 -0.9321 -0.6146  0.3381
 4970TIP3   OH236468   0.053   2.056   1.093 -0.0195 -0.0716  0.6725
 4970TIP3    H136469  -0.025   2.091   1.051  1.0081 -0.1120 -1.4252
 4970TIP3    H236470   0.110   2.029   1.020  1.2340 -1.6541  2.1212
 4971TIP3   OH236471   1.931   6.254   7.929 -0.4365  0.0323 -0.0076
 4971TIP3    H136472   1.940   6.159   7.925  0.6966  0.0570  1.1437
 4971TIP3    H236473   1.901   6.279   7.842  1.0392 -1.2227 -0.9420
 4972TIP3   OH236474   1.722   0.265   1.243 -0.2725 -0.2008 -0.0920
 4972TIP3    H136475   1.765   0.189   1.204 -0.8713 -0.1004 -0.9705
 4972TIP3    H236476   1.633   0.264   1.207 -0.0712  1.3408 -0.7199
 4973TIP3   OH236477   3.836   0.704   7.317  0.1865  0.3601  0.0729
 4973TIP3    H136478   3.800   0.659   7.394 -0.4430  0.5989 -0.0741
 4973TIP3    H236479   3.926   0.725   7.341  0.6027 -1.2731  0.0168
 4974TIP3   OH236480   0.653   5.519   8.007 -0.6324  0.8301  0.9907
 4974TIP3    H136481   0.570   5.473   8.019 -1.0157  1.3388  0.3670
 4974TIP3    H236482   0.720   5.454   8.028 -1.1292 -0.3220 -0.8175
 4975TIP3   OH236483   6.425   4.045   8.266 -0.4878  0.2450  0.1803
 4975TIP3    H136484   6.510   4.067   8.227 -1.0261  2.3441  0.0598
 4975TIP3    H236485   6.388   3.978   8.209  1.0365 -0.6543  0.1986
 4976TIP3   OH236486   6.359   4.404   7.610 -0.3793 -0.1941  0.7800
 4976TIP3    H136487   6.376   4.420   7.517 -0.8159  1.8412  1.0070
 4976TIP3    H236488   6.424   4.339   7.635 -0.6539 -1.2707 -1.0812
 4977TIP3   OH236489   2.006   6.544   7.461 -0.0761 -0.0372 -0.5209
 4977TIP3    H136490   2.084   6.534   7.407  0.2155  0.5157 -0.2149
 4977TIP3    H236491   1.952   6.468   7.441  1.2353 -1.2427  0.4229
 4978TIP3   OH236492   5.113   5.212   8.264  0.3314 -0.3432 -0.1160
 4978TIP3    H136493   5.064   5.276   8.213 -0.2408  0.1171  0.9704
 4978TIP3    H236494   5.180   5.179   8.204 -0.9240 -0.5511 -1.4620
 4979TIP3   OH236495   0.964   2.948   0.555  0.4058 -0.6042 -0.0614
 4979TIP3    H136496   1.010   2.949   0.471  2.1844 -0.5221  0.8499
 4979TIP3    H236497   0.880   2.989   0.537  0.9932 -0.0086 -1.6711
 4980TIP3   OH236498   5.239   4.649   0.297 -0.3504 -0.1661  0.0035
 4980TIP3    H136499   5.318   4.682   0.341  0.4235 -0.2406 -1.2750
 4980TIP3    H236500   5.174   4.719   0.307 -0.2095 -0.2062  1.2859
 4981TIP3   OH236501   4.572   2.414   2.224 -0.7070 -0.1703  0.6698
 4981TIP3    H136502   4.548   2.337   2.276  0.8563 -1.6716 -0.6596
 4981TIP3    H236503   4.506   2.418   2.155 -0.4877 -0.7066  0.4165
 4982TIP3   OH236504   3.545   3.243   1.080 -0.0431  0.5083 -0.3304
 4982TIP3    H136505   3.501   3.214   1.160  0.1219  1.3955  0.0955
 4982TIP3    H236506   3.478   3.234   1.011  0.3728 -2.0709 -0.4946
 4983TIP3   OH236507   3.281   2.638   1.084 -0.0650  0.6296  0.1298
 4983TIP3    H136508   3.249   2.659   1.172 -0.3707  0.4566  0.0597
 4983TIP3    H236509   3.350   2.703   1.069  0.0130  0.6413  0.5090
 4984TIP3   OH236510   1.614   1.812   7.840  0.2988  0.0294 -0.4880
 4984TIP3    H136511   1.657   1.728   7.823  0.7843  0.0973  0.3759
 4984TIP3    H236512   1.682   1.877   7.822 -0.0001  0.2325 -0.9013
 4985TIP3   OH236513   3.915   1.586   6.634  0.7186  0.4732 -0.5148
 4985TIP3    H136514   3.945   1.673   6.607  1.5348 -0.1496 -1.6864
 4985TIP3    H236515   3.912   1.536   6.553 -1.8627 -0.0153 -0.2182
 4986TIP3   OH236516   0.642   1.760   0.768 -0.1326 -0.1927 -0.2413
 4986TIP3    H136517   0.606   1.842   0.802  0.8329  0.4902 -0.8131
 4986TIP3    H236518   0.726   1.785   0.729  0.8431 -1.6834  0.8125
 4987TIP3   OH236519   2.152   3.927   0.716 -0.2391 -0.2029 -0.7521
 4987TIP3    H136520   2.201   3.966   0.788 -0.8813  0.3507 -0.6091
 4987TIP3    H236521   2.069   3.900   0.754  0.3000 -2.0297 -0.7803
 4988TIP3   OH236522   0.513   4.648   8.435  0.6615 -0.1330  0.1818
 4988TIP3    H136523   0.586   4.623   8.379  1.5115  0.9687  0.7613
 4988TIP3    H236524   0.535   4.611   8.521  0.2296 -0.3162  0.2169
 4989TIP3   OH236525   1.652   2.004   1.189 -0.4456 -0.0850  0.2955
 4989TIP3    H136526   1.661   2.081   1.245 -0.1954  1.0448 -1.2134
 4989TIP3    H236527   1.622   1.935   1.247  1.3765  0.5740  2.1320
 4990TIP3   OH236528   5.740   6.611   0.189  0.0818  0.3777  0.1380
 4990TIP3    H136529   5.676   6.566   0.134  1.0340  0.4295 -1.0644
 4990TIP3    H236530   5.807   6.641   0.128  0.5130  1.6243  1.1795
 4991TIP3   OH236531   2.853   4.420   2.654 -0.0406  0.1120  0.3922
 4991TIP3    H136532   2.830   4.359   2.584 -0.5445  1.6962 -0.8751
 4991TIP3    H236533   2.828   4.374   2.735 -1.4269 -0.9038 -0.5664
 4992TIP3   OH236534   2.236   5.932   7.586 -0.1796 -0.9852 -0.1648
 4992TIP3    H136535   2.271   5.857   7.635  0.2646  0.0833  1.2344
 4992TIP3    H236536   2.305   5.998   7.591 -0.9324 -0.1464 -0.5402
 4993TIP3   OH236537   3.663   4.457   8.276  0.3362 -0.5734  0.2187
 4993TIP3    H136538   3.612   4.485   8.352 -2.8280 -0.9342 -1.6067
 4993TIP3    H236539   3.600   4.451   8.205  2.6934 -2.5520 -1.9315
 4994TIP3   OH236540   3.820   5.864   7.567  0.1951  0.0403 -0.6743
 4994TIP3    H136541   3.802   5.944   7.616 -0.5966  0.3965 -1.5117
 4994TIP3    H236542   3.904   5.881   7.524  1.6449 -0.8349  1.6323
 4995TIP3   OH236543   3.543   0.058   1.104  0.7554 -0.1129  0.3932
 4995TIP3    H136544   3.489  -0.007   1.150  0.8963 -0.0399  0.6647
 4995TIP3    H236545   3.562   0.017   1.019  3.6159 -1.9065  1.7590
 4996TIP3   OH236546   0.745   2.342   2.428  0.2679 -0.6752 -0.3191
 4996TIP3    H136547   0.718   2.310   2.514  2.3196 -1.3500  0.1291
 4996TIP3    H236548   0.819   2.400   2.446 -0.9707  1.3367 -1.4464
 4997TIP3   OH236549   4.635   6.655   1.994  0.1985 -0.6701  0.3015
 4997TIP3    H136550   4.686   6.715   2.048  0.6181 -0.3969 -0.3878
 4997TIP3    H236551   4.696   6.625   1.927 -0.8168  0.5032 -1.1924
 4998TIP3   OH236552   4.846   4.437   6.552 -0.2942 -0.3013  0.0934
 4998TIP3    H136553   4.786   4.437   6.626  1.4291 -0.5343  1.5587
 4998TIP3    H236554   4.932   4.454   6.590  0.4454  1.2505 -2.0729
 4999TIP3   OH236555   2.222   6.477   1.183 -0.5066 -0.0717 -0.0235
 4999TIP3    H136556   2.193   6.407   1.241 -2.2802  0.8055  0.2090
 4999TIP3    H236557   2.318   6.468   1.180 -0.5000 -1.0200  1.8558
 5000TIP3   OH236558   0.152   6.279   2.941  0.2413  0.4262  0.0351
 5000TIP3    H136559   0.239   6.260   2.904  0.1256  0.4364 -0.2450
 5000TIP3    H236560   0.091   6.249   2.874 -0.0111 -0.7225  0.7616
 5001TIP3   OH236561   5.053   2.010   0.524  0.4625 -0.2554  0.2849
 5001TIP3    H136562   5.090   2.098   0.521 -0.4619  0.1194 -1.4001
 5001TIP3    H236563   5.041   1.992   0.618  1.3251  1.1064  0.6844
 5002TIP3   OH236564   3.378   6.503   7.949  0.3160  0.2696 -0.3482
 5002TIP3    H136565   3.290   6.512   7.913  0.0338 -2.0963 -0.4306
 5002TIP3    H236566   3.372   6.543   8.036 -1.3551 -1.2873  0.3198
 5003TIP3   OH236567   2.206   4.816   2.568  0.2082 -0.0632  0.1254
 5003TIP3    H136568   2.192   4.797   2.661 -0.2882  0.6682  0.2060
 5003TIP3    H236569   2.130   4.779   2.524 -1.6811  3.0669  0.4623
 5004TIP3   OH236570   3.189   1.060   7.194  0.4448 -0.5567  0.2698
 5004TIP3    H136571   3.216   1.136   7.141 -2.0902  2.0146  2.3582
 5004TIP3    H236572   3.260   1.049   7.257  0.2944  0.9869  0.7604
 5005TIP3   OH236573   5.164   4.427   0.517  0.3563 -0.6016 -0.1583
 5005TIP3    H136574   5.159   4.523   0.511 -1.6992 -0.5246  1.2871
 5005TIP3    H236575   5.226   4.411   0.588 -0.7668 -0.2134  0.9537
 5006TIP3   OH236576   6.395   5.845   0.461  0.1134  0.2134 -0.5229
 5006TIP3    H136577   6.370   5.811   0.547  0.4449 -1.0131 -0.8915
 5006TIP3    H236578   6.312   5.867   0.419 -0.0105  1.5201  0.3791
 5007TIP3   OH236579   3.160   1.342   7.991 -0.1918  0.3244  0.2042
 5007TIP3    H136580   3.170   1.397   7.913  0.1828  0.5508  0.4144
 5007TIP3    H236581   3.249   1.322   8.018 -0.3070 -1.4748 -0.6271
 5008TIP3   OH236582   0.805   4.295   7.702 -0.1724 -0.4393 -0.5234
 5008TIP3    H136583   0.860   4.231   7.656  3.1235 -0.5358  3.0468
 5008TIP3    H236584   0.866   4.364   7.728 -2.7940  2.0154 -0.3783
 5009TIP3   OH236585   1.046   3.407   8.145  0.9151  0.4947  0.3813
 5009TIP3    H136586   1.100   3.470   8.098 -0.6112  2.3657  0.9525
 5009TIP3    H236587   1.100   3.379   8.219  0.8319  3.2248  1.6273
 5010TIP3   OH236588   5.037   1.559   0.693 -0.2510 -0.0821 -0.6480
 5010TIP3    H136589   4.991   1.475   0.700  1.7908 -1.1392  2.6409
 5010TIP3    H236590   5.117   1.538   0.645  0.8921 -0.4226  1.3203
 5011TIP3   OH236591   4.874   1.102   0.452  0.4041  0.2476  0.2158
 5011TIP3    H136592   4.887   1.009   0.472 -0.4898 -0.1286 -0.8528
 5011TIP3    H236593   4.814   1.102   0.377 -0.0793  1.7090  0.5782
 5012TIP3   OH236594   4.939   4.500   1.300  0.2676 -0.0035 -0.3653
 5012TIP3    H136595   5.021   4.490   1.348  0.9435 -1.3080 -1.7004
 5012TIP3    H236596   4.920   4.594   1.304  0.5628  0.0067  1.9390
 5013TIP3   OH236597   0.539   6.075   0.002 -0.0854 -0.1413 -0.0065
 5013TIP3    H136598   0.499   6.115  -0.075 -1.4709 -1.7616 -0.2127
 5013TIP3    H236599   0.531   6.140   0.071 -1.8192  0.1524 -0.4390
 5014TIP3   OH236600   0.238   4.029   1.241  0.5687  0.1374  0.1594
 5014TIP3    H136601   0.204   3.980   1.316  1.3056 -2.6263 -1.2084
 5014TIP3    H236602   0.299   4.092   1.279 -1.2399  0.8565  2.0856
 5015TIP3   OH236603   4.224   6.225   1.385  0.3560  0.3434  0.3162
 5015TIP3    H136604   4.269   6.141   1.376  1.0203  0.4282  2.2711
 5015TIP3    H236605   4.174   6.217   1.465 -0.0907  1.5940  0.1877
 5016TIP3   OH236606   3.238   1.309   2.190 -0.4531  0.0996 -0.8354
 5016TIP3    H136607   3.260   1.320   2.283 -0.6551  0.4901 -0.8327
 5016TIP3    H236608   3.318   1.273   2.151  0.0841  1.1845 -0.7630
 5017TIP3   OH236609   0.928   2.175   1.873  0.0433  0.4782  0.2736
 5017TIP3    H136610   0.948   2.146   1.962 -0.4728 -0.5989  0.0522
 5017TIP3    H236611   0.956   2.103   1.817 -0.4394  0.7826 -0.3752
 5018TIP3   OH236612   0.871   5.236   1.400 -0.1457  0.0193  0.8800
 5018TIP3    H136613   0.805   5.230   1.469  0.6796  1.2218  1.8047
 5018TIP3    H236614   0.931   5.304   1.430  1.1982 -0.6397 -0.2244
 5019TIP3   OH236615   4.687   0.927   6.583  0.2917  0.2981  0.0936
 5019TIP3    H136616   4.767   0.956   6.627 -0.7027  0.4195  1.9308
 5019TIP3    H236617   4.635   1.006   6.574 -1.0816 -0.2726  2.2044
 5020TIP3   OH236618   6.465   3.135   0.579  0.0584 -0.6537  0.5446
 5020TIP3    H136619   6.494   3.190   0.506 -0.1261  0.1810  1.0833
 5020TIP3    H236620   6.482   3.188   0.657 -1.4143 -0.7860  0.9808
 5021TIP3   OH236621   1.398   3.964   2.318  0.8767 -0.0718  0.3679
 5021TIP3    H136622   1.332   4.033   2.319  0.8734 -0.0761  0.8175
 5021TIP3    H236623   1.348   3.883   2.313  0.9135 -0.0228 -2.2575
 5022TIP3   OH236624   2.978   5.091   7.818 -0.4638  0.1240 -0.3348
 5022TIP3    H136625   3.018   5.100   7.732 -0.1522 -1.6561 -0.4212
 5022TIP3    H236626   2.907   5.155   7.820  0.9775  1.8208 -1.0152
 5023TIP3   OH236627   2.501   0.482   0.817 -0.3108 -0.8574  0.3412
 5023TIP3    H136628   2.573   0.507   0.875 -1.4787  0.3062  1.3641
 5023TIP3    H236629   2.523   0.520   0.732  1.1477 -2.1011  0.1225
 5024TIP3   OH236630   2.508   5.147   8.184  0.1704  0.2661 -0.1449
 5024TIP3    H136631   2.419   5.113   8.181 -0.2558  1.3744 -0.5544
 5024TIP3    H236632   2.554   5.099   8.115 -0.6537  1.0955 -1.3205
 5025TIP3   OH236633   2.574   4.201   1.412  0.3464  0.1959  0.6109
 5025TIP3    H136634   2.600   4.281   1.367 -0.2688  0.3062  0.4426
 5025TIP3    H236635   2.483   4.187   1.385  0.1307 -0.0096  1.4318
 5026TIP3   OH236636   5.840   0.664   0.544 -0.0481 -0.1075  0.0932
 5026TIP3    H136637   5.842   0.607   0.621  0.0488  0.7353  0.7255
 5026TIP3    H236638   5.758   0.640   0.499 -0.5464 -0.0005  0.9229
 5027TIP3   OH236639   3.538   4.008   0.563  0.0977  0.0463 -0.0747
 5027TIP3    H136640   3.620   4.010   0.612 -0.4073 -0.9631  0.8710
 5027TIP3    H236641   3.527   3.915   0.541 -0.5743  0.2397 -0.5670
 5028TIP3   OH236642   3.156   0.023   7.605 -0.1797  0.2977 -0.0227
 5028TIP3    H136643   3.157  -0.037   7.530  0.8661 -0.4482  0.5569
 5028TIP3    H236644   3.065   0.050   7.613 -0.3164  0.3368 -1.5180
 5029TIP3   OH236645   0.517   6.660   7.654  0.2283 -0.6839  0.2049
 5029TIP3    H136646   0.497   6.606   7.578  1.3050  0.7438 -1.1750
 5029TIP3    H236647   0.613   6.660   7.659  0.1849 -0.2845  1.2090
 5030TIP3   OH236648   5.682   3.114   1.447  0.4029  0.2925 -0.8129
 5030TIP3    H136649   5.745   3.100   1.519  0.7609 -0.2754 -1.2291
 5030TIP3    H236650   5.733   3.100   1.368  0.0389  1.0534 -1.1879
 5031TIP3   OH236651   5.027   4.225   8.087 -0.2009  0.1937 -0.5182
 5031TIP3    H136652   5.011   4.292   8.153 -1.1908 -1.3364  0.8804
 5031TIP3    H236653   5.121   4.209   8.092  0.0841  1.5766 -1.0108
 5032TIP3   OH236654   1.195   1.837   8.036 -0.3932 -0.6092 -0.0340
 5032TIP3    H136655   1.116   1.805   8.080 -0.1626 -0.6634  0.3556
 5032TIP3    H236656   1.166   1.912   7.986 -0.8054 -0.9898 -0.3752
 5033TIP3   OH236657   3.844   3.243   1.263  0.6005  0.0127 -0.7220
 5033TIP3    H136658   3.810   3.320   1.218  1.8618  0.5278 -0.8138
 5033TIP3    H236659   3.786   3.232   1.338 -0.4837  0.1537 -1.5067
 5034TIP3   OH236660   1.875   4.592   8.694  0.1946 -0.1144 -0.0857
 5034TIP3    H136661   1.870   4.627   8.605  0.6523 -2.5201 -1.1653
 5034TIP3    H236662   1.960   4.621   8.727  1.8393 -2.2902 -2.0060
 5035TIP3   OH236663   6.060   5.602   0.253  0.6729  0.2284 -0.2962
 5035TIP3    H136664   5.988   5.644   0.206 -0.4830  1.0076  1.9890
 5035TIP3    H236665   6.104   5.674   0.298  1.1163 -0.5403  0.5493
 5036TIP3   OH236666   5.741   5.344   6.736  0.5295 -0.5188  0.3778
 5036TIP3    H136667   5.743   5.249   6.739  2.2812 -0.6317 -1.7107
 5036TIP3    H236668   5.670   5.365   6.675  1.6907 -0.6231 -1.0463
 5037TIP3   OH236669   2.127   1.874   8.291 -0.2989  0.3215 -0.3774
 5037TIP3    H136670   2.194   1.806   8.278 -0.5120 -0.1332  0.7595
 5037TIP3    H236671   2.113   1.911   8.204  2.1233  1.0914 -0.5238
 5038TIP3   OH236672   4.774   3.730   7.170 -0.1902 -0.4377 -0.6543
 5038TIP3    H136673   4.744   3.820   7.184  2.0896  0.4445 -0.8722
 5038TIP3    H236674   4.779   3.721   7.075  2.0103  0.1934 -0.6695
 5039TIP3   OH236675   3.792   1.542   7.185 -0.0809  0.0242 -0.1449
 5039TIP3    H136676   3.809   1.471   7.123 -1.3260 -1.3692  1.0312
 5039TIP3    H236677   3.827   1.510   7.268  0.8164  1.5114  0.0866
 5040TIP3   OH236678   3.582   1.465   1.429  0.4987 -0.1531  0.2388
 5040TIP3    H136679   3.538   1.500   1.506 -0.1744  1.1516 -0.6830
 5040TIP3    H236680   3.622   1.542   1.388  1.1436 -0.8755 -0.5131
 5041TIP3   OH236681   5.083   0.322   7.088 -0.1748  0.4726  0.0587
 5041TIP3    H136682   5.037   0.367   7.159 -0.2157  0.6948 -0.1063
 5041TIP3    H236683   5.021   0.257   7.056 -0.1449  0.3512  0.2471
 5042TIP3   OH236684   1.890   0.556   7.133  0.2263  0.1158 -0.1686
 5042TIP3    H136685   1.892   0.573   7.039 -0.2165  1.3128  0.0187
 5042TIP3    H236686   1.954   0.616   7.170 -2.2568  2.4978  0.6433
 5043TIP3   OH236687   6.789   4.636   1.838 -0.2133  0.1656 -0.4121
 5043TIP3    H136688   6.796   4.542   1.856 -3.1727  0.2539  1.9879
 5043TIP3    H236689   6.719   4.643   1.773 -1.3876  0.7385  0.8646
 5044TIP3   OH236690   5.954   5.715   1.261  0.1510  0.2423 -0.3370
 5044TIP3    H136691   5.901   5.640   1.287 -1.1482  0.7265 -1.4699
 5044TIP3    H236692   5.917   5.743   1.178 -0.9626  3.5558  1.0851
 5045TIP3   OH236693   4.115   1.930   0.897  0.2316 -0.3557 -0.5122
 5045TIP3    H136694   4.107   1.992   0.824 -0.8997 -0.3353 -0.3882
 5045TIP3    H236695   4.175   1.973   0.958  0.1393  0.2375 -0.8250
 5046TIP3   OH236696   4.491   1.202   1.425  0.4257  0.1246 -0.1264
 5046TIP3    H136697   4.472   1.242   1.509 -0.5240 -0.4439 -0.0528
 5046TIP3    H236698   4.437   1.123   1.423  0.6246 -0.0065 -1.1600
 5047TIP3   OH236699   1.677   1.053   2.798  0.3950 -0.3596 -0.5440
 5047TIP3    H136700   1.718   1.004   2.727 -0.0099 -1.4376 -0.0523
 5047TIP3    H236701   1.584   1.053   2.776 -0.0001 -2.2296  0.8175
 5048TIP3   OH236702   0.292   0.397   1.645  0.3082  0.1700  0.2473
 5048TIP3    H136703   0.305   0.338   1.719  0.6831  0.9050  0.7835
 5048TIP3    H236704   0.234   0.465   1.680  2.7517  2.1284  0.8177
 5049TIP3   OH236705   6.184   1.752   7.278  0.0015  0.2730  0.1236
 5049TIP3    H136706   6.091   1.728   7.276  0.1586 -0.3047 -0.4780
 5049TIP3    H236707   6.227   1.678   7.321  0.1897  0.5337  0.3847
 5050TIP3   OH236708   2.012   6.294   8.180 -0.0578  0.7021  0.6416
 5050TIP3    H136709   1.986   6.277   8.089 -1.9277  1.3552  1.0018
 5050TIP3    H236710   1.992   6.213   8.227 -1.0246  1.0192  0.8123
 5051TIP3   OH236711   0.845   1.045   0.374 -0.0276  0.5140  0.2540
 5051TIP3    H136712   0.925   1.015   0.419  0.7370  2.1547  0.0417
 5051TIP3    H236713   0.808   1.112   0.432 -0.8089  0.3614 -0.0525
 5052TIP3   OH236714   1.033   6.760   1.773  0.0610  0.1130  0.4846
 5052TIP3    H136715   0.956   6.812   1.749 -0.1206  0.5243  1.8452
 5052TIP3    H236716   1.031   6.685   1.713 -0.9391  0.5371 -0.0383
 5053TIP3   OH236717   2.394   4.309   0.748  0.3914 -0.0456  0.8733
 5053TIP3    H136718   2.488   4.297   0.762 -0.0296 -2.9151  1.8144
 5053TIP3    H236719   2.367   4.233   0.697 -1.6553 -0.0311  1.8354
 5054TIP3   OH236720   0.056   0.676   0.039  0.1590  0.6011 -0.7918
 5054TIP3    H136721   0.127   0.623   0.002 -0.6526 -0.6096 -0.6469
 5054TIP3    H236722   0.100   0.735   0.100  0.9792 -0.6460 -0.1298
 5055TIP3   OH236723   2.170   2.570   0.474 -0.0031  0.3477  0.2256
 5055TIP3    H136724   2.192   2.517   0.550  0.6805  1.3789  0.7664
 5055TIP3    H236725   2.251   2.615   0.451 -0.5631  1.1880 -0.1860
 5056TIP3   OH236726   2.209   1.401   0.411 -0.1952 -0.7151 -0.1604
 5056TIP3    H136727   2.144   1.416   0.342 -0.2055  1.7717  0.3011
 5056TIP3    H236728   2.292   1.393   0.363 -0.3353  0.0161 -0.5504
 5057TIP3   OH236729   5.594   4.006   2.382  0.3125 -0.2659 -0.5793
 5057TIP3    H136730   5.672   3.977   2.430  0.3204  0.0289 -0.4126
 5057TIP3    H236731   5.548   3.925   2.360  0.5828 -0.4332 -0.5394
 5058TIP3   OH236732   5.261   5.942   1.964 -0.2581  0.2252  0.2091
 5058TIP3    H136733   5.349   5.912   1.941 -0.2939  0.6879 -0.5920
 5058TIP3    H236734   5.202   5.883   1.917 -0.3846 -0.2044  0.8973
 5059TIP3   OH236735   2.827   0.079   0.892 -0.1262 -0.1840 -0.0750
 5059TIP3    H136736   2.803   0.140   0.962 -1.3651 -1.1664  0.3888
 5059TIP3    H236737   2.806   0.127   0.811 -0.6038  0.1969  0.2685
 5060TIP3   OH236738   1.394   0.573   7.009  0.0231 -0.0814 -0.4539
 5060TIP3    H136739   1.381   0.645   6.948  0.3538 -0.5499 -1.0979
 5060TIP3    H236740   1.319   0.516   6.995 -0.1067  0.0137 -0.1328
 5061TIP3   OH236741   1.189   6.226   0.527 -0.1244 -0.4310  0.5787
 5061TIP3    H136742   1.230   6.206   0.443 -1.2890  0.9918 -0.3877
 5061TIP3    H236743   1.258   6.267   0.578  0.7654 -1.8475  0.5796
 5062TIP3   OH236744   3.532   2.095   7.555 -0.3717  0.3658  0.5344
 5062TIP3    H136745   3.598   2.058   7.613 -0.4541  1.4422  1.3528
 5062TIP3    H236746   3.465   2.027   7.548  0.7514 -0.7051 -0.2440
 5063TIP3   OH236747   4.050   3.890   1.365  0.6120 -0.1732 -0.3008
 5063TIP3    H136748   4.087   3.951   1.302  0.4796  0.2770  0.0547
 5063TIP3    H236749   4.125   3.865   1.420  0.4741  0.4078  0.1517
 5064TIP3   OH236750   1.235   3.368   8.404 -0.7177 -0.3792 -0.0798
 5064TIP3    H136751   1.279   3.453   8.399 -0.9604 -0.2106  0.5513
 5064TIP3    H236752   1.301   3.309   8.440 -0.5591 -0.4491 -0.4868
 5065TIP3   OH236753   4.658   2.355   1.139  0.3497 -0.7899 -0.3130
 5065TIP3    H136754   4.740   2.313   1.167  1.4373  1.0958 -0.5405
 5065TIP3    H236755   4.652   2.434   1.193 -1.2587 -0.8090 -0.4167
 5066TIP3   OH236756   4.176   3.539   7.822  0.1591  0.1102 -0.5910
 5066TIP3    H136757   4.168   3.542   7.726 -0.5439 -1.0508 -0.5852
 5066TIP3    H236758   4.161   3.630   7.849  1.5805  0.6994 -1.6462
 5067TIP3   OH236759   5.006   2.010   0.815 -0.3228 -0.6543  0.3421
 5067TIP3    H136760   5.027   2.075   0.882 -0.3215 -0.1153 -0.1744
 5067TIP3    H236761   4.916   1.986   0.833  0.2439 -1.8903  1.6688
 5068TIP3   OH236762   2.191   0.046   1.694  0.1550  0.4561 -0.6268
 5068TIP3    H136763   2.257   0.068   1.628  1.1099  0.1103  0.1875
 5068TIP3    H236764   2.206  -0.046   1.713 -0.6195  0.3541 -0.4659
 5069TIP3   OH236765   0.550   0.178   7.940 -0.2141 -0.1079 -0.7200
 5069TIP3    H136766   0.612   0.108   7.925 -0.0615 -0.4668  1.2738
 5069TIP3    H236767   0.467   0.146   7.903  0.9299  0.9057 -4.5824
 5070TIP3   OH236768   1.759   6.797   1.393  0.0260 -0.3348  0.0274
 5070TIP3    H136769   1.759   6.874   1.450  2.7567  0.2240 -0.6060
 5070TIP3    H236770   1.759   6.723   1.453  3.9138  0.2327  0.9576
 5071TIP3   OH236771   3.701   2.629   1.379 -1.0608 -0.7505  0.2746
 5071TIP3    H136772   3.768   2.578   1.425 -1.0628 -1.6137 -0.6473
 5071TIP3    H236773   3.728   2.720   1.391 -0.6690 -0.9964  1.3531
 5072TIP3   OH236774   1.352   6.638   6.541 -0.0252  0.3470 -0.0428
 5072TIP3    H136775   1.400   6.569   6.586 -1.2775  0.4961  1.6229
 5072TIP3    H236776   1.275   6.594   6.505  0.4337  0.4344 -1.1783
 5073TIP3   OH236777   5.931   3.523   2.050 -0.0206  0.6034  0.0768
 5073TIP3    H136778   5.897   3.599   2.003  0.9007  0.7959 -0.3109
 5073TIP3    H236779   5.903   3.537   2.141 -2.0499  0.0828 -0.4332
 5074TIP3   OH236780   3.012   2.584   7.772 -0.2042  0.3800 -0.1598
 5074TIP3    H136781   3.055   2.602   7.855  1.1999 -2.2071 -0.2191
 5074TIP3    H236782   3.017   2.667   7.724  0.0198  1.5918  1.8362
 5075TIP3   OH236783   1.069   2.836   6.531 -0.0222  0.0604  0.2830
 5075TIP3    H136784   0.995   2.891   6.559 -1.1305 -2.0469  1.7834
 5075TIP3    H236785   1.104   2.881   6.454 -2.5717  1.4036 -0.2073
 5076TIP3   OH236786   6.851   3.513   0.211 -0.1343  0.2156  0.3158
 5076TIP3    H136787   6.834   3.431   0.257 -0.0361 -0.7949 -1.3567
 5076TIP3    H236788   6.946   3.523   0.212 -0.1111  0.0246  0.0595
 5077TIP3   OH236789   2.409   3.059   1.719 -0.2895  0.3090  0.4994
 5077TIP3    H136790   2.418   2.969   1.751 -1.9030 -0.0656 -0.0017
 5077TIP3    H236791   2.473   3.065   1.648 -0.0514 -0.3878  0.6443
 5078TIP3   OH236792   1.918   4.931   2.732  0.1941  0.5889  0.1818
 5078TIP3    H136793   1.853   4.881   2.683  0.6291  0.6744 -0.4977
 5078TIP3    H236794   1.986   4.867   2.756  1.2853  0.9946 -1.6043
 5079TIP3   OH236795   2.741   5.240   8.060  0.7430  0.4072 -0.0585
 5079TIP3    H136796   2.806   5.304   8.030  0.1985  1.1549  0.3356
 5079TIP3    H236797   2.679   5.291   8.111  0.8980 -0.6240  1.2018
 5080TIP3   OH236798   4.596   0.455   8.486  0.0153 -0.4191  0.4871
 5080TIP3    H136799   4.673   0.400   8.500  1.2380  0.9461 -0.5500
 5080TIP3    H236800   4.568   0.479   8.574 -0.6922 -2.8002  0.9786
 5081TIP3   OH236801   5.917   2.116   7.478  0.0407 -0.0686  0.8757
 5081TIP3    H136802   5.827   2.137   7.453 -0.2822 -1.3841  0.8338
 5081TIP3    H236803   5.923   2.141   7.570 -0.6545 -0.7486  1.1195
 5082TIP3   OH236804   2.740   1.512   1.841  0.2225 -0.1408 -0.2247
 5082TIP3    H136805   2.812   1.564   1.877 -1.0443  0.7008  1.1906
 5082TIP3    H236806   2.673   1.513   1.909 -1.6055  0.0451 -1.9389
 5083TIP3   OH236807   4.771   0.674   7.199  0.7636  0.2442 -0.1263
 5083TIP3    H136808   4.706   0.712   7.139  0.9890 -1.4324 -1.5165
 5083TIP3    H236809   4.838   0.742   7.207 -0.7894  1.7372  0.7997
 5084TIP3   OH236810   3.140   0.340   2.336 -0.3680  0.0810 -0.1787
 5084TIP3    H136811   3.216   0.361   2.282  0.6314 -0.0941  1.1285
 5084TIP3    H236812   3.091   0.422   2.343 -0.6792  0.0449 -1.5530
 5085TIP3   OH236813   2.758   6.803   7.286  0.1402 -0.1352 -0.6611
 5085TIP3    H136814   2.670   6.839   7.293  0.0801 -0.2617 -0.7515
 5085TIP3    H236815   2.790   6.831   7.201  1.0799  1.8621  0.2787
 5086TIP3   OH236816   4.732   0.436   0.329  0.0620  0.1116  0.5590
 5086TIP3    H136817   4.682   0.485   0.395 -1.4223  0.4190 -0.7458
 5086TIP3    H236818   4.738   0.496   0.255 -0.0822 -0.9664 -0.3427
 5087TIP3   OH236819   2.852   5.316   0.023 -0.1895  0.1586  0.8317
 5087TIP3    H136820   2.905   5.387   0.060 -0.6750 -0.2306  2.3590
 5087TIP3    H236821   2.769   5.359   0.000  0.1804  0.4403 -0.0200
 5088TIP3   OH236822   6.790   5.784   1.381  0.2287 -0.5200 -0.3181
 5088TIP3    H136823   6.788   5.757   1.289 -1.0635  1.6708 -0.9824
 5088TIP3    H236824   6.872   5.832   1.390 -0.2312  0.3510 -0.6798
 5089TIP3   OH236825   0.731   4.758   8.616 -0.4035  0.2697 -0.3783
 5089TIP3    H136826   0.685   4.830   8.660 -3.2688 -0.4390 -1.9935
 5089TIP3    H236827   0.675   4.682   8.630  1.8828 -1.4414  0.1363
 5090TIP3   OH236828   4.157   5.574   7.378 -0.1683 -0.3135  0.0338
 5090TIP3    H136829   4.074   5.549   7.419  0.6012 -4.9925 -0.7203
 5090TIP3    H236830   4.149   5.543   7.288  1.5526  1.3975 -0.7829
 5091TIP3   OH236831   4.649   4.516   8.053 -0.1606  0.4405  0.1936
 5091TIP3    H136832   4.594   4.574   8.105 -1.0348  1.0642 -1.3797
 5091TIP3    H236833   4.704   4.575   8.001  0.8629 -0.1742  0.5408
 5092TIP3   OH236834   6.277   2.548   0.129  0.3508  0.4589 -0.0033
 5092TIP3    H136835   6.232   2.469   0.102 -0.2823  0.7397  0.2047
 5092TIP3    H236836   6.267   2.609   0.056  0.5777  0.4488 -0.0437
 5093TIP3   OH236837   0.786   1.012   7.759 -0.5358  0.1976 -0.1900
 5093TIP3    H136838   0.698   1.041   7.784 -1.8561 -1.7996 -2.1605
 5093TIP3    H236839   0.796   1.044   7.670 -0.0487 -1.1918 -0.6470
 5094TIP3   OH236840   6.863   0.348   2.865 -0.5096 -0.2848  0.0629
 5094TIP3    H136841   6.801   0.275   2.865 -1.2607  0.3410  0.8220
 5094TIP3    H236842   6.850   0.391   2.781 -0.9442 -0.2903  0.1256
 5095TIP3   OH236843   3.384   1.107   0.475  0.1666  0.2162 -0.0770
 5095TIP3    H136844   3.298   1.065   0.474  0.1141  0.3054  0.4010
 5095TIP3    H236845   3.430   1.069   0.401  1.1815 -2.9423  1.9407
 5096TIP3   OH236846   5.300   0.765   7.545  0.0369  0.1935  0.1544
 5096TIP3    H136847   5.243   0.802   7.478  1.5064  1.9267 -0.2049
 5096TIP3    H236848   5.383   0.749   7.500  0.3100 -0.9327  0.9998
 5097TIP3   OH236849   1.099   3.434   0.331 -0.2660  0.2197  0.1964
 5097TIP3    H136850   1.101   3.482   0.249  2.0287 -1.1100 -0.6149
 5097TIP3    H236851   1.101   3.502   0.399 -2.3521  1.3407 -0.7726
 5098TIP3   OH236852   4.533   2.187   2.401  0.4333 -0.1785  0.0128
 5098TIP3    H136853   4.437   2.184   2.400  0.4028 -0.3702 -2.3779
 5098TIP3    H236854   4.560   2.098   2.424  0.0148 -0.4701 -0.5974
 5099TIP3   OH236855   0.016   1.087   0.014 -0.5392 -0.6215  0.2912
 5099TIP3    H136856   0.097   1.108  -0.032 -1.7429  0.3628 -1.4873
 5099TIP3    H236857   0.031   1.117   0.104  0.9012 -0.0712 -0.1065
 5100TIP3   OH236858   1.461   2.545   0.936  0.3381 -0.3946  0.4111
 5100TIP3    H136859   1.438   2.524   1.026  0.7987  0.0619  0.6386
 5100TIP3    H236860   1.555   2.532   0.931  0.0914 -2.1261 -0.4834
 5101TIP3   OH236861   5.130   1.540   1.951  0.2542  0.5653 -0.2813
 5101TIP3    H136862   5.098   1.630   1.950 -0.7149  0.2598  0.6806
 5101TIP3    H236863   5.051   1.486   1.948  0.7425 -0.2293  0.4436
 5102TIP3   OH236864   5.269   2.967   7.726 -0.2081  0.4073  0.2830
 5102TIP3    H136865   5.180   2.963   7.761 -0.3984 -0.1140 -0.2504
 5102TIP3    H236866   5.273   2.895   7.663  0.3496  0.8927 -0.2484
 5103TIP3   OH236867   4.685   2.308   7.888 -0.4798  0.2765  0.4676
 5103TIP3    H136868   4.637   2.391   7.880  1.7597  1.8315  1.8325
 5103TIP3    H236869   4.657   2.271   7.971 -0.7520  0.1634  0.3267
 5104TIP3   OH236870   4.903   0.652   6.895  0.9151  0.2166  0.2378
 5104TIP3    H136871   4.993   0.628   6.916  1.1154 -0.2417 -1.0643
 5104TIP3    H236872   4.862   0.668   6.980  1.4506 -2.2982  1.0272
 5105TIP3   OH236873   6.632   1.715   0.046  0.0738  0.0509 -0.3595
 5105TIP3    H136874   6.705   1.666   0.009  0.3085  0.2858 -0.2030
 5105TIP3    H236875   6.640   1.803   0.008 -0.6130 -0.1507 -1.0046
 5106TIP3   OH236876   3.814   3.596   7.746 -0.1663 -0.1630 -0.5251
 5106TIP3    H136877   3.828   3.636   7.660 -1.0892 -0.3070 -0.7486
 5106TIP3    H236878   3.833   3.503   7.732  0.6775 -0.0320 -0.3205
 5107TIP3   OH236879   4.261   6.651   1.546  0.2258 -0.1514  0.3704
 5107TIP3    H136880   4.275   6.682   1.635  1.2674  2.0000 -0.4527
 5107TIP3    H236881   4.168   6.629   1.542  0.1105 -0.0135  1.8997
 5108TIP3   OH236882   4.478   5.029   2.097  0.1173  0.2731 -0.6566
 5108TIP3    H136883   4.421   4.978   2.155  0.8683 -1.4984 -1.4200
 5108TIP3    H236884   4.543   5.067   2.156 -0.4319  0.3441 -0.0771
 5109TIP3   OH236885   5.697   2.621   1.063  0.3561  0.6577 -0.2880
 5109TIP3    H136886   5.721   2.672   1.141 -0.3413  0.9802 -0.2692
 5109TIP3    H236887   5.602   2.630   1.058  0.4192  0.8324 -1.3158
 5110TIP3   OH236888   6.359   5.773   7.356 -0.0118  0.3853 -0.6252
 5110TIP3    H136889   6.453   5.792   7.350  0.1248  0.7171  1.7500
 5110TIP3    H236890   6.321   5.851   7.396 -1.2800  0.1415 -1.3139
 5111TIP3   OH236891   3.924   4.671   0.475  0.0728 -1.3188  0.3079
 5111TIP3    H136892   3.894   4.724   0.401  0.6346 -2.0095 -0.4240
 5111TIP3    H236893   4.009   4.708   0.499 -0.7901 -0.0777  1.6664
 5112TIP3   OH236894   6.049   2.111   1.118 -0.2259 -0.1240  0.0480
 5112TIP3    H136895   6.026   2.204   1.124 -1.3432 -0.3228 -0.7845
 5112TIP3    H236896   6.058   2.083   1.209 -1.9324  0.3295  0.3953
 5113TIP3   OH236897   1.736   1.629   1.571  0.1246  0.4386  0.2059
 5113TIP3    H136898   1.815   1.592   1.532  0.2196  0.6968  0.1510
 5113TIP3    H236899   1.765   1.711   1.611 -0.3706  1.2437 -1.0036
 5114TIP3   OH236900   1.938   3.870   7.230  0.1754  0.3062  0.2889
 5114TIP3    H136901   1.948   3.776   7.243  0.8131  0.4529  0.8959
 5114TIP3    H236902   1.862   3.878   7.172  0.0464 -0.5715  0.3244
 5115TIP3   OH236903   0.328   4.129   1.499  0.1027 -0.3163  0.5036
 5115TIP3    H136904   0.387   4.055   1.511  1.0789  0.3130 -0.2238
 5115TIP3    H236905   0.386   4.204   1.487 -0.8453  0.3178 -0.2796
 5116TIP3   OH236906   5.824   1.380   2.594 -0.5349 -0.1745  0.1869
 5116TIP3    H136907   5.853   1.398   2.684 -0.7562 -1.4489  0.5266
 5116TIP3    H236908   5.869   1.299   2.570 -1.2858 -0.4070 -0.4677
 5117TIP3   OH236909   0.748   1.934   8.101 -0.0644  0.4982 -0.1653
 5117TIP3    H136910   0.818   1.892   8.151  0.6332  3.1156  1.2375
 5117TIP3    H236911   0.667   1.899   8.139  0.4866  0.0678  0.6488
 5118TIP3   OH236912   0.305   4.015   2.665 -0.7322 -0.8723 -0.1504
 5118TIP3    H136913   0.216   3.982   2.671 -0.5820 -1.1334  0.8066
 5118TIP3    H236914   0.355   3.961   2.726 -0.0487 -0.2861 -0.1709
 5119TIP3   OH236915   3.766   2.833   2.424  0.1506 -0.1612  0.0961
 5119TIP3    H136916   3.818   2.885   2.486  1.1194  0.1040 -0.9000
 5119TIP3    H236917   3.708   2.781   2.480 -2.1197  3.1902  1.1290
 5120TIP3   OH236918   5.162   5.589   0.238 -0.7228 -0.7228 -0.4335
 5120TIP3    H136919   5.121   5.529   0.300 -0.4142 -2.6386 -1.9871
 5120TIP3    H236920   5.111   5.579   0.157  1.1473 -1.1757 -1.6148
 5121TIP3   OH236921   4.522   5.718   0.222 -0.4653 -0.9453  0.0409
 5121TIP3    H136922   4.545   5.633   0.260 -1.8889 -1.2827  0.2203
 5121TIP3    H236923   4.534   5.781   0.293  1.6824 -0.7914 -0.4059
 5122TIP3   OH236924   4.060   3.991   2.561 -0.2036  0.0004 -0.5750
 5122TIP3    H136925   4.145   3.961   2.528 -0.4764  0.9376 -2.2631
 5122TIP3    H236926   4.082   4.049   2.634  0.4554 -1.7423  0.6755
 5123TIP3   OH236927   3.765   5.310   1.841 -0.0568  0.2703  0.3898
 5123TIP3    H136928   3.709   5.387   1.825  0.6418  0.9720  1.2245
 5123TIP3    H236929   3.745   5.251   1.768 -0.5611  1.2725 -0.3203
 5124TIP3   OH236930   3.062   0.801   7.249 -0.7506  0.0360 -0.2560
 5124TIP3    H136931   3.112   0.777   7.171 -0.3358 -1.2569  0.3883
 5124TIP3    H236932   3.095   0.888   7.272 -0.0732 -0.0486 -0.8620
 5125TIP3   OH236933   5.373   3.429   1.646  0.0895  0.4831 -0.2956
 5125TIP3    H136934   5.366   3.516   1.684  0.4898  0.6989 -0.7026
 5125TIP3    H236935   5.286   3.410   1.612 -0.2646  0.2944  0.7008
 5126TIP3   OH236936   4.313   0.209   0.055  0.2556 -0.1858 -1.0700
 5126TIP3    H136937   4.218   0.199   0.055  0.3814 -1.7225 -0.3574
 5126TIP3    H236938   4.336   0.217   0.148  0.9115 -0.8844 -1.1656
 5127TIP3   OH236939   4.321   1.907   0.505  0.7411  0.6726 -0.2129
 5127TIP3    H136940   4.403   1.858   0.506  0.0856 -0.4512 -0.2756
 5127TIP3    H236941   4.345   1.994   0.537  1.9539  0.3703 -0.2433
 5128TIP3   OH236942   4.321   1.491   6.966  0.7888 -0.2045 -0.2876
 5128TIP3    H136943   4.244   1.548   6.968  0.3042 -0.8773  0.9411
 5128TIP3    H236944   4.293   1.415   6.914  0.1045 -1.1216  1.3535
 5129TIP3   OH236945   4.101   6.870   8.377  0.4897 -0.3175 -0.0047
 5129TIP3    H136946   4.041   6.841   8.446  0.6332 -0.4149  0.0794
 5129TIP3    H236947   4.182   6.823   8.394  1.1058  0.9933  0.8218
 5130TIP3   OH236948   5.452   5.659   1.138 -0.0438  0.5516 -0.0963
 5130TIP3    H136949   5.367   5.690   1.108 -1.0965  0.3706  2.4259
 5130TIP3    H236950   5.438   5.566   1.157  1.1323  0.1684 -0.9587
 5131TIP3   OH236951   6.742   4.362   0.797  0.3149  0.3273  0.1610
 5131TIP3    H136952   6.647   4.354   0.805  0.1097 -2.9376 -3.2274
 5131TIP3    H236953   6.775   4.273   0.807  3.3057  1.5242  2.5981
 5132TIP3   OH236954   2.192   6.214   1.299  0.2194  0.7721 -1.0088
 5132TIP3    H136955   2.260   6.160   1.340 -0.7538  0.6129  0.4463
 5132TIP3    H236956   2.192   6.185   1.207 -0.1639 -1.6202 -0.3309
 5133TIP3   OH236957   1.815   0.660   0.284 -0.4899 -0.2296 -0.2898
 5133TIP3    H136958   1.857   0.732   0.237  1.5574 -0.9548  0.3064
 5133TIP3    H236959   1.785   0.601   0.216  1.2476 -0.6167 -0.7664
 5134TIP3   OH236960   1.565   4.184   6.754 -0.2367 -0.6914 -0.8199
 5134TIP3    H136961   1.555   4.252   6.821  0.3299 -2.1633  0.8503
 5134TIP3    H236962   1.539   4.226   6.672 -0.7758  1.2475  0.2921
 5135TIP3   OH236963   1.776   6.428   8.458 -0.4091 -0.2474  0.5865
 5135TIP3    H136964   1.767   6.523   8.464  3.1988  0.5476 -2.7337
 5135TIP3    H236965   1.739   6.406   8.372  1.5031 -1.2838 -0.0323
 5136TIP3   OH236966   1.314   3.068   8.141 -0.5127 -0.2145 -0.8793
 5136TIP3    H136967   1.324   3.099   8.231 -0.6016 -1.1932 -0.5254
 5136TIP3    H236968   1.222   3.043   8.134 -0.6299  0.3350 -1.4077
 5137TIP3   OH236969   6.247   5.810   0.793  0.2523  0.0859  0.3121
 5137TIP3    H136970   6.294   5.729   0.775  1.3843  0.5335  1.1313
 5137TIP3    H236971   6.304   5.880   0.760  0.5872  0.6810  2.0339
 5138TIP3   OH236972   5.198   1.279   0.909 -0.5554 -0.0075  0.4756
 5138TIP3    H136973   5.179   1.214   0.977  0.6466 -1.3957 -0.4647
 5138TIP3    H236974   5.293   1.286   0.907 -0.6489  1.6054  0.3643
 5139TIP3   OH236975   3.206   5.278   1.418 -0.2233  0.0762 -0.0610
 5139TIP3    H136976   3.203   5.372   1.434  0.6599  0.0712  0.1670
 5139TIP3    H236977   3.114   5.253   1.406 -0.5437  0.8066  0.7841
 5140TIP3   OH236978   4.265   2.925   0.595  0.7974  0.1334 -0.3962
 5140TIP3    H136979   4.214   2.844   0.599  1.4519 -0.3078 -0.7967
 5140TIP3    H236980   4.218   2.986   0.651  0.5074 -0.6463  0.2210
 5141TIP3   OH236981   0.546   4.500   1.071  0.6242  0.3169 -1.0013
 5141TIP3    H136982   0.583   4.413   1.086  0.4404  0.4947  0.6758
 5141TIP3    H236983   0.473   4.486   1.011  1.6943 -0.4083 -2.2001
 5142TIP3   OH236984   0.430   6.480   2.825  0.3562 -0.0572 -0.3510
 5142TIP3    H136985   0.399   6.482   2.734 -2.3044 -0.0207  0.4637
 5142TIP3    H236986   0.442   6.387   2.843 -0.4789 -0.1804 -0.3613
 5143TIP3   OH236987   1.521   5.934   8.627  0.2684 -0.3822  0.0765
 5143TIP3    H136988   1.485   6.022   8.614  0.7720 -0.2614 -0.5237
 5143TIP3    H236989   1.543   5.903   8.539 -1.2694 -1.7104  0.1141
 5144TIP3   OH236990   4.262   2.784   1.918  0.0816  0.0602 -0.5119
 5144TIP3    H136991   4.245   2.810   2.009  2.9806  0.0067  0.1599
 5144TIP3    H236992   4.286   2.866   1.875  0.7269 -0.1965 -0.6573
 5145TIP3   OH236993   4.739   3.620   7.760  0.7130 -0.2826 -0.7710
 5145TIP3    H136994   4.664   3.574   7.796 -1.3717  2.5900 -1.1633
 5145TIP3    H236995   4.788   3.649   7.836 -1.2703  1.9319 -0.2323
 5146TIP3   OH236996   3.051   1.039   7.567 -0.2558 -0.5506 -0.0984
 5146TIP3    H136997   2.982   1.006   7.624 -0.7448 -0.2713 -0.5148
 5146TIP3    H236998   3.121   0.974   7.572 -0.1647 -0.3862  1.0449
 5147TIP3   OH236999   5.085   3.767   1.554  0.4154 -0.0937 -0.1353
 5147TIP3    H137000   5.146   3.780   1.481 -0.2396 -1.4053 -0.9642
 5147TIP3    H237001   5.117   3.824   1.623  1.4048  0.7493 -1.2486
 5148TIP3   OH237002   2.830   5.618   1.325  0.7271 -0.1753  0.1652
 5148TIP3    H137003   2.841   5.556   1.252  0.2328 -0.1902  0.1009
 5148TIP3    H237004   2.867   5.573   1.401  2.4407  0.3480 -0.3181
 5149TIP3   OH237005   0.901   0.112   1.497 -0.1739  0.3541  0.1272
 5149TIP3    H137006   0.993   0.088   1.482 -0.6331 -1.1542 -0.5738
 5149TIP3    H237007   0.852   0.041   1.455 -1.6625  1.2139  0.3633
 5150TIP3   OH237008   5.620   0.702   6.808 -0.0737  0.2458  0.9633
 5150TIP3    H137009   5.525   0.714   6.804  0.1064  1.4684 -1.4162
 5150TIP3    H237010   5.634   0.611   6.783 -0.5723  0.7941 -1.6777
 5151TIP3   OH237011   2.419   4.926   1.433  0.6438  0.2116 -0.4131
 5151TIP3    H137012   2.352   4.952   1.497  1.1148  0.6362 -0.0923
 5151TIP3    H237013   2.372   4.869   1.372 -0.2004  1.1230 -0.6393
 5152TIP3   OH237014   2.813   1.490   7.682  0.2007  0.3151  0.2105
 5152TIP3    H137015   2.882   1.454   7.626  0.6516  1.2633  0.1402
 5152TIP3    H237016   2.736   1.436   7.662  1.3833 -2.2290  1.8906
 5153TIP3   OH237017   0.903   2.593   1.508  0.6520 -0.4752 -0.6716
 5153TIP3    H137018   0.845   2.518   1.517  0.8022 -0.5309 -0.1600
 5153TIP3    H237019   0.936   2.610   1.596  0.6546  0.1681 -0.7872
 5154TIP3   OH237020   2.896   2.690   8.546  0.1959  0.1832  0.3039
 5154TIP3    H137021   2.928   2.648   8.626  0.1206 -1.3997 -0.4484
 5154TIP3    H237022   2.970   2.742   8.515 -0.1784  1.8405  2.0331
 5155TIP3   OH237023   0.458   6.589   1.004  0.7957 -0.1594  0.8368
 5155TIP3    H137024   0.500   6.510   0.971  1.2952  0.1935  0.6182
 5155TIP3    H237025   0.391   6.557   1.064  0.3909 -0.7731  0.0709
 5156TIP3   OH237026   6.439   4.155   0.312 -0.2225  0.0660 -0.5807
 5156TIP3    H137027   6.519   4.204   0.329 -0.7711  0.9096 -0.3527
 5156TIP3    H237028   6.387   4.213   0.256 -0.3123 -0.8350 -1.4546
 5157TIP3   OH237029   3.463   5.306   2.074  0.3678 -0.3034  0.3348
 5157TIP3    H137030   3.519   5.360   2.019  0.4433  0.9945  1.6139
 5157TIP3    H237031   3.419   5.246   2.013  1.7962 -0.1605 -0.8845
 5158TIP3   OH237032   5.403   4.920   1.655 -0.1247 -0.1937  0.2780
 5158TIP3    H137033   5.384   4.953   1.742 -2.3398 -0.8763  0.1003
 5158TIP3    H237034   5.358   4.836   1.650  0.7992 -0.6474 -1.1842
 5159TIP3   OH237035   2.003   0.238   1.701 -0.0520  0.4739 -0.4037
 5159TIP3    H137036   1.927   0.200   1.657  0.4088  0.9053 -1.6066
 5159TIP3    H237037   2.066   0.166   1.707 -0.5863  0.0832  0.7061
 5160TIP3   OH237038   1.640   5.076   0.744  0.2390 -0.5058 -0.0611
 5160TIP3    H137039   1.697   4.999   0.746  0.8892 -0.0213  0.3539
 5160TIP3    H237040   1.681   5.138   0.805 -1.9362 -0.9897  2.0266
 5161TIP3   OH237041   4.769   6.584   0.842 -0.0025 -0.3497  0.7314
 5161TIP3    H137042   4.748   6.544   0.926  0.9128 -3.4103 -0.3447
 5161TIP3    H237043   4.727   6.526   0.778 -1.2584  2.2591 -0.9815
 5162TIP3   OH237044   5.340   0.237   1.146  0.3648  0.0416  0.0159
 5162TIP3    H137045   5.332   0.324   1.186 -0.6624  0.3275 -0.7550
 5162TIP3    H237046   5.322   0.253   1.053 -0.5510 -1.1055 -0.0185
 5163TIP3   OH237047   4.804   6.092   8.019 -0.3840  0.3913  0.1837
 5163TIP3    H137048   4.867   6.080   7.947  0.9036 -0.2798  1.3770
 5163TIP3    H237049   4.718   6.089   7.976  0.1413 -3.4109 -0.9563
 5164TIP3   OH237050   5.997   5.739   1.675  0.1076  0.5426 -0.3738
 5164TIP3    H137051   5.913   5.728   1.629  0.3230 -1.1008 -0.4674
 5164TIP3    H237052   5.972   5.757   1.766 -0.3784 -0.6008 -0.2578
 5165TIP3   OH237053   4.749   1.897   2.068  0.1722  0.0649 -0.6373
 5165TIP3    H137054   4.791   1.920   2.151 -0.6512  1.5722 -0.5951
 5165TIP3    H237055   4.815   1.915   2.001  0.6459 -0.6196 -0.3598
 5166TIP3   OH237056   4.965   2.116   7.185 -0.0074 -0.1092 -0.4591
 5166TIP3    H137057   4.921   2.070   7.114 -1.1944  1.8163 -1.0387
 5166TIP3    H237058   4.908   2.104   7.261  0.1472 -0.3350 -0.3766
 5167TIP3   OH237059   6.206   2.711   0.374 -0.5723 -0.2806 -0.4250
 5167TIP3    H137060   6.228   2.650   0.304 -2.1896 -1.2424 -0.1395
 5167TIP3    H237061   6.215   2.661   0.455 -1.7883 -0.1375 -0.1761
 5168TIP3   OH237062   0.839   1.627   6.600 -0.1942  0.2665  0.0642
 5168TIP3    H137063   0.897   1.618   6.676 -0.9922  0.1184  0.6742
 5168TIP3    H237064   0.784   1.548   6.603 -1.1707  0.9406  0.1478
 5169TIP3   OH237065   1.292   0.576   0.824  0.0085  0.0590 -0.1456
 5169TIP3    H137066   1.261   0.647   0.881  0.0759  0.7100 -0.9001
 5169TIP3    H237067   1.342   0.519   0.883 -1.8532 -0.5593  0.9272
 5170TIP3   OH237068   2.163   2.545   1.663  0.2028 -0.5780  0.1117
 5170TIP3    H137069   2.130   2.493   1.590  0.0442  0.9719 -0.9801
 5170TIP3    H237070   2.125   2.504   1.741 -1.6115 -0.8428 -0.8492
 5171TIP3   OH237071   3.709   5.048   6.584 -0.0872  1.0008 -0.4343
 5171TIP3    H137072   3.635   5.036   6.524 -1.2863 -2.2183  1.4510
 5171TIP3    H237073   3.672   5.091   6.660 -0.1312 -0.7124  0.5590
 5172TIP3   OH237074   1.503   3.192   0.862 -0.2477  0.2972 -0.5150
 5172TIP3    H137075   1.573   3.256   0.850  0.1344 -0.0271 -0.0569
 5172TIP3    H237076   1.528   3.144   0.941  1.4867 -2.9625 -2.8336
 5173TIP3   OH237077   6.032   5.181   1.599  0.2083 -0.0550  0.0608
 5173TIP3    H137078   5.983   5.146   1.525 -0.3923 -0.9690  0.8771
 5173TIP3    H237079   6.044   5.274   1.578  0.0425 -0.2961 -1.1679
 5174TIP3   OH237080   4.095   5.086   6.800 -0.8093  0.5042 -0.2938
 5174TIP3    H137081   4.163   5.147   6.769  0.1847 -0.0647  0.7127
 5174TIP3    H237082   4.095   5.016   6.735 -2.4321  1.8394 -1.8386
 5175TIP3   OH237083   2.985   3.750   0.223  0.9059 -0.1429 -0.5309
 5175TIP3    H137084   2.922   3.790   0.283  1.0652 -1.1700  0.3492
 5175TIP3    H237085   2.931   3.708   0.156  0.6205 -1.2329  0.3584
 5176TIP3   OH237086   5.054   2.052   1.583  0.2220  0.3868 -0.1975
 5176TIP3    H137087   4.966   2.017   1.599  1.6172 -3.5334 -0.2488
 5176TIP3    H237088   5.055   2.068   1.489 -0.4822  0.6697 -0.1683
 5177TIP3   OH237089   4.257   2.526   1.549 -0.0363 -0.8380 -0.0856
 5177TIP3    H137090   4.181   2.581   1.570  0.6108  0.3747 -0.7810
 5177TIP3    H237091   4.331   2.572   1.588  0.7096 -0.4221 -1.8897
 5178TIP3   OH237092   1.020   2.721   1.082 -0.2655  0.3378 -0.0790
 5178TIP3    H137093   0.987   2.797   1.034 -0.2950  1.0196  1.0008
 5178TIP3    H237094   0.942   2.678   1.116 -0.4319 -1.4139 -2.4025
 5179TIP3   OH237095   0.186   4.251   8.222  0.3861  0.0254  0.5084
 5179TIP3    H137096   0.183   4.330   8.168  0.6300 -0.3638 -0.0841
 5179TIP3    H237097   0.134   4.186   8.173  0.1740 -0.1786  0.9958
 5180TIP3   OH237098   5.820   6.076   1.727  0.4371  0.5910  0.0525
 5180TIP3    H137099   5.885   6.093   1.659 -1.7238 -2.1389 -3.0500
 5180TIP3    H237100   5.750   6.140   1.709  0.1492  0.3053  0.1543
 5181TIP3   OH237101   4.678   2.221   7.643 -0.5499  0.5616 -0.2034
 5181TIP3    H137102   4.751   2.159   7.652 -1.0355 -0.4693 -2.7718
 5181TIP3    H237103   4.675   2.266   7.728  1.5569 -1.0068  0.7918
 5182TIP3   OH237104   6.302   0.831   7.759  0.3787 -0.1814  0.0460
 5182TIP3    H137105   6.262   0.783   7.686  0.6804  0.4121 -0.5199
 5182TIP3    H237106   6.296   0.771   7.833 -1.8765  0.0131  0.0908
 5183TIP3   OH237107   5.967   4.873   0.993 -0.0608 -0.4160  0.8825
 5183TIP3    H137108   6.057   4.864   1.024 -0.4236 -0.8589  1.8401
 5183TIP3    H237109   5.967   4.955   0.942  1.8917 -2.5018 -2.8624
 5184TIP3   OH237110   4.030   6.449   8.458 -0.2612  0.1662  0.0798
 5184TIP3    H137111   3.949   6.399   8.444 -0.4946  0.9608 -1.6903
 5184TIP3    H237112   4.099   6.392   8.425 -0.1689 -0.2504  0.9873
 5185TIP3   OH237113   4.451   1.157   0.490  0.3447 -0.3524  0.1002
 5185TIP3    H137114   4.356   1.167   0.499  0.5031  0.0441  1.4251
 5185TIP3    H237115   4.465   1.063   0.484 -0.2155 -0.3712 -1.2866
 5186TIP3   OH237116   0.352   5.975   2.088 -0.0304 -0.6742  0.2181
 5186TIP3    H137117   0.441   5.990   2.119  0.2950 -1.7888 -0.1435
 5186TIP3    H237118   0.338   6.042   2.021  1.1677 -1.5512 -0.9488
 5187TIP3   OH237119   4.433   6.719   7.412 -0.1435  0.1189 -0.1721
 5187TIP3    H137120   4.434   6.690   7.321 -1.4123 -0.5103 -0.0113
 5187TIP3    H237121   4.524   6.716   7.440 -0.1033 -3.9896 -0.1034
 5188TIP3   OH237122   0.114   6.229   2.283  0.2328  0.3822 -0.3777
 5188TIP3    H137123   0.159   6.314   2.284  1.5567 -0.2927 -0.2737
 5188TIP3    H237124   0.054   6.236   2.208  0.0986  1.5102 -0.1905
 5189TIP3   OH237125   5.911   4.250   1.682 -0.5140 -0.2180  0.3822
 5189TIP3    H137126   5.991   4.208   1.713  0.0428 -1.0660 -1.9634
 5189TIP3    H237127   5.847   4.179   1.677 -0.2919 -0.3534 -1.2282
 5190TIP3   OH237128   5.779   3.687   0.853  0.0772 -0.5409  0.8223
 5190TIP3    H137129   5.868   3.655   0.869 -0.5907 -1.3464  3.4589
 5190TIP3    H237130   5.757   3.737   0.932 -1.9829 -0.8103  0.4738
 5191TIP3   OH237131   1.863   2.602   8.667  0.2918  0.0665  0.7664
 5191TIP3    H137132   1.830   2.614   8.756  0.8077  0.4693  0.9122
 5191TIP3    H237133   1.957   2.621   8.674 -0.0935  2.8736 -0.3860
 5192TIP3   OH237134   0.221   2.360   0.409  0.8209  0.0522  0.1755
 5192TIP3    H137135   0.236   2.397   0.496 -0.0191 -0.0288  0.3646
 5192TIP3    H237136   0.266   2.420   0.350  2.0193 -0.2929  0.7132
 5193TIP3   OH237137   1.980   5.660   6.818 -0.2037 -0.1281 -0.4198
 5193TIP3    H137138   1.892   5.624   6.805  0.6945 -1.8633 -2.0626
 5193TIP3    H237139   2.016   5.610   6.891  0.1055 -0.7867 -1.0149
 5194TIP3   OH237140   5.993   3.451   0.191 -0.0693  0.2898 -0.0145
 5194TIP3    H137141   5.968   3.503   0.267 -0.2485  0.4671 -0.1928
 5194TIP3    H237142   6.077   3.411   0.215 -0.2368  0.1634  0.3600
 5195TIP3   OH237143   6.026   2.747   8.265  0.3032 -0.3994 -0.8559
 5195TIP3    H137144   6.063   2.806   8.331  1.0625 -3.4552  1.6814
 5195TIP3    H237145   5.931   2.754   8.278  0.4389 -1.0216  0.7118
 5196TIP3   OH237146   1.397   6.600   7.960  0.1755 -0.1943 -0.9481
 5196TIP3    H137147   1.466   6.598   7.893  0.2396  1.0915 -0.9480
 5196TIP3    H237148   1.384   6.694   7.978 -0.2834 -0.4912  0.3837
 5197TIP3   OH237149   4.769   6.836   2.178  0.0814  0.1085  0.3689
 5197TIP3    H137150   4.812   6.754   2.202  0.3040 -0.4330 -1.6715
 5197TIP3    H237151   4.710   6.854   2.250  1.3725 -0.8508  1.7371
 5198TIP3   OH237152   5.915   2.391   0.848  0.1206  0.4848  0.5627
 5198TIP3    H137153   5.822   2.409   0.858 -0.0783 -0.1004 -0.1347
 5198TIP3    H237154   5.952   2.471   0.811 -0.1150  0.6949  0.7806
 5199TIP3   OH237155   1.065   4.023   0.156  0.6643 -0.4114  0.3934
 5199TIP3    H137156   1.026   4.031   0.069  0.3363 -0.7552  0.5062
 5199TIP3    H237157   1.109   3.939   0.155 -0.0272 -0.7909  0.8238
 5200TIP3   OH237158   5.890   3.078   1.269  0.0180  0.4988 -0.2525
 5200TIP3    H137159   5.919   3.074   1.178  1.3707 -0.4652  0.1951
 5200TIP3    H237160   5.964   3.044   1.319 -0.6146  1.2576  1.2350
 5201TIP3   OH237161   2.000   6.399   6.820 -0.4716  0.3085  0.0066
 5201TIP3    H137162   2.035   6.425   6.734 -1.8400 -0.3000 -0.7583
 5201TIP3    H237163   2.076   6.401   6.878  0.3532  1.4374 -1.0484
 5202TIP3   OH237164   0.112   4.524   7.847 -0.1545 -0.3029 -0.5248
 5202TIP3    H137165   0.151   4.580   7.781 -0.2211 -2.4172 -2.5052
 5202TIP3    H237166   0.173   4.526   7.921  0.0998  1.8552 -0.7466
 5203TIP3   OH237167   5.686   2.359   0.292 -0.0009 -0.4565 -0.2356
 5203TIP3    H137168   5.769   2.371   0.246 -0.2397 -1.0965 -0.8534
 5203TIP3    H237169   5.689   2.269   0.324 -0.8214 -0.7911 -1.0471
 5204TIP3   OH237170   3.702   1.864   7.169 -0.4252 -0.3086  0.2712
 5204TIP3    H137171   3.716   1.783   7.120  0.9483  0.0123  0.0913
 5204TIP3    H237172   3.789   1.901   7.180 -0.8812  0.4410  1.5918
 5205TIP3   OH237173   2.480   0.055   0.121  0.3969 -0.8079  0.3114
 5205TIP3    H137174   2.430   0.017   0.049  0.7234 -0.0287 -0.3338
 5205TIP3    H237175   2.524  -0.020   0.161 -0.0673 -1.2944 -0.0686
 5206TIP3   OH237176   5.184   6.826   8.151 -0.4829  0.3623 -0.7595
 5206TIP3    H137177   5.234   6.746   8.133 -0.1590  0.1289  1.0336
 5206TIP3    H237178   5.249   6.896   8.148 -0.5750  0.4314 -1.2529
 5207TIP3   OH237179   2.797   4.401   7.097  0.1744  1.0160 -0.3535
 5207TIP3    H137180   2.729   4.466   7.116 -1.5662 -0.8953  0.3427
 5207TIP3    H237181   2.778   4.372   7.008 -0.3025  0.0756  0.0420
 5208TIP3   OH237182   4.713   3.450   0.438 -0.3571  0.3272 -0.3482
 5208TIP3    H137183   4.649   3.513   0.404 -0.7146 -0.3397 -0.9412
 5208TIP3    H237184   4.754   3.413   0.360 -0.7032 -0.7421 -0.0377
 5209TIP3   OH237185   1.271   5.443   2.021 -0.2687 -0.3916  0.0882
 5209TIP3    H137186   1.273   5.383   2.096 -1.8237  0.6953  1.0636
 5209TIP3    H237187   1.277   5.530   2.060 -0.2433  0.1747 -1.1348
 5210TIP3   OH237188   6.220   6.818   7.587  0.2288 -0.0637 -0.0346
 5210TIP3    H137189   6.215   6.723   7.581  0.7343 -0.1891  1.2443
 5210TIP3    H237190   6.246   6.835   7.677 -1.3012  1.3420  0.1932
 5211TIP3   OH237191   2.657   0.834   0.515 -0.3756  0.2642  0.0412
 5211TIP3    H137192   2.616   0.913   0.551 -1.0535  0.3894 -0.9533
 5211TIP3    H237193   2.732   0.867   0.464 -0.7558  0.2898 -0.5094
 5212TIP3   OH237194   5.423   2.679   0.998  0.0166 -0.4335 -0.1365
 5212TIP3    H137195   5.360   2.631   1.052 -1.1460  0.2260 -0.8717
 5212TIP3    H237196   5.379   2.760   0.976  1.3764  0.3226 -0.1792
 5213TIP3   OH237197   6.471   0.251   1.812 -0.1372 -0.1984  0.0912
 5213TIP3    H137198   6.393   0.223   1.860  0.8775 -1.4072  1.1067
 5213TIP3    H237199   6.535   0.182   1.828  1.1459  0.7552 -0.7339
 5214TIP3   OH237200   3.305   3.682   2.133  0.1892 -0.3420 -0.2260
 5214TIP3    H137201   3.239   3.644   2.191 -0.5992  1.0109 -0.2105
 5214TIP3    H237202   3.388   3.654   2.171 -0.3228 -0.0202  1.2134
 5215TIP3   OH237203   4.664   6.684   2.565 -0.2658  0.0095  0.1224
 5215TIP3    H137204   4.690   6.716   2.652 -0.6282 -1.3276  0.7430
 5215TIP3    H237205   4.673   6.761   2.508  1.5386  0.5234  1.0005
 5216TIP3   OH237206   2.147   1.628   0.578  0.5040 -0.5169  0.2351
 5216TIP3    H137207   2.142   1.566   0.505 -0.5602 -0.3694  0.1607
 5216TIP3    H237208   2.211   1.693   0.551 -1.6832  0.9851 -1.7411
 5217TIP3   OH237209   2.326   4.442   1.632 -0.3204  0.1924  0.0755
 5217TIP3    H137210   2.378   4.509   1.588 -0.6958 -0.5548 -1.5849
 5217TIP3    H237211   2.326   4.468   1.724 -1.4792  3.2001 -0.6368
 5218TIP3   OH237212   4.484   2.506   7.785 -0.6367  0.1820 -0.0120
 5218TIP3    H137213   4.425   2.516   7.711  0.4366 -0.2159 -0.9418
 5218TIP3    H237214   4.520   2.594   7.800 -0.9262  0.2810  0.1123
 5219TIP3   OH237215   3.156   6.000   0.066  0.8029 -0.2108 -0.0435
 5219TIP3    H137216   3.147   6.083   0.018  1.6312  0.4341  0.8570
 5219TIP3    H237217   3.231   6.015   0.124  0.5505 -1.3667  0.6057
 5220TIP3   OH237218   6.323   0.496   1.267 -0.0564 -0.6820 -0.2997
 5220TIP3    H137219   6.302   0.583   1.234  0.8145 -0.5488 -0.5002
 5220TIP3    H237220   6.323   0.440   1.190  0.0506 -0.7364 -0.2602
 5221TIP3   OH237221   6.690   1.377   2.314  0.0800  0.3309 -0.1071
 5221TIP3    H137222   6.625   1.433   2.358 -0.9756 -0.4471 -0.6385
 5221TIP3    H237223   6.646   1.292   2.305  1.7658 -0.7017  0.9635
 5222TIP3   OH237224   3.069   4.885   1.286 -0.1322  0.1840 -0.3715
 5222TIP3    H137225   3.127   4.884   1.210  1.3644  0.3900  0.7230
 5222TIP3    H237226   2.993   4.937   1.258  0.3215  0.1353 -1.7515
 5223TIP3   OH237227   1.460   5.110   1.004  0.1068 -0.1872 -0.5431
 5223TIP3    H137228   1.398   5.148   1.067 -0.3147 -0.8805 -0.5275
 5223TIP3    H237229   1.449   5.163   0.925  0.9891  1.0005  0.1007
 5224TIP3   OH237230   3.961   4.447   7.623 -0.0346 -0.1436 -0.1424
 5224TIP3    H137231   3.881   4.473   7.667  1.7838  1.9665  2.2266
 5224TIP3    H237232   3.990   4.527   7.578  0.6816 -0.9238 -1.1185
 5225TIP3   OH237233   1.537   6.002   7.784 -0.1451  0.6465  0.0826
 5225TIP3    H137234   1.575   5.919   7.814  0.3568  0.1474 -1.8167
 5225TIP3    H237235   1.460   6.014   7.839 -0.3081 -1.1609  0.3157
 5226TIP3   OH237236   2.495   2.809   1.807 -0.3298 -0.3326  0.0949
 5226TIP3    H137237   2.475   2.762   1.726  0.1008  0.5822 -0.5611
 5226TIP3    H237238   2.585   2.785   1.827 -0.0468  0.3533 -0.3444
 5227TIP3   OH237239   2.278   6.616   6.808 -0.0344 -0.5067  0.0102
 5227TIP3    H137240   2.361   6.596   6.766  0.4648 -0.7909  1.0937
 5227TIP3    H237241   2.217   6.631   6.736  1.0168 -0.0363 -0.7963
 5228TIP3   OH237242   0.366   4.820   0.214 -0.5715 -0.1783 -0.3008
 5228TIP3    H137243   0.428   4.891   0.202 -0.2071 -0.3384  0.5217
 5228TIP3    H237244   0.421   4.742   0.223 -0.7750 -0.1582  1.7135
 5229TIP3   OH237245   0.657   0.029   1.909 -0.1082  0.1920 -0.1471
 5229TIP3    H137246   0.629  -0.039   1.849 -1.8608 -0.5942  1.4432
 5229TIP3    H237247   0.736  -0.005   1.950  1.3570  0.9309 -2.2408
 5230TIP3   OH237248   2.619   1.233   7.294  0.1201  0.3734  0.0390
 5230TIP3    H137249   2.565   1.273   7.226  1.9006  0.2899 -1.4981
 5230TIP3    H237250   2.654   1.307   7.343 -0.8987  0.4481  0.6769
 5231TIP3   OH237251   2.206   5.930   7.195 -0.2286 -0.2360  0.1088
 5231TIP3    H137252   2.301   5.944   7.186 -0.1124 -1.5470 -0.9891
 5231TIP3    H237253   2.167   6.000   7.142  0.0797  0.7719  1.1714
 5232TIP3   OH237254   3.258   4.121   0.182 -0.1670  0.0394  0.0660
 5232TIP3    H137255   3.214   4.200   0.151  1.8046  1.0525 -0.3634
 5232TIP3    H237256   3.291   4.145   0.269  0.6096 -0.2151 -0.1467
 5233TIP3   OH237257   6.179   1.545   7.925  0.0602 -0.5213 -0.0557
 5233TIP3    H137258   6.106   1.595   7.962 -0.1737 -1.6910  1.1527
 5233TIP3    H237259   6.187   1.577   7.835 -1.0862  0.5602  0.1979
 5234TIP3   OH237260   6.324   6.443   8.104 -0.2047  0.1371 -0.2129
 5234TIP3    H137261   6.302   6.350   8.106 -0.3383  0.1676  1.7751
 5234TIP3    H237262   6.296   6.477   8.189  0.7201  1.8008 -0.5109
 5235TIP3   OH237263   4.341   1.143   8.170  0.5819 -0.1241 -0.0351
 5235TIP3    H137264   4.412   1.207   8.159  0.7459  0.0146  1.5110
 5235TIP3    H237265   4.263   1.187   8.137  0.9794  0.2619 -0.4632
 5236TIP3   OH237266   1.405   6.234   0.088 -0.4436 -0.5675  0.4950
 5236TIP3    H137267   1.475   6.187   0.044  0.7648  0.9999  0.6326
 5236TIP3    H237268   1.375   6.175   0.157  0.6890 -1.3166  0.3631
 5237TIP3   OH237269   1.921   6.199   0.893 -0.7875  0.5636 -0.6653
 5237TIP3    H137270   1.915   6.129   0.829 -0.1035 -0.3624  0.2540
 5237TIP3    H237271   1.908   6.279   0.842 -0.3578 -0.1473 -1.9388
 5238TIP3   OH237272   1.175   3.006   7.106  0.0092 -0.5153  0.1054
 5238TIP3    H137273   1.085   2.975   7.113  0.4713 -1.7213  1.0088
 5238TIP3    H237274   1.174   3.093   7.145 -0.4602 -1.1781  1.6236
 5239TIP3   OH237275   2.678   4.758   7.167  0.2005  0.1019  0.5492
 5239TIP3    H137276   2.627   4.678   7.162  0.2471  0.1060 -0.0545
 5239TIP3    H237277   2.769   4.730   7.161  0.2399  0.1602  0.8432
 5240TIP3   OH237278   6.196   0.097   1.048  0.1810 -0.1521 -0.2616
 5240TIP3    H137279   6.221   0.024   0.992 -0.0312 -0.3674 -0.0770
 5240TIP3    H237280   6.128   0.062   1.105 -1.0738  0.6432 -1.2417
 5241TIP3   OH237281   2.315   3.088   0.721 -0.0734  0.1142 -0.1263
 5241TIP3    H137282   2.226   3.053   0.723 -0.5905  1.3565 -0.5521
 5241TIP3    H237283   2.356   3.047   0.645 -1.3849  2.0129 -1.9803
 5242TIP3   OH237284   2.804   6.757   8.406  0.6161 -0.1626  0.0583
 5242TIP3    H137285   2.876   6.797   8.357  0.2075  2.1094  1.1891
 5242TIP3    H237286   2.748   6.831   8.432 -1.6456 -1.7577  0.0087
 5243TIP3   OH237287   3.278   6.456   8.566  0.1601  0.1353  0.0315
 5243TIP3    H137288   3.250   6.523   8.628  0.1281 -0.2416  0.4255
 5243TIP3    H237289   3.342   6.501   8.511  1.4373  0.0514  1.3794
 5244TIP3   OH237290   5.275   0.562   7.288  0.1110  0.6952 -0.6262
 5244TIP3    H137291   5.367   0.570   7.260 -0.0437 -0.1562 -1.4491
 5244TIP3    H237292   5.240   0.650   7.279  0.9013  1.0845 -0.0795
 5245TIP3   OH237293   6.141   1.331   2.448  0.3923  0.6697  0.0456
 5245TIP3    H137294   6.204   1.317   2.520 -1.9667  0.8521  2.2985
 5245TIP3    H237295   6.074   1.265   2.463 -0.1210  0.6460 -2.1398
 5246TIP3   OH237296   4.546   4.119   6.856 -0.5082  0.3331 -0.1268
 5246TIP3    H137297   4.541   4.033   6.815  0.9915  0.4106 -0.5345
 5246TIP3    H237298   4.601   4.171   6.796  1.1024  0.6818  1.5596
 5247TIP3   OH237299   2.622   3.385   1.989  0.4458 -0.7750 -0.2254
 5247TIP3    H137300   2.640   3.304   2.038  2.0635  0.4207  1.2830
 5247TIP3    H237301   2.701   3.438   2.001 -0.3113  0.7844 -1.7252
 5248TIP3   OH237302   1.969   2.348   7.389 -0.2168 -0.7911  0.3091
 5248TIP3    H137303   1.968   2.252   7.391 -0.3897 -0.7827  1.1862
 5248TIP3    H237304   1.983   2.374   7.481  1.2254  0.0187 -0.1093
 5249TIP3   OH237305   5.875   1.320   1.290  0.4900  0.4930 -0.2170
 5249TIP3    H137306   5.844   1.399   1.335 -1.1129  0.3397 -0.9866
 5249TIP3    H237307   5.887   1.256   1.360 -0.4154  0.7443  0.1816
 5250TIP3   OH237308   0.355   3.046   2.108 -0.2207  0.4045  0.6875
 5250TIP3    H137309   0.412   3.016   2.178  2.1749 -0.0798 -1.3275
 5250TIP3    H237310   0.385   2.999   2.030 -2.4235  1.2752 -0.7966
 5251TIP3   OH237311   0.948   0.743   8.231 -0.0239 -0.4198 -0.1688
 5251TIP3    H137312   0.855   0.763   8.239  0.4096  1.5136  0.3734
 5251TIP3    H237313   0.950   0.663   8.178 -2.0121 -0.9542  0.4777
 5252TIP3   OH237314   6.047   4.821   1.448 -0.6420  0.6837 -0.0924
 5252TIP3    H137315   6.024   4.828   1.541  1.6340  1.9539  0.4526
 5252TIP3    H237316   5.968   4.849   1.401 -1.1247  2.2276  1.5431
 5253TIP3   OH237317   1.461   1.403   2.450 -0.3493  0.1701  0.4332
 5253TIP3    H137318   1.529   1.443   2.396 -1.9783  0.5372 -1.4884
 5253TIP3    H237319   1.480   1.309   2.447  1.3923  0.4236  1.9312
 5254TIP3   OH237320   0.001   6.280   8.165 -0.1435 -0.0402  0.4406
 5254TIP3    H137321  -0.085   6.300   8.129  0.3686  1.0601 -0.2084
 5254TIP3    H237322   0.063   6.320   8.105  0.8453 -0.8997  0.8455
 5255TIP3   OH237323   5.128   3.439   1.518 -0.1149  0.1620  0.4387
 5255TIP3    H137324   5.049   3.393   1.493 -0.3071  0.6747  0.0779
 5255TIP3    H237325   5.141   3.504   1.448  1.1338 -0.5218  0.0128
 5256TIP3   OH237326   1.744   1.843   7.524 -0.7636  0.0138  0.1617
 5256TIP3    H137327   1.764   1.926   7.567 -1.6349  0.2875  0.0684
 5256TIP3    H237328   1.741   1.779   7.595 -2.4704  0.5135  0.5791
 5257TIP3   OH237329   0.587   5.762   0.953  0.3398  0.3221  0.0515
 5257TIP3    H137330   0.657   5.824   0.935  0.2301  0.4443  0.0454
 5257TIP3    H237331   0.623   5.704   1.020  1.2592 -0.9779 -1.4941
 5258TIP3   OH237332   1.413   3.071   0.609  0.4042  0.2815  0.2939
 5258TIP3    H137333   1.339   3.132   0.603  0.8111  0.6367 -1.8986
 5258TIP3    H237334   1.466   3.106   0.681 -0.8270  0.8417  0.9659
 5259TIP3   OH237335   5.646   6.211   8.521  0.0746 -0.1587  0.0721
 5259TIP3    H137336   5.562   6.257   8.523 -1.3021 -2.3087 -2.3230
 5259TIP3    H237337   5.710   6.280   8.504 -1.4803  1.3041 -0.1665
 5260TIP3   OH237338   1.116   4.207   1.573 -0.6784  0.0433 -0.7572
 5260TIP3    H137339   1.097   4.244   1.659 -0.3279  0.5127 -0.8766
 5260TIP3    H237340   1.181   4.267   1.535  0.0610 -0.8219 -0.8753
 5261TIP3   OH237341   1.973   5.415   7.706  0.2246  0.3548 -0.0999
 5261TIP3    H137342   2.006   5.492   7.660 -0.5431  0.3639 -0.6613
 5261TIP3    H237343   1.878   5.422   7.699  0.1019  0.0953  1.0819
 5262TIP3   OH237344   4.311   1.227   7.563 -0.1235 -0.1172  1.1121
 5262TIP3    H137345   4.351   1.310   7.541  0.6406 -0.3868  1.4591
 5262TIP3    H237346   4.224   1.250   7.595  0.0201  0.5277  1.0465
 5263TIP3   OH237347   1.765   6.518   1.058 -0.4613  0.6333 -0.1652
 5263TIP3    H137348   1.840   6.554   1.104 -0.5746 -0.0651  0.5924
 5263TIP3    H237349   1.779   6.542   0.966  0.8882  0.1647 -0.1027
 5264TIP3   OH237350   1.011   6.078   1.120  0.1524 -0.1945 -0.1125
 5264TIP3    H137351   1.015   6.114   1.031  0.7126 -0.8882 -0.3752
 5264TIP3    H237352   1.006   6.155   1.177  0.6112  0.2782 -0.7040
 5265TIP3   OH237353   0.699   1.881   8.481 -0.4745 -0.2042  0.4647
 5265TIP3    H137354   0.691   1.856   8.573  1.7090  0.4664  0.8909
 5265TIP3    H237355   0.684   1.975   8.479  0.1519 -0.0993  0.2656
 5266TIP3   OH237356   0.452   2.671   7.903 -0.5334  0.0091 -0.4919
 5266TIP3    H137357   0.522   2.617   7.940 -0.8764  1.4818  2.6666
 5266TIP3    H237358   0.385   2.674   7.972 -1.9307  1.8225 -1.8286
 5267TIP3   OH237359   4.329   0.459   2.439  0.2784  0.1064  0.0792
 5267TIP3    H137360   4.321   0.445   2.345  0.8674 -1.5765  0.2482
 5267TIP3    H237361   4.363   0.377   2.473 -0.2408  0.5603  1.8176
 5268TIP3   OH237362   1.176   6.690   7.370 -0.4296  0.3844  0.3711
 5268TIP3    H137363   1.268   6.691   7.343 -0.6226 -1.0071 -0.3704
 5268TIP3    H237364   1.130   6.646   7.299 -1.5370  0.2331  1.1649
 5269TIP3   OH237365   4.695   4.638   0.941  0.0126 -0.3471  0.0364
 5269TIP3    H137366   4.790   4.635   0.953 -0.2545 -1.7667  2.4017
 5269TIP3    H237367   4.662   4.679   1.021 -1.3316  1.7649 -1.4883
 5270TIP3   OH237368   2.197   2.596   8.426 -0.3509  0.1407 -0.1381
 5270TIP3    H137369   2.285   2.578   8.459 -0.6202  0.1160  0.5816
 5270TIP3    H237370   2.208   2.598   8.331  0.3618 -0.2099 -0.0774
 5271TIP3   OH237371   5.725   5.634   0.470  0.3927  0.3125  0.1611
 5271TIP3    H137372   5.779   5.555   0.462  0.0744  0.2670 -2.2636
 5271TIP3    H237373   5.751   5.688   0.395 -2.2971  0.6403 -0.6344
 5272TIP3   OH237374   6.782   3.156   1.830  0.1578 -0.2823  0.7345
 5272TIP3    H137375   6.874   3.177   1.817  0.1757 -0.2348  0.9370
 5272TIP3    H237376   6.751   3.131   1.743  0.3168 -0.1269  0.6318
 5273TIP3   OH237377   4.953   4.475   0.983 -0.0077  0.0251 -0.5771
 5273TIP3    H137378   4.926   4.425   1.060 -0.7914 -2.8146 -2.5336
 5273TIP3    H237379   5.047   4.488   0.996 -0.0635 -0.6550  0.7382
 5274TIP3   OH237380   5.417   5.442   8.098  0.5142  0.6929 -0.2488
 5274TIP3    H137381   5.379   5.362   8.133  2.4793 -0.1802  0.0536
 5274TIP3    H237382   5.373   5.513   8.144 -0.2165 -0.2793  0.5779
 5275TIP3   OH237383   2.001   2.420   6.773 -0.2122 -0.0267  0.9253
 5275TIP3    H137384   1.952   2.498   6.748  0.3412 -0.2466 -1.0421
 5275TIP3    H237385   2.074   2.453   6.826 -0.7123  0.6321  1.2144
 5276TIP3   OH237386   2.618   1.800   1.963 -0.3681 -0.4675 -0.2875
 5276TIP3    H137387   2.565   1.724   1.939 -0.5140 -0.5870  0.3715
 5276TIP3    H237388   2.703   1.764   1.986 -0.7122 -0.5494  0.9186
 5277TIP3   OH237389   6.593   1.030   0.291  0.0646 -0.0291 -0.2922
 5277TIP3    H137390   6.600   0.940   0.325 -0.0845  0.2545  0.5239
 5277TIP3    H237391   6.617   1.023   0.199  2.9591 -0.4330  0.3968
 5278TIP3   OH237392   5.961   2.736   1.524 -0.1041  0.5660 -0.2007
 5278TIP3    H137393   6.021   2.810   1.529  0.7597 -0.1062 -0.3412
 5278TIP3    H237394   5.898   2.760   1.456  0.2437  1.1134 -0.3310
 5279TIP3   OH237395   0.845   3.225   1.296  0.4179  0.1348 -0.0743
 5279TIP3    H137396   0.834   3.149   1.353  2.8114  0.7325  1.3411
 5279TIP3    H237397   0.906   3.195   1.228 -0.1690  0.2495 -0.6608
 5280TIP3   OH237398   4.122   4.883   6.594 -0.0014 -0.1665 -0.4119
 5280TIP3    H137399   4.059   4.812   6.579  2.3397 -2.5960  0.5481
 5280TIP3    H237400   4.103   4.946   6.524 -1.5178 -2.2186 -1.9902
 5281TIP3   OH237401   2.760   1.841   7.247 -0.5789 -0.4539  0.4268
 5281TIP3    H137402   2.845   1.833   7.291 -0.7906  1.1191  1.1708
 5281TIP3    H237403   2.696   1.834   7.318 -0.9855  0.6367  0.1732
 5282TIP3   OH237404   4.637   2.654   8.575 -0.0586  0.3681 -0.0215
 5282TIP3    H137405   4.656   2.706   8.653 -2.0842 -1.1647  1.6089
 5282TIP3    H237406   4.571   2.705   8.527  0.2438  0.7267 -0.0553
 5283TIP3   OH237407   0.828   2.608   7.001 -0.1166  0.4053  0.1034
 5283TIP3    H137408   0.843   2.578   6.912 -1.0174 -2.9920  0.9598
 5283TIP3    H237409   0.732   2.610   7.011 -0.0412 -0.5502  1.3224
 5284TIP3   OH237410   4.546   1.924   7.714  0.4284  0.4777 -0.8332
 5284TIP3    H137411   4.608   1.991   7.741  1.0131 -0.0727 -0.7895
 5284TIP3    H237412   4.573   1.899   7.626 -0.3384  0.9342 -1.2108
 5285TIP3   OH237413   2.860   5.450   1.869  0.3449  0.2914  0.1772
 5285TIP3    H137414   2.840   5.416   1.957 -0.7298 -2.7556 -1.1051
 5285TIP3    H237415   2.792   5.515   1.852 -0.9689 -0.9072  0.6765
 5286TIP3   OH237416   6.037   1.004   6.496  0.1257  0.0660 -0.1283
 5286TIP3    H137417   5.956   0.973   6.536 -0.3378 -0.0332 -1.1072
 5286TIP3    H237418   6.064   1.079   6.550 -1.9961  1.7431 -1.2228
 5287TIP3   OH237419   5.607   0.024   0.768 -0.3868  0.2253 -0.0109
 5287TIP3    H137420   5.643   0.041   0.855  2.7522  0.9111 -1.3049
 5287TIP3    H237421   5.615  -0.070   0.757 -1.2404  0.0702  0.5719
 5288TIP3   OH237422   0.722   3.311   8.371  0.1453  0.2378 -0.2459
 5288TIP3    H137423   0.753   3.220   8.377 -0.7454 -0.0395  0.4421
 5288TIP3    H237424   0.663   3.311   8.296 -1.5526 -0.3195  1.0083
 5289TIP3   OH237425   4.168   6.401   0.449 -0.0685  0.1403  0.7183
 5289TIP3    H137426   4.187   6.489   0.417 -0.9928  0.1188  0.0799
 5289TIP3    H237427   4.072   6.397   0.452 -0.1035 -1.5122 -1.1931
 5290TIP3   OH237428   5.787   5.714   7.492 -0.2379 -0.3543 -0.2350
 5290TIP3    H137429   5.691   5.721   7.494 -0.2469  0.2998 -2.0207
 5290TIP3    H237430   5.807   5.687   7.403  1.4448  2.9774 -0.9849
 5291TIP3   OH237431   6.624   6.531   7.175  0.4261  0.8538  0.6796
 5291TIP3    H137432   6.561   6.590   7.134  0.7959  0.1957 -0.9081
 5291TIP3    H237433   6.676   6.497   7.102 -1.2232 -3.2002  1.1395
 5292TIP3   OH237434   4.948   1.139   8.059 -0.1761 -0.4867 -0.0087
 5292TIP3    H137435   4.891   1.166   8.132 -0.5963  2.4188 -1.2820
 5292TIP3    H237436   4.887   1.126   7.986  0.5946  1.9533 -1.1972
 5293TIP3   OH237437   5.873   0.959   1.942  0.3929  0.3604 -0.0988
 5293TIP3    H137438   5.900   1.051   1.939  0.6007  0.3166  0.3155
 5293TIP3    H237439   5.955   0.910   1.956  0.2060  0.1593  0.2908
 5294TIP3   OH237440   6.301   3.513   7.271  1.1223 -0.2937  0.2526
 5294TIP3    H137441   6.317   3.517   7.176 -1.5827 -2.4400 -0.4469
 5294TIP3    H237442   6.327   3.599   7.304  3.4864  0.0607 -2.1583
 5295TIP3   OH237443   1.294   1.863   7.726 -0.3383 -0.0059 -0.0228
 5295TIP3    H137444   1.351   1.805   7.778  0.2968 -1.2644 -2.0243
 5295TIP3    H237445   1.288   1.943   7.778 -0.1901 -1.3690  2.2417
 5296TIP3   OH237446   5.099   2.962   8.443  1.0865 -0.3810  0.4563
 5296TIP3    H137447   5.148   2.981   8.363  1.7504 -1.1508  0.6742
 5296TIP3    H237448   5.019   2.921   8.412  0.2815  1.3686  0.0618
 5297TIP3   OH237449   3.439   0.009   7.580  0.0330  0.4547  0.1876
 5297TIP3    H137450   3.343   0.012   7.570 -0.0614 -2.3255 -0.6407
 5297TIP3    H237451   3.452  -0.002   7.674 -0.5089  0.1933  0.2387
 5298TIP3   OH237452   2.586   3.197   2.453  0.2459 -0.5688 -0.3905
 5298TIP3    H137453   2.580   3.268   2.517  3.8047 -0.0755 -0.4054
 5298TIP3    H237454   2.572   3.117   2.505 -1.2073 -0.0415  0.1005
 5299TIP3   OH237455   6.720   1.355   7.964  0.2020 -0.0525  0.6755
 5299TIP3    H137456   6.805   1.397   7.953  0.0292  0.0543 -0.3765
 5299TIP3    H237457   6.728   1.271   7.919 -0.2042 -0.1040  0.6931
 5300TIP3   OH237458   2.146   5.423   7.947  0.1138 -0.4246 -0.1498
 5300TIP3    H137459   2.091   5.410   7.870  0.7072 -1.6997 -0.3773
 5300TIP3    H237460   2.094   5.389   8.020 -0.3339  0.5286 -0.0047
 5301TIP3   OH237461   6.684   2.211   1.819 -0.3373 -0.3226  0.0094
 5301TIP3    H137462   6.720   2.299   1.805 -1.5702  0.2276  0.1170
 5301TIP3    H237463   6.665   2.179   1.731  0.6153 -0.7205 -0.0639
 5302TIP3   OH237464   1.329   6.186   1.783  0.5740  0.0630  0.3010
 5302TIP3    H137465   1.234   6.172   1.788  0.3954  0.6424 -1.1555
 5302TIP3    H237466   1.362   6.106   1.743  0.7752 -0.3237  1.2066
 5303TIP3   OH237467   6.101   2.205   0.490 -0.1976  0.2786  0.0155
 5303TIP3    H137468   6.143   2.121   0.474 -0.5565 -0.1056  0.9945
 5303TIP3    H237469   6.100   2.214   0.585 -1.1065  0.8980 -0.0353
 5304TIP3   OH237470   0.706   0.986   1.276 -0.1306  0.2144 -0.5844
 5304TIP3    H137471   0.620   1.008   1.241  0.2683  1.7719 -0.6646
 5304TIP3    H237472   0.726   1.057   1.337  1.6267  0.5825 -1.5106
 5305TIP3   OH237473   0.805   1.830   1.380 -0.4738  0.0666  0.1536
 5305TIP3    H137474   0.760   1.902   1.424 -0.6523  0.0683 -0.0313
 5305TIP3    H237475   0.876   1.806   1.439 -2.2993 -1.7680  1.7508
 5306TIP3   OH237476   0.780   2.360   1.259 -0.5002 -0.0874 -0.0635
 5306TIP3    H137477   0.758   2.372   1.352  1.2927  0.1761  0.3748
 5306TIP3    H237478   0.842   2.287   1.259  0.2896  0.5589 -0.9116
 5307TIP3   OH237479   5.999   5.974   7.580  0.4542 -0.0904  0.1518
 5307TIP3    H137480   6.044   6.005   7.502  0.5834 -1.5088 -0.3575
 5307TIP3    H237481   5.940   5.905   7.549 -1.0015  0.7140  1.0178
 5308TIP3   OH237482   4.630   1.135   7.891  0.1545 -0.1563  0.3008
 5308TIP3    H137483   4.636   1.123   7.986 -1.7335 -0.9851  0.3579
 5308TIP3    H237484   4.645   1.229   7.878  1.7522 -0.2324  1.2434
 5309TIP3   OH237485   4.267   2.364   0.379 -0.0794  0.6997  0.1117
 5309TIP3    H137486   4.277   2.459   0.381 -0.2511  0.7124  0.4985
 5309TIP3    H237487   4.254   2.343   0.286  1.5044  0.8781 -0.1821
 5310TIP3   OH237488   0.498   3.888   2.080  0.7103 -0.5397  0.0150
 5310TIP3    H137489   0.518   3.933   1.998  1.7873  0.5235  0.8330
 5310TIP3    H237490   0.581   3.851   2.108  0.2812 -1.1708  0.4854
 5311TIP3   OH237491   0.232   1.368   1.664 -0.6587  0.2661  0.0696
 5311TIP3    H137492   0.192   1.442   1.617 -0.3016 -0.2366 -1.0731
 5311TIP3    H237493   0.315   1.402   1.696 -0.1813  0.2063 -1.0386
 5312TIP3   OH237494   4.349   0.178   8.228  0.6545 -0.1534  0.6422
 5312TIP3    H137495   4.363   0.183   8.323  1.4231  0.3406  0.5116
 5312TIP3    H237496   4.264   0.135   8.219  0.5817 -0.2295  1.5551
 5313TIP3   OH237497   6.712   1.942   8.441  0.3150 -0.6833  0.4081
 5313TIP3    H137498   6.650   1.882   8.398 -0.9730  0.7469  0.1718
 5313TIP3    H237499   6.669   1.964   8.523  1.2001 -0.7573  0.8995
 5314TIP3   OH237500   4.285   0.445   7.680 -0.1275  0.3230 -0.7368
 5314TIP3    H137501   4.232   0.404   7.612 -0.2196 -0.2132 -0.3472
 5314TIP3    H237502   4.260   0.400   7.760  1.2796 -0.3234 -0.6135
 5315TIP3   OH237503   1.397   6.065   8.283  0.0724  0.3271 -0.2547
 5315TIP3    H137504   1.358   6.151   8.271  0.7620  0.4419 -1.9751
 5315TIP3    H237505   1.333   6.005   8.244 -0.8927 -0.0868  1.8671
 5316TIP3   OH237506   5.588   4.612   2.086  0.3292  0.5305 -0.6168
 5316TIP3    H137507   5.562   4.586   1.997 -2.0222  0.1587  0.0993
 5316TIP3    H237508   5.517   4.669   2.115  1.3654  1.1222  0.8178
 5317TIP3   OH237509   0.471   6.448   7.484 -0.1288 -0.0311 -0.1477
 5317TIP3    H137510   0.507   6.370   7.527  0.8693  0.4672 -0.0429
 5317TIP3    H237511   0.513   6.449   7.398 -2.4854 -1.3002 -1.4153
 5318TIP3   OH237512   4.262   1.420   7.978 -0.7837  0.6571  0.4947
 5318TIP3    H137513   4.278   1.505   7.938 -1.2049 -0.0403 -1.2400
 5318TIP3    H237514   4.335   1.408   8.039 -0.6851  2.2083  0.7350
 5319TIP3   OH237515   6.858   6.505   0.853  0.0312  0.2820  0.2727
 5319TIP3    H137516   6.834   6.416   0.826 -0.8160  1.5251 -3.8642
 5319TIP3    H237517   6.942   6.521   0.809  1.1836  0.9899  2.5446
 5320TIP3   OH237518   3.579   2.184   0.044 -0.4246 -0.8977  0.5620
 5320TIP3    H137519   3.564   2.118   0.112 -1.5981 -1.0535  0.1913
 5320TIP3    H237520   3.491   2.218   0.025  0.0675  0.1470  0.1273
 5321TIP3   OH237521   3.226   4.982   1.049  0.0136 -0.1499 -0.4878
 5321TIP3    H137522   3.163   5.054   1.053 -2.6025 -2.3107  1.5768
 5321TIP3    H237523   3.288   4.999   1.119  0.0332  0.5752 -0.6789
 5322TIP3   OH237524   1.767   1.023   0.093 -0.6224  0.1861 -0.4152
 5322TIP3    H137525   1.678   1.010   0.125 -1.3513  1.5606 -1.7678
 5322TIP3    H237526   1.789   0.941   0.050 -1.0325 -0.3411  0.3512
 5323TIP3   OH237527   3.483   0.788   7.169 -0.0619 -0.1976  0.7222
 5323TIP3    H137528   3.456   0.696   7.165  0.0892 -0.2379  0.6029
 5323TIP3    H237529   3.416   0.831   7.222 -1.1780 -0.0063 -0.7779
 5324TIP3   OH237530   0.388   2.350   1.259  0.3639 -0.2427  0.3571
 5324TIP3    H137531   0.358   2.320   1.345  0.6729 -0.0663  0.5246
 5324TIP3    H237532   0.399   2.444   1.268 -1.0039  0.0043 -0.2882
 5325TIP3   OH237533   0.859   1.510   8.264  0.0314  0.2890  0.0425
 5325TIP3    H137534   0.787   1.478   8.318 -0.9358 -1.2135 -1.9871
 5325TIP3    H237535   0.935   1.460   8.294 -0.6782 -1.2021 -0.5153
 5326TIP3   OH237536   3.750   0.566   6.754 -0.1895  0.9743  0.5971
 5326TIP3    H137537   3.807   0.529   6.822 -0.1589  0.5552  0.3481
 5326TIP3    H237538   3.690   0.494   6.732  0.2077  0.8975 -0.2761
 5327TIP3   OH237539   2.738   2.623   6.205  0.4088  0.3550 -0.4853
 5327TIP3    H137540   2.791   2.575   6.141  0.0471  0.0055 -0.5206
 5327TIP3    H237541   2.752   2.577   6.288  1.3860  1.1832 -0.1591
 5328TIP3   OH237542   5.107   6.550   0.974  0.0404  0.2282  0.4727
 5328TIP3    H137543   5.085   6.641   0.993  2.0355  0.8695 -0.0111
 5328TIP3    H237544   5.037   6.520   0.916 -0.1354  1.7949 -0.1832
 5329TIP3   OH237545   0.876   5.688   7.972  0.2499  0.7075  0.1498
 5329TIP3    H137546   0.952   5.659   8.022  0.1322  1.8933  1.0834
 5329TIP3    H237547   0.808   5.623   7.991 -0.0320  1.5327  2.2209
 5330TIP3   OH237548   2.679   3.919   7.288 -0.3808  0.3776  0.0505
 5330TIP3    H137549   2.625   3.970   7.349 -0.0300 -0.6048  1.2036
 5330TIP3    H237550   2.763   3.910   7.333 -0.2937 -0.8294 -0.3404
 5331TIP3   OH237551   4.253   6.158   8.015  0.8123 -0.0726 -0.5454
 5331TIP3    H137552   4.287   6.131   8.100  0.4175  2.4072  0.4732
 5331TIP3    H237553   4.212   6.079   7.980 -0.2023 -0.8650  2.1596
 5332TIP3   OH237554   3.031   5.977   1.566  0.5414  0.1755 -0.1079
 5332TIP3    H137555   2.950   5.925   1.561  2.4731 -3.2603  1.0888
 5332TIP3    H237556   3.056   5.991   1.475 -1.3720  1.4057 -0.5113
 5333TIP3   OH237557   1.482   5.287   0.406 -0.7025  0.7165  0.6580
 5333TIP3    H137558   1.576   5.294   0.388 -0.8067 -0.6660 -0.5267
 5333TIP3    H237559   1.473   5.325   0.494  0.7426  2.0834  0.2792
 5334TIP3   OH237560   1.692   3.387   0.698  0.4955  0.1141 -0.6832
 5334TIP3    H137561   1.764   3.366   0.758  0.2755  0.3736 -0.3236
 5334TIP3    H237562   1.708   3.333   0.621  1.3529  0.5341 -0.8117
 5335TIP3   OH237563   2.023   6.088   2.352  0.3209 -0.0880 -0.0667
 5335TIP3    H137564   2.073   6.166   2.374  0.0142 -0.0682  0.5892
 5335TIP3    H237565   1.938   6.121   2.323  1.1579 -0.0446 -2.6374
 5336TIP3   OH237566   4.536   6.860   0.960  0.5800 -0.3603 -0.2638
 5336TIP3    H137567   4.474   6.863   1.032  0.3816  0.1538 -0.4453
 5336TIP3    H237568   4.522   6.943   0.914  3.1615  0.9689  1.1492
 5337TIP3   OH237569   4.523   0.361   1.914 -0.7993 -0.3092  0.2259
 5337TIP3    H137570   4.520   0.279   1.964 -1.6593 -1.7971 -2.0813
 5337TIP3    H237571   4.437   0.400   1.927 -1.3971 -1.2167 -0.8481
 5338TIP3   OH237572   4.709   3.166   7.409  0.2003  0.2904  0.0351
 5338TIP3    H137573   4.717   3.071   7.402 -0.2848  0.2908 -0.6475
 5338TIP3    H237574   4.782   3.192   7.465  0.7363 -0.4115 -0.3252
 5339TIP3   OH237575   5.077   1.334   8.443 -0.9256 -0.4306  0.5599
 5339TIP3    H137576   5.073   1.398   8.372  0.4904  0.3620  1.1452
 5339TIP3    H237577   5.171   1.320   8.457 -1.1715 -0.6824  2.1655
 5340TIP3   OH237578   3.072   0.072   6.289 -0.0183  0.3653  0.2268
 5340TIP3    H137579   3.059   0.141   6.353 -1.5895  0.6929 -0.4047
 5340TIP3    H237580   3.146   0.021   6.323  0.7396  1.9382  1.0390
 5341TIP3   OH237581   5.668   1.255   1.084 -0.0913  0.1404 -0.2693
 5341TIP3    H137582   5.753   1.248   1.041  0.1715  0.2269  0.2291
 5341TIP3    H237583   5.688   1.283   1.173 -0.6622  0.4597 -0.2317
 5342TIP3   OH237584   6.057   4.957   2.891  0.3166  0.0215  0.7431
 5342TIP3    H137585   5.992   4.971   2.960  0.3826 -0.8488  0.9996
 5342TIP3    H237586   6.023   5.006   2.816 -0.1462  0.3576  1.1622
 5343TIP3   OH237587   6.197   0.207   1.933 -0.0659  0.6788 -0.2750
 5343TIP3    H137588   6.160   0.228   2.019 -0.2011 -1.0107  0.1066
 5343TIP3    H237589   6.121   0.201   1.876 -0.0198  1.2330 -0.4047
 5344TIP3   OH237590   1.201   6.705   0.709  0.3090 -0.2354  0.3112
 5344TIP3    H137591   1.121   6.672   0.750 -0.2122 -0.2156 -0.6622
 5344TIP3    H237592   1.260   6.723   0.782  0.0983 -1.9624  0.9433
 5345TIP3   OH237593   6.421   6.046   6.916  0.0068  0.0707  0.2727
 5345TIP3    H137594   6.494   6.105   6.897  0.2268 -0.1959  0.2865
 5345TIP3    H237595   6.369   6.046   6.836 -0.0715  0.3922  0.3206
 5346TIP3   OH237596   4.217   1.486   1.041 -0.5112 -0.1205 -0.2190
 5346TIP3    H137597   4.184   1.555   1.097 -1.1307  0.5233 -1.3494
 5346TIP3    H237598   4.249   1.419   1.102 -0.2835  0.9609  0.8869
 5347TIP3   OH237599   4.667   3.366   8.591 -0.2722 -0.1576  0.4346
 5347TIP3    H137600   4.653   3.294   8.529 -2.4903 -0.7755  1.5451
 5347TIP3    H237601   4.651   3.327   8.677  1.9233  0.8786  1.3918
 5348TIP3   OH237602   6.864   3.240   6.877 -0.3032 -0.3658  0.2477
 5348TIP3    H137603   6.781   3.192   6.884 -0.7885  0.6001  1.5441
 5348TIP3    H237604   6.870   3.264   6.785 -0.9231 -1.3927 -0.0785
 5349TIP3   OH237605   1.630   6.451   7.845  0.3294 -0.2909  0.2587
 5349TIP3    H137606   1.597   6.373   7.890 -0.9230  0.7559  1.2403
 5349TIP3    H237607   1.702   6.419   7.791  0.7721 -1.9011  1.7054
 5350TIP3   OH237608   3.169   0.394   7.955 -0.0887 -0.7975  0.0142
 5350TIP3    H137609   3.160   0.458   7.885  1.3466 -0.9329 -0.3261
 5350TIP3    H237610   3.119   0.318   7.925 -2.2421  0.2809  0.6526
 5351TIP3   OH237611   6.409   0.880   6.659  0.3205  0.2568  0.2945
 5351TIP3    H137612   6.345   0.837   6.602  0.7740  0.8500 -0.6874
 5351TIP3    H237613   6.356   0.931   6.721 -0.1729  0.8427 -0.5865
 5352TIP3   OH237614   6.145   5.179   1.188  0.0569 -0.0253  0.3706
 5352TIP3    H137615   6.229   5.208   1.223  0.5467  0.1072 -0.8562
 5352TIP3    H237616   6.114   5.254   1.136 -1.4442  0.4119  1.7980
 5353TIP3   OH237617   6.801   6.375   2.125 -0.2522  0.3227 -0.1416
 5353TIP3    H137618   6.744   6.320   2.072 -0.3903  0.4709 -0.1463
 5353TIP3    H237619   6.792   6.340   2.214 -0.2181  0.2379 -0.1712
 5354TIP3   OH237620   4.972   0.717   8.371 -0.2848 -0.3700  0.2249
 5354TIP3    H137621   4.949   0.675   8.454 -1.4855 -1.6377 -0.7188
 5354TIP3    H237622   4.892   0.762   8.344  0.7315  1.9851  0.8129
 5355TIP3   OH237623   6.858   0.895   0.585 -0.4682 -0.0700 -0.3111
 5355TIP3    H137624   6.939   0.871   0.631  0.5619  2.1525 -0.8030
 5355TIP3    H237625   6.824   0.969   0.634  0.6061  2.3092 -2.8800
 5356TIP3   OH237626   4.186   0.473   8.171  0.0426 -0.0138  0.5064
 5356TIP3    H137627   4.232   0.444   8.250  0.6593 -0.7553 -0.1197
 5356TIP3    H237628   4.195   0.568   8.172  2.2373 -0.1731  0.0179
 5357TIP3   OH237629   2.275   0.794   6.507  0.5400  0.0441  0.0955
 5357TIP3    H137630   2.192   0.746   6.505  1.7444 -2.4179  2.2779
 5357TIP3    H237631   2.257   0.870   6.563 -0.8897  1.1741 -1.7765
 5358TIP3   OH237632   3.878   1.399   0.518  0.1972  0.3332 -0.3245
 5358TIP3    H137633   3.935   1.382   0.593 -0.5395 -0.3694  0.0930
 5358TIP3    H237634   3.827   1.319   0.508  0.6711  0.1919 -1.9387
 5359TIP3   OH237635   1.991   1.361   8.350  0.2255  0.3739 -0.2027
 5359TIP3    H137636   1.917   1.418   8.368 -0.7383 -0.5938 -0.9672
 5359TIP3    H237637   2.007   1.371   8.256 -1.1259 -1.9009 -0.7566
 5360TIP3   OH237638   0.351   6.009   1.136 -0.3774 -0.3933  0.3387
 5360TIP3    H137639   0.394   5.973   1.214 -0.8437  1.0636  1.3006
 5360TIP3    H237640   0.413   5.993   1.065  0.1506 -1.5514  1.0364
 5361TIP3   OH237641   1.997   3.608   8.251  0.1497 -0.0955  0.4778
 5361TIP3    H137642   1.942   3.532   8.231 -0.1816  0.0923  0.6673
 5361TIP3    H237643   2.070   3.572   8.302  0.8312 -0.5263 -0.7623
 5362TIP3   OH237644   5.213   4.792   7.221  0.3932  0.6517  0.0144
 5362TIP3    H137645   5.199   4.779   7.315  1.0105  1.4196  0.2273
 5362TIP3    H237646   5.143   4.852   7.195  0.1410  0.3325 -0.0481
 5363TIP3   OH237647   4.726   5.394   1.287 -0.2097 -0.6232  0.3532
 5363TIP3    H137648   4.768   5.311   1.308  0.9722 -0.2166 -0.3353
 5363TIP3    H237649   4.637   5.385   1.322  0.5087 -1.4050  2.1003
 5364TIP3   OH237650   4.758   4.808   0.480 -0.0020  1.3158  0.3048
 5364TIP3    H137651   4.848   4.833   0.458 -0.3981  1.1745 -1.6487
 5364TIP3    H237652   4.704   4.868   0.429 -1.0005 -0.2198 -0.5102
 5365TIP3   OH237653   1.872   6.447   6.402  0.3235  0.0475 -1.1993
 5365TIP3    H137654   1.888   6.355   6.380 -1.3698 -0.5477 -0.1955
 5365TIP3    H237655   1.957   6.489   6.393  1.3935 -1.8523 -0.6326
 5366TIP3   OH237656   1.822   3.242   7.197 -0.0416 -0.1225 -0.4284
 5366TIP3    H137657   1.916   3.260   7.186 -0.1396  0.2412 -0.7073
 5366TIP3    H237658   1.779   3.324   7.170 -0.4619 -0.4631 -0.8114
 5367TIP3   OH237659   6.235   5.029   1.535 -0.0980 -0.5699 -0.0740
 5367TIP3    H137660   6.172   5.099   1.550 -0.3081 -0.6440 -0.5779
 5367TIP3    H237661   6.186   4.963   1.486  0.3247 -0.7008 -0.3292
 5368TIP3   OH237662   3.335   5.248   2.900 -0.3264 -0.6638 -0.0312
 5368TIP3    H137663   3.342   5.236   2.806  0.3359 -0.8243  0.0318
 5368TIP3    H237664   3.245   5.278   2.914 -0.0892  0.5257 -0.8338
 5369TIP3   OH237665   0.724   4.730   2.039  0.4187 -0.2852  0.1250
 5369TIP3    H137666   0.755   4.817   2.015 -2.0552  0.6513 -0.0500
 5369TIP3    H237667   0.724   4.729   2.135 -1.2826  0.6816  0.1816
 5370TIP3   OH237668   3.276   5.153   7.131  0.0186 -0.0330  0.2680
 5370TIP3    H137669   3.329   5.098   7.189  0.1038  1.9580  2.2403
 5370TIP3    H237670   3.233   5.215   7.190 -0.5851  1.5946 -1.7490
 5371TIP3   OH237671   3.946   3.832   2.313  0.1923 -0.1518 -0.4917
 5371TIP3    H137672   3.876   3.768   2.322  0.2130 -0.0137  0.8528
 5371TIP3    H237673   3.981   3.843   2.402  0.5583  1.2873 -0.7763
 5372TIP3   OH237674   3.475   3.668   7.659  0.2464 -0.1137  0.5618
 5372TIP3    H137675   3.402   3.620   7.699 -0.1528 -0.0792 -0.1109
 5372TIP3    H237676   3.439   3.755   7.640  0.8466  0.3325  1.4002
 5373TIP3   OH237677   1.407   6.217   1.247 -0.3172 -0.3776  0.0496
 5373TIP3    H137678   1.442   6.241   1.333  1.2353  1.0328 -0.9316
 5373TIP3    H237679   1.332   6.161   1.267 -1.3107  1.6280  2.3687
 5374TIP3   OH237680   2.795   6.589   0.438  0.9060  0.4613  0.0949
 5374TIP3    H137681   2.846   6.550   0.367  1.8207 -0.4008  1.1912
 5374TIP3    H237682   2.860   6.616   0.503  0.0945  1.3343  0.5787
 5375TIP3   OH237683   3.456   3.048   0.227 -0.5697  0.1652  0.1479
 5375TIP3    H137684   3.455   3.120   0.164  0.6494  0.9934  1.0108
 5375TIP3    H237685   3.408   3.082   0.302 -1.6778 -0.6699 -0.1570
 5376TIP3   OH237686   2.747   0.648   0.684  0.5331 -0.3229 -0.7129
 5376TIP3    H137687   2.711   0.712   0.623  0.8100  0.3324 -0.1977
 5376TIP3    H237688   2.839   0.641   0.660  1.2163  1.6511  1.0267
 5377TIP3   OH237689   2.235   4.563   7.649 -0.1843  0.1845 -0.3866
 5377TIP3    H137690   2.308   4.598   7.598  0.8904 -0.6979  0.5048
 5377TIP3    H237691   2.198   4.493   7.595  0.4541 -0.2234 -0.3013
 5378TIP3   OH237692   0.409   4.139   0.774  0.4505 -0.6093  0.3292
 5378TIP3    H137693   0.458   4.205   0.725 -0.0715  0.3929  1.1380
 5378TIP3    H237694   0.331   4.124   0.721  0.8850 -1.0989 -0.1956
 5379TIP3   OH237695   1.012   5.537   7.657  0.0800 -0.4947  0.6199
 5379TIP3    H137696   1.060   5.536   7.740  3.0355 -2.2086 -0.9007
 5379TIP3    H237697   1.072   5.580   7.595 -1.5098 -0.3360 -0.8885
 5380TIP3   OH237698   5.597   1.696   7.955 -0.5522 -0.0029 -0.0815
 5380TIP3    H137699   5.592   1.791   7.949 -0.7760  0.0434  0.7459
 5380TIP3    H237700   5.626   1.679   8.044 -0.5469 -0.7145 -0.2113
 5381TIP3   OH237701   6.808   0.305   8.123 -0.2074  0.6007  0.0998
 5381TIP3    H137702   6.899   0.312   8.152  0.3034 -1.5594 -0.7297
 5381TIP3    H237703   6.763   0.260   8.195  0.3913 -2.0760 -1.0810
 5382TIP3   OH237704   5.671   2.764   2.058  0.2905 -0.2731 -0.1468
 5382TIP3    H137705   5.609   2.816   2.109  0.2576  0.9055 -1.3509
 5382TIP3    H237706   5.754   2.773   2.104 -0.1815 -1.0354  0.9070
 5383TIP3   OH237707   5.324   2.746   1.641 -0.7710  0.5441 -0.0005
 5383TIP3    H137708   5.274   2.688   1.699 -1.9580  0.6853 -0.8240
 5383TIP3    H237709   5.359   2.814   1.699 -2.6203  1.1570  0.4836
 5384TIP3   OH237710   2.277   4.736   1.691  0.4812 -0.2519 -0.0609
 5384TIP3    H137711   2.247   4.727   1.601 -0.6632  0.7752  0.1916
 5384TIP3    H237712   2.254   4.826   1.715 -0.7855 -0.9986  1.7898
 5385TIP3   OH237713   4.593   3.344   7.202 -0.2215 -0.5764 -0.2166
 5385TIP3    H137714   4.640   3.288   7.265  0.1800 -0.1588 -0.1321
 5385TIP3    H237715   4.598   3.297   7.119  1.4154 -0.0002 -0.4883
 5386TIP3   OH237716   4.400   5.425   1.127  0.2970 -0.9891  0.0430
 5386TIP3    H137717   4.329   5.379   1.171 -0.7835 -0.1007 -0.7180
 5386TIP3    H237718   4.368   5.439   1.037  0.3197  1.6780  0.3645
 5387TIP3   OH237719   6.645   6.663   0.909  0.5394  0.1415  0.6637
 5387TIP3    H137720   6.696   6.743   0.898  1.4238 -0.5023 -0.0720
 5387TIP3    H237721   6.704   6.593   0.881  0.2000 -0.9009  2.3685
 5388TIP3   OH237722   6.554   0.465   0.916 -0.0669 -0.1364  0.3703
 5388TIP3    H137723   6.485   0.475   0.982  0.9406 -1.2545  1.6540
 5388TIP3    H237724   6.635   0.461   0.967  1.0871  2.0795 -1.1694
 5389TIP3   OH237725   3.517   0.230   1.423 -0.8837 -0.3320 -0.4355
 5389TIP3    H137726   3.559   0.145   1.441  0.8656  0.3914 -0.9286
 5389TIP3    H237727   3.433   0.224   1.468  0.0760 -1.5470  1.3552
 5390TIP3   OH237728   3.697   5.017   1.061  0.4744  0.0036 -0.4957
 5390TIP3    H137729   3.656   5.013   0.975  1.2132  0.1870 -0.8597
 5390TIP3    H237730   3.661   4.941   1.108 -1.8572  1.2821 -0.0685
 5391TIP3   OH237731   0.396   2.528   0.720 -0.6878  0.0885  0.2842
 5391TIP3    H137732   0.374   2.501   0.809 -1.3232  1.5272  0.5932
 5391TIP3    H237733   0.488   2.504   0.709 -0.9527 -1.2309  0.8763
 5392TIP3   OH237734   6.137   5.912   2.292  0.1954  0.0725 -0.6248
 5392TIP3    H137735   6.129   5.831   2.241 -1.1851 -0.5290  0.4892
 5392TIP3    H237736   6.224   5.908   2.331  0.5128 -0.3914 -1.3668
 5393TIP3   OH237737   2.079   2.952   0.759  0.3205  0.5612  0.3596
 5393TIP3    H137738   2.077   2.868   0.804  2.0063 -0.2258 -0.9179
 5393TIP3    H237739   1.990   2.987   0.769  0.0805 -0.4880  2.4800
 5394TIP3   OH237740   1.727   1.270   7.749  0.0746  0.3296 -1.0085
 5394TIP3    H137741   1.820   1.256   7.733  0.1996  1.0461 -0.9123
 5394TIP3    H237742   1.703   1.201   7.810  0.5543  0.1816 -0.9844
 5395TIP3   OH237743   3.871   0.069   7.394 -0.1512  0.4312  0.2204
 5395TIP3    H137744   3.924   0.129   7.342  1.0184 -0.3084  0.5234
 5395TIP3    H237745   3.781   0.092   7.372  0.2943  0.3113 -1.9643
 5396TIP3   OH237746   2.096   2.421   1.952  1.3113 -0.2028  0.1395
 5396TIP3    H137747   2.059   2.494   2.002 -1.6896 -0.9163 -0.8280
 5396TIP3    H237748   2.191   2.430   1.963  0.9552  2.3220  2.1171
 5397TIP3   OH237749   1.833   2.072   0.262 -0.2153  0.1346  0.9647
 5397TIP3    H137750   1.767   2.006   0.285 -0.1136 -0.4254 -0.2755
 5397TIP3    H237751   1.905   2.057   0.324  1.2662 -3.1905 -1.2885
 5398TIP3   OH237752   1.863   1.235   0.947  0.5889 -0.2592  0.4838
 5398TIP3    H137753   1.788   1.216   1.003 -1.1004  0.6632 -1.3239
 5398TIP3    H237754   1.837   1.312   0.897  1.5448 -1.5233 -2.2250
 5399TIP3   OH237755   3.348   3.849   0.779  0.3153  1.1376  0.1025
 5399TIP3    H137756   3.307   3.785   0.721  1.9954 -0.0230  0.1284
 5399TIP3    H237757   3.402   3.797   0.838  0.2375  2.4584  1.3821
 5400TIP3   OH237758   5.044   2.561   1.367  0.2125  0.2556  0.0931
 5400TIP3    H137759   5.057   2.502   1.441  0.7562  0.6002  0.2826
 5400TIP3    H237760   5.060   2.648   1.403  1.4243  0.3621 -0.6270
 5401TIP3   OH237761   3.787   0.808   0.016 -0.4534  0.2988 -0.1040
 5401TIP3    H137762   3.695   0.834   0.029 -0.6548 -1.0279  1.4816
 5401TIP3    H237763   3.788   0.771  -0.072 -0.9916  2.0098 -0.8830
 5402TIP3   OH237764   4.331   6.590   7.639  0.8784  0.2529  0.0113
 5402TIP3    H137765   4.352   6.631   7.555  0.6737 -0.5446 -0.4377
 5402TIP3    H237766   4.256   6.534   7.621  0.6052  0.3421  0.8114
 5403TIP3   OH237767   2.457   0.555   8.697 -0.4646 -0.0001  0.2962
 5403TIP3    H137768   2.445   0.584   8.787 -1.7273 -0.4439  0.2785
 5403TIP3    H237769   2.467   0.460   8.703 -0.3389 -0.0104 -0.0220
 5404TIP3   OH237770   0.191   5.511   7.797  0.1168  0.1278  0.0712
 5404TIP3    H137771   0.117   5.455   7.776  0.1487  0.1954 -0.2247
 5404TIP3    H237772   0.260   5.451   7.824 -0.2644  0.1010  1.0413
 5405TIP3   OH237773   4.488   3.622   0.365 -0.3023 -0.6217 -0.1160
 5405TIP3    H137774   4.481   3.613   0.460 -0.6397  0.1630 -0.0548
 5405TIP3    H237775   4.519   3.712   0.352  0.4512 -0.9622 -0.7271
 5406TIP3   OH237776   0.071   4.912   2.141  0.2280 -0.6325 -0.0614
 5406TIP3    H137777   0.119   4.888   2.061  0.4448 -1.2379  0.2488
 5406TIP3    H237778   0.104   4.999   2.164 -0.4017 -0.1013 -1.0682
 5407TIP3   OH237779   0.042   6.736   8.110  0.8468  0.3901  0.3539
 5407TIP3    H137780   0.030   6.643   8.128 -0.7961 -0.2580 -3.1567
 5407TIP3    H237781  -0.044   6.775   8.126  1.7354  1.5826  2.6583
 5408TIP3   OH237782   2.588   1.571   0.024  0.0221 -0.0649 -0.1291
 5408TIP3    H137783   2.505   1.616   0.006 -0.2984  0.0344  1.4273
 5408TIP3    H237784   2.651   1.615  -0.033 -0.3909  2.0571  0.9301
 5409TIP3   OH237785   6.404   1.580   0.042  0.1109  0.3990  0.3837
 5409TIP3    H137786   6.348   1.645   0.000  0.4874  2.6071  3.0217
 5409TIP3    H237787   6.489   1.624   0.051  0.3185 -0.2886  2.4343
 5410TIP3   OH237788   1.116   2.093   0.570  0.2489 -0.0996 -0.0079
 5410TIP3    H137789   1.051   2.028   0.543  1.3430 -0.4023 -2.0932
 5410TIP3    H237790   1.066   2.174   0.582 -0.8864 -0.9118  1.0894
 5411TIP3   OH237791   1.254   3.042   6.824  0.1897 -0.3789  0.2760
 5411TIP3    H137792   1.234   3.041   6.918 -0.7015  2.7448  0.2613
 5411TIP3    H237793   1.333   3.095   6.817  0.5428 -1.0163 -0.7097
 5412TIP3   OH237794   1.979   0.703   7.942  0.1011  0.1370  0.2853
 5412TIP3    H137795   2.031   0.625   7.963  0.7585  0.2715 -0.7746
 5412TIP3    H237796   2.040   0.776   7.955 -0.0879  0.3614 -0.0957
 5413TIP3   OH237797   4.738   1.584   0.870  0.3889  0.6852  0.3012
 5413TIP3    H137798   4.755   1.503   0.822 -2.3629  0.3082 -0.2129
 5413TIP3    H237799   4.806   1.587   0.937  1.8540 -0.8992 -1.0154
 5414TIP3   OH237800   0.727   4.869   0.643  0.1413 -0.4457 -0.2748
 5414TIP3    H137801   0.798   4.812   0.611  0.5090 -0.6334  0.8245
 5414TIP3    H237802   0.732   4.861   0.738 -0.0643  1.1221 -0.1180
 5415TIP3   OH237803   4.948   4.302   7.834  0.6081 -0.6958 -0.3896
 5415TIP3    H137804   4.952   4.289   7.929  1.8666 -0.0697 -0.3287
 5415TIP3    H237805   5.023   4.253   7.800  0.0598 -1.0609 -1.0832
 5416TIP3   OH237806   3.897   5.765   2.421  0.0848 -0.4482 -0.0966
 5416TIP3    H137807   3.933   5.847   2.388  0.5579 -0.5090  0.2572
 5416TIP3    H237808   3.848   5.789   2.500  1.7558 -0.7229  1.0707
 5417TIP3   OH237809   3.784   5.618   8.022  0.1172 -0.0058 -0.7638
 5417TIP3    H137810   3.793   5.659   7.936 -0.3534  1.4267 -0.1636
 5417TIP3    H237811   3.804   5.689   8.084  0.8232 -1.1088  0.3060
 5418TIP3   OH237812   0.188   2.225   1.878 -0.2177 -0.8712 -0.4405
 5418TIP3    H137813   0.239   2.302   1.851 -0.8953 -0.6797 -1.2268
 5418TIP3    H237814   0.213   2.157   1.815 -0.2064 -1.0608 -0.2309
 5419TIP3   OH237815   3.607   1.543   7.947  0.2750 -0.0225  0.3596
 5419TIP3    H137816   3.703   1.545   7.944  0.2703 -0.7204 -1.0992
 5419TIP3    H237817   3.584   1.454   7.922 -0.7796  0.5190 -0.6959
 5420TIP3   OH237818   5.257   3.608   8.304  0.2852 -0.1927 -0.9955
 5420TIP3    H137819   5.196   3.682   8.312 -1.6331 -1.5656 -1.9575
 5420TIP3    H237820   5.217   3.539   8.356  2.9793 -0.1219  1.4179
 5421TIP3   OH237821   1.963   3.464   1.881 -0.1861 -0.1884 -0.2007
 5421TIP3    H137822   1.966   3.426   1.793  1.1503 -2.2444  0.6392
 5421TIP3    H237823   2.028   3.534   1.880  0.0702 -0.4319 -0.7534
 5422TIP3   OH237824   0.530   3.351   8.166 -0.2452  0.9818 -0.0993
 5422TIP3    H137825   0.526   3.445   8.184 -0.5917  1.4701 -2.3140
 5422TIP3    H237826   0.609   3.341   8.112  1.1676 -0.4515  2.0600
 5423TIP3   OH237827   4.052   3.331   0.635  0.6700 -0.0560 -0.6124
 5423TIP3    H137828   4.035   3.348   0.542 -0.5222 -0.3448 -0.4580
 5423TIP3    H237829   3.982   3.271   0.662  0.1550  1.1212  0.8238
 5424TIP3   OH237830   2.216   5.422   1.025  0.2309 -0.1734  0.5706
 5424TIP3    H137831   2.196   5.415   1.119  1.6888 -1.8055  0.8163
 5424TIP3    H237832   2.263   5.505   1.017  0.8539 -0.4251  1.4521
 5425TIP3   OH237833   1.538   1.768   1.289 -0.3356  0.2729  0.3073
 5425TIP3    H137834   1.584   1.690   1.319 -1.5612 -0.2702  0.8423
 5425TIP3    H237835   1.494   1.740   1.209 -0.1276  0.6555  0.0545
 5426TIP3   OH237836   3.217   0.813   2.319  0.2834 -0.0452  0.3296
 5426TIP3    H137837   3.277   0.776   2.255  0.5995 -1.1525  1.2225
 5426TIP3    H237838   3.273   0.867   2.376  0.1037  0.4544  0.0390
 5427TIP3   OH237839   0.328   0.141   2.308  0.2168 -0.1030  0.5105
 5427TIP3    H137840   0.327   0.077   2.379  3.3285 -0.5930  0.2879
 5427TIP3    H237841   0.378   0.215   2.342 -0.7187  0.9223 -0.2563
 5428TIP3   OH237842   2.199   6.451   7.011  0.3285 -0.7372 -0.2881
 5428TIP3    H137843   2.228   6.524   6.956  1.8290 -1.7438 -0.9104
 5428TIP3    H237844   2.263   6.382   6.994 -0.5260 -1.8875  0.9767
 5429TIP3   OH237845   5.277   4.619   2.144 -0.1612 -0.5277 -0.5617
 5429TIP3    H137846   5.184   4.639   2.150  0.1043  0.8402 -0.6098
 5429TIP3    H237847   5.294   4.613   2.050  0.0825  0.8221 -0.6293
 5430TIP3   OH237848   5.053   4.568   7.738 -0.0934 -0.4146 -0.0540
 5430TIP3    H137849   5.096   4.507   7.678  0.3432  1.9714 -2.3380
 5430TIP3    H237850   4.980   4.518   7.775  0.8164 -2.5857 -1.0387
 5431TIP3   OH237851   2.045   6.517   8.332  0.1890 -0.3398  0.2743
 5431TIP3    H137852   1.971   6.512   8.393  0.2523 -1.7863  0.2504
 5431TIP3    H237853   2.048   6.432   8.289  0.3658  0.5266 -1.5369
 5432TIP3   OH237854   5.925   2.422   0.191 -0.1277  0.5720 -0.1116
 5432TIP3    H137855   5.930   2.516   0.209 -0.0673  0.3286  1.2546
 5432TIP3    H237856   5.979   2.409   0.113 -0.7545  1.7685 -0.7720
 5433TIP3   OH237857   0.842   5.887   1.783  0.2599 -0.1580  0.6142
 5433TIP3    H137858   0.852   5.869   1.689  0.0197 -1.9704  0.8929
 5433TIP3    H237859   0.901   5.961   1.800 -0.2144  0.6728 -1.0798
 5434TIP3   OH237860   5.490   4.887   2.183  0.7545  0.3477 -0.0485
 5434TIP3    H137861   5.525   4.884   2.272  0.3132  0.4721  0.1347
 5434TIP3    H237862   5.432   4.963   2.182 -0.6457 -0.6789  0.0973
 5435TIP3   OH237863   6.580   6.851   8.073 -0.0409 -0.4800  0.2281
 5435TIP3    H137864   6.564   6.872   8.165 -1.1917  0.3742 -0.1365
 5435TIP3    H237865   6.559   6.758   8.065  1.3641 -0.9017  1.0793
 5436TIP3   OH237866   5.942   5.319   7.687  0.0032  0.0780  0.3838
 5436TIP3    H137867   5.976   5.255   7.624  1.4137  0.4528  0.7170
 5436TIP3    H237868   5.881   5.270   7.742  1.4946 -1.1421  1.0067
 5437TIP3   OH237869   6.003   1.559   8.479  0.1781 -0.0857 -0.3772
 5437TIP3    H137870   6.010   1.481   8.425 -2.5202 -1.1240  0.6513
 5437TIP3    H237871   6.032   1.532   8.566 -2.0869 -0.4287  0.3350
 5438TIP3   OH237872   6.130   3.005   1.364  0.2944 -0.1303  0.5927
 5438TIP3    H137873   6.139   2.990   1.458  2.1762 -3.5102  0.0174
 5438TIP3    H237874   6.217   3.033   1.336 -0.4032  1.4323 -0.1349
 5439TIP3   OH237875   4.629   5.775   7.517  0.0062  0.2743  0.2115
 5439TIP3    H137876   4.675   5.802   7.437  2.1962 -2.3482  0.4490
 5439TIP3    H237877   4.565   5.711   7.487  1.5451 -1.4999  0.6027
 5440TIP3   OH237878   2.520   0.898   2.210  0.4863  0.2786  0.3999
 5440TIP3    H137879   2.576   0.962   2.254  1.2387 -0.5509  0.6908
 5440TIP3    H237880   2.537   0.912   2.117 -0.3878  1.3989  0.3928
 5441TIP3   OH237881   5.203   1.923   2.379 -0.1576 -0.3475  0.1273
 5441TIP3    H137882   5.254   1.991   2.423  1.4076 -1.4260  0.0840
 5441TIP3    H237883   5.161   1.875   2.451 -0.1297 -0.1990  0.2434
 5442TIP3   OH237884   3.024   1.017   2.310 -0.3239  0.7490  0.1702
 5442TIP3    H137885   3.091   0.949   2.308 -1.6605 -0.6382  0.7054
 5442TIP3    H237886   2.984   1.015   2.223  0.1777  1.4448 -0.0870
 5443TIP3   OH237887   0.312   6.086   6.639 -0.4071 -0.0240  0.3930
 5443TIP3    H137888   0.360   6.164   6.666 -0.0257 -0.2364  0.3411
 5443TIP3    H237889   0.299   6.098   6.545  0.5219 -0.4812  0.2000
 5444TIP3   OH237890   5.794   5.546   6.960 -0.3283 -0.1858  0.2259
 5444TIP3    H137891   5.789   5.452   6.941  0.7965 -0.3773  0.8108
 5444TIP3    H237892   5.886   5.562   6.981 -0.7292  0.8069  1.3569
 5445TIP3   OH237893   2.162   6.006   8.257 -0.4108 -0.3757 -0.3147
 5445TIP3    H137894   2.132   5.915   8.250 -1.0642 -0.3095  1.2404
 5445TIP3    H237895   2.127   6.036   8.341  0.2534  1.1503 -0.5580
 5446TIP3   OH237896   2.965   3.182   1.587 -0.4992  0.4502 -0.2974
 5446TIP3    H137897   3.003   3.143   1.665  2.5493 -0.1962 -1.9538
 5446TIP3    H237898   2.890   3.233   1.619 -0.6055 -1.3882  2.7162
 5447TIP3   OH237899   2.043   1.163   0.117 -0.3849 -0.5587 -0.6625
 5447TIP3    H137900   2.132   1.150   0.150 -0.3332  4.0102  1.7840
 5447TIP3    H237901   2.054   1.180   0.024  0.8588 -2.8046 -0.9950
 5448TIP3   OH237902   0.155   6.789   7.867  0.7140  0.2070  0.9936
 5448TIP3    H137903   0.246   6.777   7.896  1.2360 -1.4688 -1.0955
 5448TIP3    H237904   0.104   6.787   7.948  2.3004 -1.5983  2.0435
 5449TIP3   OH237905   0.624   5.279   0.177  0.4379  0.1524 -0.3392
 5449TIP3    H137906   0.558   5.335   0.217  0.7144 -1.1397  2.0888
 5449TIP3    H237907   0.697   5.338   0.158 -0.6182  1.2292 -1.2302
 5450TIP3   OH237908   3.694   3.136   7.921 -0.0430  0.1455  0.0735
 5450TIP3    H137909   3.729   3.136   8.010  0.1244  0.7022  0.0132
 5450TIP3    H237910   3.650   3.221   7.913  1.3080  0.7840 -0.8894
 5451TIP3   OH237911   5.679   4.756   1.469  0.0212 -0.1476  0.3018
 5451TIP3    H137912   5.622   4.823   1.433  1.7899  2.0282  1.3390
 5451TIP3    H237913   5.675   4.770   1.564  1.3594 -0.7290  0.4592
 5452TIP3   OH237914   0.596   5.122   2.108  0.3879  0.2305 -0.1713
 5452TIP3    H137915   0.651   5.110   2.031  0.0569  1.4197 -0.6253
 5452TIP3    H237916   0.534   5.049   2.105 -1.6442  1.8418 -2.8614
 5453TIP3   OH237917   2.004   5.395   0.857 -0.1029  0.3757 -0.2720
 5453TIP3    H137918   1.928   5.363   0.905 -0.0884  0.1379 -0.4090
 5453TIP3    H237919   2.072   5.403   0.923  0.4422 -1.6327 -0.5443
 5454TIP3   OH237920   6.564   3.851   7.952 -0.3311 -0.1854  0.0052
 5454TIP3    H137921   6.616   3.904   8.011 -1.0481 -1.4587  1.8590
 5454TIP3    H237922   6.593   3.761   7.968 -0.0473 -0.5380 -2.1213
 5455TIP3   OH237923   3.336   3.118   0.461  0.4409  0.2940 -0.6546
 5455TIP3    H137924   3.266   3.122   0.395  0.2230  2.5391 -0.3848
 5455TIP3    H237925   3.291   3.125   0.545  0.7432 -2.2693 -0.2145
 5456TIP3   OH237926   1.709   4.173   1.677 -0.3036  0.4441 -0.1056
 5456TIP3    H137927   1.731   4.199   1.766  2.0274  1.1861 -0.8375
 5456TIP3    H237928   1.654   4.095   1.688  1.0627 -0.3091  1.9664
 5457TIP3   OH237929   3.352   6.210   7.924 -0.6820 -0.3219  0.5026
 5457TIP3    H137930   3.370   6.303   7.937 -0.3026 -0.3178 -0.0352
 5457TIP3    H237931   3.386   6.168   8.003 -0.9249  0.0003  0.7826
 5458TIP3   OH237932   1.068   6.437   7.235  0.4507 -0.7126 -0.0419
 5458TIP3    H137933   1.006   6.425   7.163 -0.5392  2.4002  0.1178
 5458TIP3    H237934   1.154   6.431   7.194 -0.0853 -0.0068 -1.3377
 5459TIP3   OH237935   2.368   3.890   1.294  0.0367 -0.0630 -0.4696
 5459TIP3    H137936   2.322   3.960   1.249  1.0043  1.0653  0.2297
 5459TIP3    H237937   2.327   3.885   1.380  0.9532  0.7303  0.0398
 5460TIP3   OH237938   2.048   6.142   1.505 -0.8471 -0.3968 -0.3581
 5460TIP3    H137939   2.107   6.168   1.435 -2.1110 -1.5027 -1.9017
 5460TIP3    H237940   1.961   6.169   1.474 -1.5351 -1.6810  0.3729
 5461TIP3   OH237941   4.713   0.183   8.459 -0.7328  0.1509  0.1670
 5461TIP3    H137942   4.759   0.099   8.455 -0.3555  0.3889 -3.0420
 5461TIP3    H237943   4.775   0.242   8.504  0.1558 -0.6300 -0.0013
 5462TIP3   OH237944   0.281   1.734   0.506  0.4192  0.2339 -0.3307
 5462TIP3    H137945   0.212   1.797   0.484  0.0292  0.7461  2.0071
 5462TIP3    H237946   0.333   1.779   0.573  0.0525 -1.9197  1.4964
 5463TIP3   OH237947   6.327   4.284   1.000 -0.4239 -0.6071 -0.4729
 5463TIP3    H137948   6.407   4.280   1.054 -1.4884 -1.7925  1.1097
 5463TIP3    H237949   6.303   4.376   1.001  0.1123 -0.4572  0.3150
 5464TIP3   OH237950   4.579   6.439   2.532 -0.1057 -0.5567  0.0838
 5464TIP3    H137951   4.646   6.383   2.572  1.0111 -0.5556 -1.6549
 5464TIP3    H237952   4.604   6.528   2.556  1.7490 -0.3841 -2.0873
 5465TIP3   OH237953   2.755   2.466   7.681 -0.0554 -0.0253  0.6267
 5465TIP3    H137954   2.843   2.448   7.714  0.3585  2.3331  1.0392
 5465TIP3    H237955   2.738   2.557   7.707 -1.0647  0.9047 -2.7481
 5466TIP3   OH237956   6.173   6.617   8.272 -0.0423  0.6146 -0.6891
 5466TIP3    H137957   6.100   6.663   8.313  0.2940  1.9151 -1.4511
 5466TIP3    H237958   6.222   6.687   8.228  0.6133 -0.4716 -1.7351
 5467TIP3   OH237959   3.732   4.441   1.861 -0.2718 -0.3812  0.6610
 5467TIP3    H137960   3.767   4.378   1.798  0.3123  1.3684 -0.8363
 5467TIP3    H237961   3.803   4.453   1.925 -0.6897 -1.7966  1.4419
 5468TIP3   OH237962   5.285   6.455   2.480  0.4293  0.6803  0.2167
 5468TIP3    H137963   5.249   6.537   2.513  1.0138  0.7604  0.6815
 5468TIP3    H237964   5.294   6.399   2.558  1.2171  0.6380  0.1040
 5469TIP3   OH237965   0.501   0.135   1.185  0.2297  0.4856 -0.4535
 5469TIP3    H137966   0.493   0.155   1.092 -1.1373  1.0258 -0.2386
 5469TIP3    H237967   0.569   0.194   1.217  1.1766 -0.1583 -1.2167
 5470TIP3   OH237968   5.192   3.833   1.788 -0.1125  0.5613 -0.3717
 5470TIP3    H137969   5.219   3.903   1.847 -1.4026 -0.3088  1.3484
 5470TIP3    H237970   5.243   3.757   1.816 -1.0166  0.0442 -0.0803
 5471TIP3   OH237971   5.722   4.457   0.128  0.0087  0.0500  0.7683
 5471TIP3    H137972   5.711   4.428   0.218 -1.8389 -2.3515 -0.1046
 5471TIP3    H237973   5.659   4.404   0.078  1.5434  0.6517 -2.0452
 5472TIP3   OH237974   4.099   5.195   7.926  0.0841  0.0033 -0.4614
 5472TIP3    H137975   4.106   5.290   7.926 -2.2254  0.2904  2.2042
 5472TIP3    H237976   4.089   5.172   7.834  0.3719  2.3600 -1.1487
 5473TIP3   OH237977   1.722   2.732   1.332 -0.1259  0.2318 -0.0185
 5473TIP3    H137978   1.679   2.764   1.253  1.1869 -0.8633 -1.2444
 5473TIP3    H237979   1.656   2.678   1.376 -0.9565  1.0801 -0.2014
 5474TIP3   OH237980   3.802   5.194   1.239 -0.7526  0.0059 -0.5933
 5474TIP3    H137981   3.753   5.179   1.159  1.8257 -1.5125 -2.0278
 5474TIP3    H237982   3.770   5.128   1.300 -0.8484 -0.6462 -1.3357
 5475TIP3   OH237983   4.119   4.595   1.689 -0.5622 -0.1679  0.2010
 5475TIP3    H137984   4.081   4.508   1.681  0.9760 -0.9968  1.3211
 5475TIP3    H237985   4.057   4.644   1.744 -1.1096 -0.7613  0.1215
 5476TIP3   OH237986   5.265   1.870   0.835  0.6964  0.3943 -0.0400
 5476TIP3    H137987   5.179   1.911   0.825  0.2750 -0.3077  0.6028
 5476TIP3    H237988   5.322   1.918   0.775 -0.6003 -0.5007 -2.0911
 5477TIP3   OH237989   0.954   3.856   1.852  0.0431 -0.2800 -0.8619
 5477TIP3    H137990   0.869   3.851   1.809 -0.4282 -0.6991  0.0916
 5477TIP3    H237991   1.002   3.780   1.819 -0.9504 -1.6183  0.6396
 5478TIP3   OH237992   3.654   5.552   0.331  1.0748 -0.0347 -0.6826
 5478TIP3    H137993   3.582   5.600   0.373  0.1450  0.0601 -2.3102
 5478TIP3    H237994   3.718   5.620   0.309 -0.0623  0.5109 -2.6244
 5479TIP3   OH237995   3.907   4.753   0.805  0.4924 -0.0430 -0.3824
 5479TIP3    H137996   3.989   4.767   0.758  1.7111 -1.0340  1.3327
 5479TIP3    H237997   3.877   4.841   0.827  1.5930  0.3212 -0.2547
 5480TIP3   OH237998   6.839   5.334   7.677  0.1453 -0.1885 -0.4059
 5480TIP3    H137999   6.881   5.297   7.600 -0.8249  0.3724 -1.2456
 5480TIP3    H238000   6.787   5.407   7.643 -0.6850 -0.2181  0.7101
 5481TIP3   OH238001   3.551   4.120   0.108  0.2299 -0.1749 -0.0709
 5481TIP3    H138002   3.599   4.159   0.035  3.6045  1.9640  2.9887
 5481TIP3    H238003   3.460   4.147   0.094  1.1868  2.4688 -2.0615
 5482TIP3   OH238004   1.256   0.658   8.584 -0.1632  0.2279 -0.7969
 5482TIP3    H138005   1.278   0.577   8.630  3.9385  0.7453 -1.4489
 5482TIP3    H238006   1.232   0.630   8.496 -1.1763 -0.3501 -0.3581
 5483TIP3   OH238007   2.952   6.851   1.869 -0.4439  0.3152  0.7757
 5483TIP3    H138008   2.957   6.866   1.963  0.8914 -1.4515  1.0338
 5483TIP3    H238009   3.007   6.919   1.831 -0.7039  0.8164  1.2786
 5484TIP3   OH238010   2.096   3.773   6.687  0.1200 -0.4763  0.0832
 5484TIP3    H138011   2.177   3.784   6.737  0.7015  0.9477 -1.1094
 5484TIP3    H238012   2.067   3.684   6.707  1.8397 -0.9215  0.7214
 5485TIP3   OH238013   3.760   6.669   8.049 -0.4842 -0.5701 -0.0054
 5485TIP3    H138014   3.841   6.703   8.086  0.8512 -2.8110 -0.7055
 5485TIP3    H238015   3.692   6.727   8.083  1.1974  0.3380  2.0078
 5486TIP3   OH238016   6.113   1.426   1.911 -0.3400  0.5652 -0.0479
 5486TIP3    H138017   6.203   1.419   1.944  0.8695  0.9233 -3.0249
 5486TIP3    H238018   6.075   1.498   1.962  0.5664 -0.3809  2.1264
 5487TIP3   OH238019   1.278   2.929   0.185  0.4036  0.3990 -0.0979
 5487TIP3    H138020   1.236   2.858   0.138  4.6009 -2.0967 -0.5350
 5487TIP3    H238021   1.355   2.950   0.133  1.1527  2.9178  1.8378
 5488TIP3   OH238022   1.827   3.469   0.287 -0.0479  0.7314  0.2321
 5488TIP3    H138023   1.752   3.521   0.317 -1.8897 -1.5741 -0.1082
 5488TIP3    H238024   1.789   3.387   0.257  2.5602 -0.1776 -0.8747
 5489TIP3   OH238025   6.592   3.703   0.697 -0.4523  0.0529  0.3788
 5489TIP3    H138026   6.667   3.650   0.669 -0.2755  1.6850 -2.7881
 5489TIP3    H238027   6.599   3.782   0.644 -1.8095  2.4100  3.4558
 5490TIP3   OH238028   3.261   2.267   1.862  0.1754 -0.0104  0.2109
 5490TIP3    H138029   3.350   2.255   1.896  0.1751  0.3020  0.3276
 5490TIP3    H238030   3.218   2.182   1.875  0.8711 -0.5924 -1.0917
 5491TIP3   OH238031   4.456   2.165   7.274  0.4341 -0.0495 -0.3885
 5491TIP3    H138032   4.537   2.188   7.229  1.0520 -0.9337  0.2181
 5491TIP3    H238033   4.468   2.196   7.364  1.0376 -2.0234  0.2861
 5492TIP3   OH238034   5.748   2.637   7.288 -0.4530 -0.1066  0.6452
 5492TIP3    H138035   5.710   2.648   7.200 -0.3962 -0.7164  0.5356
 5492TIP3    H238036   5.701   2.561   7.324 -1.1406  0.7110  1.5135
 5493TIP3   OH238037   5.920   5.385   0.715 -0.1082  0.4158  0.3004
 5493TIP3    H138038   5.930   5.422   0.628 -0.5063 -1.9715 -0.8543
 5493TIP3    H238039   5.842   5.428   0.751 -0.2039  1.1068 -0.7021
 5494TIP3   OH238040   0.345   6.364   2.128 -0.2725 -0.7113 -0.1629
 5494TIP3    H138041   0.314   6.323   2.047 -1.8623 -1.5157  0.7960
 5494TIP3    H238042   0.276   6.427   2.150  0.7111  0.3399 -0.0311
 5495TIP3   OH238043   3.283   0.893   0.223 -0.2694  0.0018 -0.6848
 5495TIP3    H138044   3.351   0.878   0.156  1.5000  0.0091  1.0120
 5495TIP3    H238045   3.305   0.832   0.293 -0.9788  1.2069  0.6380
 5496TIP3   OH238046   0.729   0.401   0.858  0.1960 -0.0623 -0.5019
 5496TIP3    H138047   0.760   0.359   0.778  0.7614 -0.9126  0.1488
 5496TIP3    H238048   0.799   0.386   0.922  0.2426  1.5303 -0.1327
 5497TIP3   OH238049   1.486   2.484   2.539  0.4306 -0.7428 -0.1848
 5497TIP3    H138050   1.522   2.410   2.588 -0.6435 -1.2136 -0.0785
 5497TIP3    H238051   1.423   2.444   2.479  1.8113 -0.2139 -2.0961
 5498TIP3   OH238052   4.742   3.234   2.170  0.2055 -0.0560 -0.1120
 5498TIP3    H138053   4.655   3.269   2.153 -0.5889 -2.8131 -2.5201
 5498TIP3    H238054   4.792   3.255   2.091  0.4481 -1.9735 -0.5167
 5499TIP3   OH238055   2.087   4.573   7.234  0.1175  0.1561  0.0488
 5499TIP3    H138056   1.994   4.567   7.256 -0.1677 -0.0674 -1.1355
 5499TIP3    H238057   2.094   4.531   7.148  1.8291 -2.7407  1.4283
 5500TIP3   OH238058   2.425   1.739   0.924  0.1696  0.0225 -0.3728
 5500TIP3    H138059   2.475   1.713   1.001 -0.8780 -0.0398  0.3062
 5500TIP3    H238060   2.451   1.676   0.856  1.2219  0.1811 -0.1273
 5501TIP3   OH238061   6.441   3.316   2.782  0.0885 -0.0296  0.1259
 5501TIP3    H138062   6.444   3.236   2.730 -0.8180 -0.3582  0.5632
 5501TIP3    H238063   6.348   3.329   2.801  0.0423  1.9005 -1.1256
 5502TIP3   OH238064   3.097   3.283   7.255  0.1977 -0.3443 -0.5089
 5502TIP3    H138065   3.011   3.289   7.297 -0.6666 -5.1248 -1.0443
 5502TIP3    H238066   3.080   3.302   7.163  0.0903  0.4046 -0.3398
 5503TIP3   OH238067   5.986   6.535   2.839 -0.2640  0.8133  0.2837
 5503TIP3    H138068   5.958   6.623   2.866  2.8301  1.6637  1.1218
 5503TIP3    H238069   6.064   6.550   2.784 -0.5272 -1.3748 -0.8091
 5504TIP3   OH238070   1.775   2.535   1.082 -0.3740 -0.8470 -0.4713
 5504TIP3    H138071   1.827   2.456   1.096  0.9316 -0.0893 -0.9293
 5504TIP3    H238072   1.741   2.526   0.993 -1.6360 -1.6586  0.0597
 5505TIP3   OH238073   4.754   3.505   6.722 -0.1781 -0.2236 -0.2733
 5505TIP3    H138074   4.820   3.571   6.701  0.0122  0.0903  1.2164
 5505TIP3    H238075   4.686   3.518   6.656  0.6134  0.3533 -1.0046
 5506TIP3   OH238076   4.513   4.777   8.096 -0.2575 -0.1045 -0.3752
 5506TIP3    H138077   4.539   4.790   8.188  1.3917 -1.3987 -0.6000
 5506TIP3    H238078   4.495   4.865   8.063  2.2502  0.7742  0.3583
 5507TIP3   OH238079   0.437   6.790   2.060  0.0834 -0.4136 -0.1663
 5507TIP3    H138080   0.470   6.701   2.070 -0.8110 -0.5942  1.7234
 5507TIP3    H238081   0.500   6.833   2.002  1.1273 -1.9483 -0.2367
 5508TIP3   OH238082   1.734   0.701   1.898 -0.2375 -0.1696 -0.0461
 5508TIP3    H138083   1.743   0.756   1.820 -0.3509  0.2611  0.2365
 5508TIP3    H238084   1.702   0.761   1.966  3.0228  0.3095  1.2667
 5509TIP3   OH238085   2.376   5.481   0.413 -0.4621  0.3517  0.0008
 5509TIP3    H138086   2.433   5.537   0.467 -0.2011 -0.2815  0.3873
 5509TIP3    H238087   2.318   5.439   0.477 -0.3836 -0.1359 -0.2507
 5510TIP3   OH238088   2.236   3.222   1.888 -0.6332 -0.0916 -0.0048
 5510TIP3    H138089   2.302   3.174   1.839 -1.6075 -0.6546 -0.7988
 5510TIP3    H238090   2.238   3.311   1.852  0.8492  0.3881  1.1521
 5511TIP3   OH238091   6.662   2.651   0.517 -0.2956 -0.1747  0.0911
 5511TIP3    H138092   6.621   2.714   0.577  1.1501  0.2981  0.6296
 5511TIP3    H238093   6.652   2.691   0.430 -1.7026 -0.4826  0.0954
 5512TIP3   OH238094   2.021   1.821   7.524 -0.1485 -0.3042 -0.4462
 5512TIP3    H138095   1.931   1.801   7.498 -0.1342 -0.5306 -0.3183
 5512TIP3    H238096   2.030   1.915   7.506 -0.7472 -0.0414  0.5186
 5513TIP3   OH238097   2.395   2.657   1.598 -0.3544 -0.0086  0.3850
 5513TIP3    H138098   2.451   2.583   1.574 -0.4842  0.1443 -0.4436
 5513TIP3    H238099   2.312   2.617   1.625  0.0539 -0.2228  1.3421
 5514TIP3   OH238100   6.627   0.945   1.341  0.1819  0.6953 -0.3893
 5514TIP3    H138101   6.629   0.871   1.402  1.2643  0.4624 -0.6859
 5514TIP3    H238102   6.562   1.005   1.378  0.2396  0.1939  0.5564
 5515TIP3   OH238103   3.617   4.538   2.083  0.5394 -0.1341 -0.4865
 5515TIP3    H138104   3.646   4.511   1.996  2.5813  0.3653 -0.0134
 5515TIP3    H238105   3.633   4.461   2.138  1.0279  0.1795 -0.1939
 5516TIP3   OH238106   1.329   4.463   0.262 -0.2392 -0.0107  0.1125
 5516TIP3    H138107   1.272   4.438   0.189  0.3050  0.1064 -0.3575
 5516TIP3    H238108   1.275   4.448   0.340 -1.0321  0.4163 -0.3389
 5517TIP3   OH238109   6.683   1.215   7.294 -0.3164  0.5983 -0.0580
 5517TIP3    H138110   6.725   1.145   7.245 -0.9311  1.5762 -2.0882
 5517TIP3    H238111   6.648   1.172   7.372  0.7278 -1.0137 -0.4256
 5518TIP3   OH238112   0.139   5.006   0.411  0.0838 -0.6671  0.1057
 5518TIP3    H138113   0.117   4.924   0.367  1.1370 -0.4113 -0.9572
 5518TIP3    H238114   0.233   4.998   0.428 -0.2764 -0.7260  2.2913
 5519TIP3   OH238115   0.372   6.358   6.650 -0.0395  0.0700 -0.0638
 5519TIP3    H138116   0.337   6.444   6.675  1.0284  0.2546  0.8719
 5519TIP3    H238117   0.402   6.369   6.560 -1.9661  0.0125 -0.7629
 5520TIP3   OH238118   6.671   5.512   0.008 -0.0381 -1.3866  0.0883
 5520TIP3    H138119   6.691   5.604  -0.010  0.5885 -1.1927  1.6593
 5520TIP3    H238120   6.605   5.488  -0.058 -0.6491  0.3479  0.0365
 5521TIP3   OH238121   4.443   4.321   0.870  0.8286  0.1441  0.4732
 5521TIP3    H138122   4.425   4.405   0.913 -0.2133 -0.1764  0.7013
 5521TIP3    H238123   4.451   4.259   0.942  0.0947 -0.2115  0.2652
 5522TIP3   OH238124   2.606   0.641   1.182  1.3151 -0.1068 -0.3905
 5522TIP3    H138125   2.621   0.666   1.091 -0.4674  2.6921 -0.0702
 5522TIP3    H238126   2.636   0.717   1.232 -2.0221  0.5002  0.9514
 5523TIP3   OH238127   5.605   2.039   2.241 -0.0444  0.2781  0.4493
 5523TIP3    H138128   5.560   2.042   2.157 -0.2999 -0.5492  0.5498
 5523TIP3    H238129   5.552   2.096   2.298 -0.0914  0.5266  0.1568
 5524TIP3   OH238130   2.448   4.718   7.514  0.0489 -0.2057  0.1067
 5524TIP3    H138131   2.441   4.665   7.434  1.7933  0.7832 -0.7854
 5524TIP3    H238132   2.542   4.716   7.535 -0.1413  0.9355  1.1550
 5525TIP3   OH238133   2.550   0.139   0.525 -0.0531  0.2126  0.1502
 5525TIP3    H138134   2.607   0.170   0.596 -0.7014 -0.0117  0.7884
 5525TIP3    H238135   2.572   0.046   0.516 -0.5430  0.0448  0.6292
 5526TIP3   OH238136   3.869   0.395   1.325  0.3255 -0.3726 -0.0526
 5526TIP3    H138137   3.922   0.467   1.359 -0.4007  0.0734  0.1381
 5526TIP3    H238138   3.839   0.348   1.403  0.5246 -0.6851 -0.1645
 5527TIP3   OH238139   2.275   6.158   7.799  0.4620  0.5465  0.2652
 5527TIP3    H138140   2.259   6.087   7.861  1.2220  0.9772  0.9723
 5527TIP3    H238141   2.367   6.148   7.774  0.2073  0.4772 -0.6776
 5528TIP3   OH238142   2.339   4.489   0.224 -0.3021 -0.2658 -0.4538
 5528TIP3    H138143   2.385   4.458   0.302 -0.8695  0.9878  0.4161
 5528TIP3    H238144   2.405   4.488   0.155  0.8619  0.8100  0.5896
 5529TIP3   OH238145   5.836   2.142   8.660 -0.2431 -0.2567 -0.4241
 5529TIP3    H138146   5.824   2.054   8.625 -0.3920 -0.4038 -0.0031
 5529TIP3    H238147   5.747   2.176   8.673 -0.2346 -0.8816  1.5159
 5530TIP3   OH238148   5.273   6.420   7.702  0.2477 -0.4644 -0.0156
 5530TIP3    H138149   5.239   6.330   7.701 -1.3949  0.0941 -2.3575
 5530TIP3    H238150   5.244   6.457   7.619  0.3556  2.4538  1.1561
 5531TIP3   OH238151   1.940   6.685   1.637  0.6091 -0.5314  0.1088
 5531TIP3    H138152   1.923   6.631   1.560 -0.0977 -2.2308  1.3707
 5531TIP3    H238153   2.035   6.688   1.645  0.7861  1.3512 -1.8951
 5532TIP3   OH238154   6.494   6.765   8.333  0.5952 -0.6961 -0.3151
 5532TIP3    H138155   6.423   6.812   8.378  0.8633 -0.0890 -0.5186
 5532TIP3    H238156   6.557   6.745   8.402  0.8080 -0.1396 -0.3459
 5533TIP3   OH238157   0.586   2.363   0.487 -0.2314 -0.2463  0.1954
 5533TIP3    H138158   0.565   2.386   0.397  0.4912  0.9572  0.3241
 5533TIP3    H238159   0.682   2.354   0.488 -0.3266 -1.4390  0.5858
 5534TIP3   OH238160   2.921   0.834   0.964  0.2113 -0.0422  0.3642
 5534TIP3    H138161   2.968   0.770   0.910  0.4375  0.2952  0.1565
 5534TIP3    H238162   2.928   0.916   0.915  1.6929  0.6226  1.6055
 5535TIP3   OH238163   6.113   2.205   0.759 -0.3563  0.1437  0.1461
 5535TIP3    H138164   6.179   2.168   0.817  0.5577 -0.2990 -1.1313
 5535TIP3    H238165   6.060   2.261   0.816 -1.5955 -2.7902  2.1255
 5536TIP3   OH238166   0.018   4.714   7.317  0.5570  0.0413 -0.6568
 5536TIP3    H138167   0.067   4.694   7.237 -1.4166 -0.0026 -1.9111
 5536TIP3    H238168  -0.067   4.673   7.304 -0.2156  1.0213  0.9814
 5537TIP3   OH238169   3.066   4.445   1.079  0.6297  0.4123  0.2436
 5537TIP3    H138170   3.132   4.509   1.055  0.8166  0.5932  1.1878
 5537TIP3    H238171   3.074   4.437   1.174 -0.2890 -0.0201  0.2965
 5538TIP3   OH238172   4.466   0.163   2.091  0.1214 -0.0003 -0.1262
 5538TIP3    H138173   4.460   0.068   2.079 -0.9164  0.0051  0.2462
 5538TIP3    H238174   4.475   0.174   2.186  0.6067  0.2635 -0.2019
 5539TIP3   OH238175   3.825   1.189   1.994  0.1708 -0.3088 -0.0469
 5539TIP3    H138176   3.786   1.140   2.066  0.3597 -1.2336 -0.5626
 5539TIP3    H238177   3.777   1.160   1.917  1.3092 -0.8332 -0.5685
 5540TIP3   OH238178   4.368   4.355   0.204  0.4225  0.3273 -0.3599
 5540TIP3    H138179   4.351   4.311   0.287  1.3631  1.7790  0.6688
 5540TIP3    H238180   4.413   4.290   0.151 -1.9121 -1.2584 -0.5171
 5541TIP3   OH238181   3.183   2.010   0.673  0.0523 -0.2692  0.6197
 5541TIP3    H138182   3.208   2.091   0.717 -3.4940  0.1168  2.1997
 5541TIP3    H238183   3.111   1.974   0.725 -0.5801 -2.8400 -1.7509
 5542TIP3   OH238184   4.365   0.940   1.018 -0.0778 -0.7974 -0.1783
 5542TIP3    H138185   4.327   1.010   0.965 -0.5502 -2.4720 -2.1928
 5542TIP3    H238186   4.454   0.929   0.983  0.2798 -0.6835  0.6724
 5543TIP3   OH238187   6.134   0.218   8.217 -0.4266 -0.7006 -0.3101
 5543TIP3    H138188   6.069   0.172   8.271 -0.4126  1.0010  1.2660
 5543TIP3    H238189   6.218   0.199   8.260 -0.4233  0.7522  0.3615
 5544TIP3   OH238190   6.062   3.060   6.699 -0.3167 -0.2034  0.5967
 5544TIP3    H138191   6.122   3.118   6.746  0.0669  0.4643 -0.6771
 5544TIP3    H238192   5.984   3.056   6.754  0.8690 -1.1314  2.3327
 5545TIP3   OH238193   3.861   2.177   0.064  0.1785 -0.2525  0.3076
 5545TIP3    H138194   3.868   2.216   0.151  0.7726 -0.1723  0.2317
 5545TIP3    H238195   3.777   2.208   0.030  0.7459  1.1993  0.1417
 5546TIP3   OH238196   5.377   2.255   8.271 -0.4476 -0.1946 -0.6975
 5546TIP3    H138197   5.411   2.181   8.322  0.1312  1.1213  0.9215
 5546TIP3    H238198   5.285   2.234   8.257 -0.2621 -1.2927 -0.4071
 5547TIP3   OH238199   2.212   0.874   1.521  0.0131 -0.3155  0.4481
 5547TIP3    H138200   2.128   0.832   1.506  0.3366 -0.1838 -2.0769
 5547TIP3    H238201   2.221   0.876   1.617 -1.1366 -3.7068  0.7634
 5548TIP3   OH238202   5.853   3.605   8.020 -0.3869  0.0443 -0.0858
 5548TIP3    H138203   5.866   3.528   8.076  0.1814  0.6752  0.6636
 5548TIP3    H238204   5.784   3.654   8.064 -0.4894  0.1552 -0.3692
 5549TIP3   OH238205   2.505   5.238   0.026  0.4285  0.3052 -0.4842
 5549TIP3    H138206   2.540   5.277  -0.054  2.7121 -0.5679  0.0147
 5549TIP3    H238207   2.455   5.309   0.067  0.9782  1.4091 -1.6458
 5550TIP3   OH238208   2.861   6.386   6.342  0.2465  0.0182 -0.1109
 5550TIP3    H138209   2.857   6.300   6.300 -1.3226 -0.9549  1.8950
 5550TIP3    H238210   2.770   6.417   6.341  0.6236  1.1640  0.2095
 5551TIP3   OH238211   5.030   1.006   1.917  0.2008 -0.0374 -0.5501
 5551TIP3    H138212   5.099   1.064   1.884  0.8900 -1.0710 -0.9533
 5551TIP3    H238213   5.077   0.940   1.969 -0.7787  1.1738  2.0765
 5552TIP3   OH238214   1.211   3.815   8.355 -0.1978  0.4712 -0.1225
 5552TIP3    H138215   1.197   3.877   8.283  0.6404  0.8101 -0.0076
 5552TIP3    H238216   1.273   3.751   8.319  0.5008  0.8404  0.4030
 5553TIP3   OH238217   6.136   0.034   8.654  0.2162  0.2642  0.0118
 5553TIP3    H138218   6.225   0.009   8.679 -0.6822 -0.8696  2.3476
 5553TIP3    H238219   6.106   0.090   8.725 -1.0783  0.3048 -0.5372
 5554TIP3   OH238220   1.453   6.040   0.572  0.2495  0.2492 -0.2799
 5554TIP3    H138221   1.368   6.051   0.614  0.7238 -1.3706  1.2747
 5554TIP3    H238222   1.469   6.122   0.526 -2.5563  0.2610 -1.4494
 5555TIP3   OH238223   0.012   0.054   1.538  0.1940  0.1494 -0.0244
 5555TIP3    H138224   0.083   0.119   1.536 -0.1930  0.6443  1.4038
 5555TIP3    H238225  -0.064   0.100   1.505  0.1223  0.1642  0.1587
 5556TIP3   OH238226   0.511   4.586   0.227 -0.3697  0.1846  0.3994
 5556TIP3    H138227   0.590   4.615   0.273 -0.2579  0.8147 -0.1703
 5556TIP3    H238228   0.458   4.543   0.294  0.3842 -0.0997  0.8180
 5557TIP3   OH238229   0.363   0.235   1.840 -0.1732  0.1066  0.0183
 5557TIP3    H138230   0.302   0.232   1.914  1.7039  1.0907  1.7380
 5557TIP3    H238231   0.378   0.144   1.817 -0.0683 -0.2853  1.5383
 5558TIP3   OH238232   2.151   3.990   6.983 -0.1496 -0.3052  0.6713
 5558TIP3    H138233   2.169   4.056   6.915 -2.4798  0.1350  0.3885
 5558TIP3    H238234   2.198   3.913   6.954 -1.7177 -0.3943 -1.9988
 5559TIP3   OH238235   4.356   1.695   7.975 -0.8349 -0.5886 -0.2361
 5559TIP3    H138236   4.385   1.664   8.061  0.9158  1.2208 -0.1283
 5559TIP3    H238237   4.435   1.699   7.922 -1.3326  1.5390 -0.8992
 5560TIP3   OH238238   4.735   5.043   7.529  0.1886  0.5365  0.4421
 5560TIP3    H138239   4.661   5.018   7.585  1.0616 -1.2844  0.8642
 5560TIP3    H238240   4.803   5.071   7.590  0.9187 -0.8400  0.3118
 5561TIP3   OH238241   0.910   3.710   0.410  0.3546  0.3455 -0.4374
 5561TIP3    H138242   0.996   3.751   0.417  0.5637 -0.1056 -0.4014
 5561TIP3    H238243   0.879   3.735   0.323  0.3013  0.9269 -0.2620
 5562TIP3   OH238244   2.891   0.833   8.633  0.2503  0.2859 -0.1392
 5562TIP3    H138245   2.944   0.832   8.553 -0.4513 -2.0792 -0.6646
 5562TIP3    H238246   2.849   0.747   8.635 -1.8421  1.2419  1.3998
 5563TIP3   OH238247   3.212   0.279   6.811  0.1672 -0.1538  0.1603
 5563TIP3    H138248   3.125   0.313   6.831  0.0131 -0.3475 -0.1814
 5563TIP3    H238249   3.196   0.194   6.770  0.5423 -0.4846  0.6897
 5564TIP3   OH238250   1.602   5.181   1.968 -0.2565  0.1953  0.2584
 5564TIP3    H138251   1.518   5.181   2.012  0.2470  3.5193  1.5206
 5564TIP3    H238252   1.594   5.249   1.901  2.1527  2.7979  2.3515
 5565TIP3   OH238253   6.700   6.599   0.564  0.6194  0.3436  0.2809
 5565TIP3    H138254   6.626   6.541   0.582 -0.3840  1.7180  0.7760
 5565TIP3    H238255   6.661   6.686   0.558  1.9720  0.8892 -1.2308
 5566TIP3   OH238256   3.216   1.503   1.728 -0.2516 -0.2181  0.4074
 5566TIP3    H138257   3.125   1.475   1.736  0.4040 -2.0496  2.3750
 5566TIP3    H238258   3.224   1.576   1.790 -0.5396  0.4493 -0.3289
 5567TIP3   OH238259   2.079   2.972   7.614  0.2211 -0.4453  0.6126
 5567TIP3    H138260   1.993   2.959   7.576  0.0411 -0.7861  1.1184
 5567TIP3    H238261   2.066   3.038   7.682  0.4352 -0.2119  0.4280
 5568TIP3   OH238262   5.792   3.086   2.043  0.3743 -0.4403  0.2853
 5568TIP3    H138263   5.777   3.076   2.137 -2.5641  1.4538  0.1511
 5568TIP3    H238264   5.887   3.090   2.034  0.7603 -1.0438  3.0858
 5569TIP3   OH238265   5.446   4.713   0.459  0.2244  0.1171  0.6144
 5569TIP3    H138266   5.444   4.798   0.504 -0.2061 -0.4838  1.7695
 5569TIP3    H238267   5.522   4.719   0.400  0.5428  1.0881  1.1002
 5570TIP3   OH238268   2.618   5.947   7.083  0.1258 -0.4366  0.7087
 5570TIP3    H138269   2.690   5.954   7.021 -0.0578  0.0349  0.5436
 5570TIP3    H238270   2.567   6.027   7.070 -0.1133 -0.5018  1.2154
 5571TIP3   OH238271   2.765   5.574   8.204 -0.0977 -0.3678 -0.1331
 5571TIP3    H138272   2.704   5.531   8.143 -0.6045 -1.0006  0.7991
 5571TIP3    H238273   2.721   5.656   8.227 -0.1171 -0.3393 -0.2704
 5572TIP3   OH238274   5.974   3.965   6.600 -0.0257 -0.3145  0.4582
 5572TIP3    H138275   5.978   3.882   6.553 -0.1429 -1.3125  2.1354
 5572TIP3    H238276   6.055   4.010   6.577 -0.3234 -0.5053 -1.0963
 5573TIP3   OH238277   5.876   3.451   6.335  0.3280  0.2317  0.0857
 5573TIP3    H138278   5.924   3.393   6.395 -1.9383 -1.4817  0.3787
 5573TIP3    H238279   5.810   3.493   6.390 -0.2575  0.4609 -0.7726
 5574TIP3   OH238280   2.396   0.034   0.854  0.3618 -0.0379  0.0482
 5574TIP3    H138281   2.405   0.098   0.924  1.7152 -1.3921  1.1870
 5574TIP3    H238282   2.473  -0.023   0.863 -0.5341 -1.5370 -1.1938
 5575TIP3   OH238283   2.139   2.164   0.948  0.1880  0.5498  0.2092
 5575TIP3    H138284   2.071   2.100   0.971 -0.1551  0.8315 -0.0041
 5575TIP3    H238285   2.197   2.118   0.888 -0.0241  0.4188  0.1041
 5576TIP3   OH238286   4.337   5.841   1.719 -0.7099  0.2925 -0.3270
 5576TIP3    H138287   4.401   5.908   1.741  1.7283 -2.0615  0.3358
 5576TIP3    H238288   4.285   5.831   1.799  0.2710  0.0286  0.3012
 5577TIP3   OH238289   0.001   6.552   1.157 -0.1606 -0.3015 -0.1928
 5577TIP3    H138290  -0.010   6.562   1.063 -4.0091 -0.9110  0.0347
 5577TIP3    H238291  -0.025   6.637   1.193 -1.3724 -0.8949  0.3807
 5578TIP3   OH238292   6.201   3.383   8.323 -0.5033  0.0862 -0.2149
 5578TIP3    H138293   6.253   3.325   8.379  0.6854  1.3397  0.0048
 5578TIP3    H238294   6.131   3.326   8.290 -0.4217 -1.0399  1.4115
 5579TIP3   OH238295   0.348   5.331   1.120  0.1531 -0.2524 -0.2876
 5579TIP3    H138296   0.412   5.267   1.151  1.3506  1.6024  1.3286
 5579TIP3    H238297   0.368   5.340   1.026  2.2530  0.1853  0.1384
 5580TIP3   OH238298   2.357   2.098   6.787 -0.4112  0.1557  0.1053
 5580TIP3    H138299   2.372   2.173   6.728 -0.7556  0.7158  0.7180
 5580TIP3    H238300   2.263   2.100   6.805 -0.1826  0.4568  1.2896
 5581TIP3   OH238301   0.994   5.422   1.148  0.0671 -0.0907 -0.0777
 5581TIP3    H138302   0.905   5.393   1.169 -0.3271  0.1250 -1.3369
 5581TIP3    H238303   0.986   5.461   1.061  1.4328 -0.2051 -0.2741
 5582TIP3   OH238304   5.076   0.239   0.013 -0.1165  0.3529  0.8962
 5582TIP3    H138305   5.024   0.312  -0.022  1.9083  1.9930  1.1588
 5582TIP3    H238306   5.069   0.171  -0.055 -0.1346  1.6849 -0.4979
 5583TIP3   OH238307   1.029   2.222   0.230 -0.1707  0.1763  0.0867
 5583TIP3    H138308   0.967   2.149   0.237 -1.4652  1.3836  1.9459
 5583TIP3    H238309   1.114   2.179   0.219 -0.8822 -1.6341  1.1618
 5584TIP3   OH238310   1.800   1.936   8.693  0.2608  0.2782  0.3302
 5584TIP3    H138311   1.753   1.860   8.659 -0.9632  0.2593  1.9347
 5584TIP3    H238312   1.748   1.965   8.768  2.5512  0.5751  1.9135
 5585TIP3   OH238313   4.180   1.409   7.220  0.5331  0.4149 -0.0926
 5585TIP3    H138314   4.177   1.457   7.137  0.9218 -0.0883 -0.4021
 5585TIP3    H238315   4.252   1.450   7.268  0.1655  0.8538  0.0974
 5586TIP3   OH238316   6.738   0.407   0.406  0.6308  0.1702  0.2379
 5586TIP3    H138317   6.795   0.339   0.440 -0.2458 -0.4953  0.3978
 5586TIP3    H238318   6.739   0.475   0.473 -0.9680 -1.0648  1.6078
 5587TIP3   OH238319   6.593   1.331   0.794 -0.1157 -0.4985  0.4033
 5587TIP3    H138320   6.517   1.384   0.814  0.4501 -0.1221  1.6208
 5587TIP3    H238321   6.557   1.248   0.763 -1.0031  0.3913 -1.0361
 5588TIP3   OH238322   1.971   5.151   7.736 -0.2214 -0.1850 -0.0163
 5588TIP3    H138323   1.930   5.237   7.732  0.0686 -0.0666 -0.6769
 5588TIP3    H238324   2.019   5.143   7.653  1.7051 -0.0128  1.0185
 5589TIP3   OH238325   2.942   5.160   1.393 -0.4966 -0.1684 -0.4874
 5589TIP3    H138326   2.851   5.189   1.391 -0.2316  0.6623 -0.8054
 5589TIP3    H238327   2.943   5.092   1.460 -1.2962  0.0102 -0.2771
 5590TIP3   OH238328   6.007   5.868   7.038 -0.2529 -0.3090 -0.3883
 5590TIP3    H138329   6.091   5.904   7.065 -1.0236  0.8325  0.6327
 5590TIP3    H238330   5.978   5.926   6.967 -1.1640  0.7109  0.7678
 5591TIP3   OH238331   1.021   5.075   2.224  0.3790 -0.1214 -0.4354
 5591TIP3    H138332   0.988   5.077   2.313  1.1233  1.3011 -0.1654
 5591TIP3    H238333   1.042   5.166   2.204  0.4702 -0.4526 -1.9702
 5592TIP3   OH238334   1.362   2.030   0.697 -0.5345 -0.4932 -0.3864
 5592TIP3    H138335   1.366   1.935   0.708 -0.6476 -0.6914 -1.8392
 5592TIP3    H238336   1.276   2.045   0.658 -1.2886  0.4221  1.4910
 5593TIP3   OH238337   0.027   5.177   7.452 -0.1190 -0.2596  0.1875
 5593TIP3    H138338  -0.023   5.101   7.422  0.1735  0.0059 -1.0707
 5593TIP3    H238339   0.113   5.165   7.411 -0.0234  0.6653  0.1019
 5594TIP3   OH238340   4.504   3.334   1.958 -0.1020  0.0245 -0.1540
 5594TIP3    H138341   4.422   3.313   2.002  0.0247  0.6686  0.4135
 5594TIP3    H238342   4.519   3.427   1.978  0.5203  0.0428 -0.6491
 5595TIP3   OH238343   4.083   3.125   8.084  0.3592  0.3444  0.3879
 5595TIP3    H138344   4.127   3.143   8.167 -0.9252  0.7298  1.0048
 5595TIP3    H238345   4.064   3.211   8.047  1.5946  0.1862 -0.7130
 5596TIP3   OH238346   3.558   5.396   8.445 -0.1649  0.1079  0.6904
 5596TIP3    H138347   3.554   5.341   8.367  1.6305  0.1962  0.4851
 5596TIP3    H238348   3.635   5.364   8.493 -1.0965  0.2118  2.3178
 5597TIP3   OH238349   1.601   5.011   0.482  0.4250  0.2308  0.6671
 5597TIP3    H138350   1.636   5.054   0.561 -1.1973  2.9200  0.0476
 5597TIP3    H238351   1.530   5.068   0.454 -0.4409 -1.8144 -1.5601
 5598TIP3   OH238352   2.470   0.628   0.569 -0.0103 -0.0853 -0.1610
 5598TIP3    H138353   2.484   0.541   0.531  1.2900  0.4096 -0.8659
 5598TIP3    H238354   2.548   0.678   0.545 -0.2829  0.9906  1.0847
 5599TIP3   OH238355   0.825   4.429   2.069 -0.2632  0.6110  0.6089
 5599TIP3    H138356   0.856   4.428   1.978  0.2144 -0.7646  0.7632
 5599TIP3    H238357   0.750   4.489   2.068 -1.0201 -0.3046 -0.9505
 5600TIP3   OH238358   1.399   4.568   1.238  0.4101 -0.6206 -0.0192
 5600TIP3    H138359   1.484   4.577   1.194 -0.1313  0.8847 -0.8468
 5600TIP3    H238360   1.347   4.641   1.204 -0.5595 -0.2957  2.0088
 5601TIP3   OH238361   5.885   3.046   7.204  0.5933  0.1734  0.0844
 5601TIP3    H138362   5.818   3.042   7.136 -0.6957  1.1320  1.2154
 5601TIP3    H238363   5.854   2.984   7.271  0.4875  1.0694  0.8858
 5602TIP3   OH238364   4.385   3.402   0.251 -0.2292 -0.0586 -0.0252
 5602TIP3    H138365   4.296   3.437   0.255 -0.0658  0.3187  0.4982
 5602TIP3    H238366   4.438   3.468   0.296  0.2675 -0.4248 -0.0676
 5603TIP3   OH238367   1.637   4.007   1.144  0.1149  0.7362 -0.2015
 5603TIP3    H138368   1.660   3.914   1.155  0.1403  0.7660 -0.0088
 5603TIP3    H238369   1.681   4.032   1.063  1.5708  1.0507  0.6586
 5604TIP3   OH238370   3.418   5.814   2.306  0.2803  0.6361 -0.1402
 5604TIP3    H138371   3.467   5.896   2.306 -0.0512  0.9414 -3.1470
 5604TIP3    H238372   3.436   5.775   2.221 -1.8135 -1.0372  0.0909
 5605TIP3   OH238373   3.475   1.915   2.808  0.2038  0.3569 -0.2515
 5605TIP3    H138374   3.440   1.916   2.719  0.3048  1.5417 -0.2919
 5605TIP3    H238375   3.524   1.834   2.813 -0.1301  0.0847 -1.1514
 5606TIP3   OH238376   1.438   2.481   1.213  0.2816  0.2228 -0.5935
 5606TIP3    H138377   1.349   2.491   1.245 -0.0518  0.8981 -1.6898
 5606TIP3    H238378   1.493   2.512   1.285 -0.4198  0.9548 -0.3639
 5607TIP3   OH238379   3.174   0.977   0.924  0.6717  0.5255  0.7055
 5607TIP3    H138380   3.156   0.885   0.948  0.6240  1.0947  3.1595
 5607TIP3    H238381   3.263   0.975   0.889  0.9684 -0.3599  1.4636
 5608TIP3   OH238382   6.413   2.065   6.894  0.7720 -0.3549  0.0258
 5608TIP3    H138383   6.412   2.029   6.806  0.5214  0.6142 -0.3765
 5608TIP3    H238384   6.320   2.072   6.918  0.8403 -0.7015  0.4122
 5609TIP3   OH238385   4.620   0.794   7.020 -0.1815 -0.3163  0.6366
 5609TIP3    H138386   4.605   0.876   6.973  1.4419 -0.4785 -0.2277
 5609TIP3    H238387   4.535   0.750   7.018 -0.5437  0.3667 -0.8374
 5610TIP3   OH238388   0.631   5.194   8.587  0.1719  0.0240 -0.0970
 5610TIP3    H138389   0.601   5.264   8.646  0.8136 -0.3805  0.7414
 5610TIP3    H238390   0.725   5.208   8.579 -0.0116  0.5274 -1.6802
 5611TIP3   OH238391   2.676   1.040   1.509 -0.1147  0.2445  0.6438
 5611TIP3    H138392   2.646   1.131   1.507  0.5769  0.5720  2.5095
 5611TIP3    H238393   2.770   1.045   1.493  0.1263  0.0197  1.8439
 5612TIP3   OH238394   3.886   5.839   8.188 -0.2660  0.3507 -0.3620
 5612TIP3    H138395   3.874   5.806   8.276 -0.9022 -0.6066 -0.7983
 5612TIP3    H238396   3.894   5.934   8.199  0.0772  0.2106  0.7495
 5613TIP3   OH238397   1.757   2.306   1.689  0.4073 -0.3260  0.2720
 5613TIP3    H138398   1.798   2.291   1.604  0.3926 -1.1724  0.4077
 5613TIP3    H238399   1.806   2.250   1.749  2.6292  2.6631  1.4987
 5614TIP3   OH238400   2.464   1.281   0.833 -0.0871  0.1335 -0.4229
 5614TIP3    H138401   2.512   1.199   0.847  0.7527 -0.0277 -3.4643
 5614TIP3    H238402   2.381   1.254   0.793 -0.2554  0.7002 -0.4649
 5615TIP3   OH238403   3.696   3.832   7.995  0.0740 -0.0090  0.1173
 5615TIP3    H138404   3.738   3.748   8.018  0.1348  0.1415  0.5643
 5615TIP3    H238405   3.603   3.811   7.987  0.3323 -0.5975 -2.0368
 5616TIP3   OH238406   2.536   3.356   1.360 -0.6031  0.3138 -0.5039
 5616TIP3    H138407   2.554   3.312   1.277 -2.4604 -0.9376 -0.2921
 5616TIP3    H238408   2.486   3.434   1.335  0.7988  1.1905 -0.6984
 5617TIP3   OH238409   4.071   2.713   0.553 -0.2214 -0.4399 -0.1011
 5617TIP3    H138410   4.044   2.688   0.641  0.4798  0.3951  0.3711
 5617TIP3    H238411   3.993   2.702   0.499 -0.7793 -0.5261  0.7104
 5618TIP3   OH238412   6.543   1.493   1.342 -0.4309 -0.3745 -0.4047
 5618TIP3    H138413   6.626   1.478   1.387  0.5417  2.8009 -0.8835
 5618TIP3    H238414   6.547   1.439   1.264 -0.0710 -2.3331  0.8997
 5619TIP3   OH238415   5.934   0.840   7.222 -0.4694  0.6034  0.4354
 5619TIP3    H138416   5.887   0.850   7.139  0.9494  0.6377 -0.3986
 5619TIP3    H238417   5.950   0.745   7.229  0.4189  0.7181  0.0732
 5620TIP3   OH238418   1.963   2.214   7.766  0.2603  0.8702 -0.0337
 5620TIP3    H138419   1.954   2.309   7.776  0.4273  0.8038  0.8120
 5620TIP3    H238420   2.055   2.196   7.784  0.4970  0.6671 -1.3211
 5621TIP3   OH238421   1.088   6.835   8.490 -0.7204  0.2727 -0.4276
 5621TIP3    H138422   1.139   6.764   8.529 -0.9286 -0.0220 -0.6787
 5621TIP3    H238423   1.003   6.831   8.534 -0.8158  0.2058 -0.6160
 5622TIP3   OH238424   0.666   0.327   3.104 -0.0906 -0.3331  0.2501
 5622TIP3    H138425   0.595   0.295   3.048  1.3412 -0.1708 -1.7879
 5622TIP3    H238426   0.624   0.346   3.187 -1.8754 -3.0661  0.1148
 5623TIP3   OH238427   4.629   0.707   6.748  0.3171  0.5236  0.3101
 5623TIP3    H138428   4.653   0.746   6.833 -0.0946 -0.6721  0.9954
 5623TIP3    H238429   4.632   0.781   6.687  1.2826  1.2854  1.2251
 5624TIP3   OH238430   0.751   0.441   7.403 -0.9490 -0.5316  0.4943
 5624TIP3    H138431   0.810   0.405   7.337 -0.3920 -0.3571  0.8899
 5624TIP3    H238432   0.719   0.364   7.450 -0.2700 -0.5764  0.9082
 5625TIP3   OH238433   5.266   2.994   8.184  0.0563  0.6631  0.1781
 5625TIP3    H138434   5.266   3.087   8.164  1.0217  0.2378 -1.9620
 5625TIP3    H238435   5.322   2.954   8.118  0.5791 -1.3240  1.7170
 5626TIP3   OH238436   4.962   3.210   1.473 -0.4306 -0.4591 -0.1550
 5626TIP3    H138437   5.027   3.140   1.478 -0.1931 -0.2951 -0.8198
 5626TIP3    H238438   4.885   3.170   1.434 -0.6143 -0.5672  0.3097
 5627TIP3   OH238439   4.524   0.748   2.434  0.4458 -0.7744 -0.2753
 5627TIP3    H138440   4.474   0.726   2.355 -0.2547 -2.0902  0.4982
 5627TIP3    H238441   4.463   0.796   2.489  0.3008 -1.5734  0.2790
 5628TIP3   OH238442   6.339   4.880   8.271  0.6935  0.3239 -0.4818
 5628TIP3    H138443   6.353   4.808   8.209 -0.6697  0.2892 -0.7933
 5628TIP3    H238444   6.321   4.956   8.215 -0.1984  0.3697 -0.1532
 5629TIP3   OH238445   1.605   1.515   7.796  0.1464 -0.0637 -0.0254
 5629TIP3    H138446   1.630   1.423   7.785 -0.7963 -0.3149 -0.2556
 5629TIP3    H238447   1.570   1.520   7.885  2.8507  0.7563  1.0677
 5630TIP3   OH238448   3.108   6.308   7.766  0.0982 -0.2480 -0.1280
 5630TIP3    H138449   3.161   6.307   7.687 -0.5230 -2.1336 -0.5609
 5630TIP3    H238450   3.049   6.233   7.758  0.0761 -0.5619  2.1654
 5631TIP3   OH238451   3.677   6.833   6.743  0.0983  0.6413 -0.3062
 5631TIP3    H138452   3.615   6.901   6.717 -1.8150 -0.7609  0.4120
 5631TIP3    H238453   3.721   6.809   6.661 -1.1114  0.9035 -1.0644
 5632TIP3   OH238454   3.949   4.388   7.248  0.2086  0.3264 -0.0609
 5632TIP3    H138455   3.909   4.460   7.298  1.8014  0.4159  1.1778
 5632TIP3    H238456   3.902   4.388   7.164 -1.6342  1.0622  0.9077
 5633TIP3   OH238457   2.761   3.830   2.130  0.0395  0.3223  0.1796
 5633TIP3    H138458   2.745   3.840   2.036  0.3042 -1.3334 -0.0716
 5633TIP3    H238459   2.848   3.790   2.135  0.2947  0.9622  1.1751
 5634TIP3   OH238460   0.951   6.429   0.508  0.3046 -0.1914  0.3161
 5634TIP3    H138461   1.047   6.426   0.508  0.2984 -0.5012  1.1140
 5634TIP3    H238462   0.924   6.345   0.545 -0.2601  0.2449  0.9140
 5635TIP3   OH238463   1.869   3.449   8.692 -0.0181 -0.3159  0.0342
 5635TIP3    H138464   1.819   3.517   8.739 -1.3405 -0.1631 -1.5033
 5635TIP3    H238465   1.951   3.443   8.740 -1.6175 -0.8547  2.9483
 5636TIP3   OH238466   4.680   2.088   0.777  0.0628  0.1645 -0.2064
 5636TIP3    H138467   4.677   2.052   0.689  0.3894  0.8141 -0.4882
 5636TIP3    H238468   4.651   2.179   0.768  3.3983  1.3843 -0.2990
 5637TIP3   OH238469   3.719   1.910   2.509  0.1956  0.3779 -0.0382
 5637TIP3    H138470   3.721   1.835   2.568 -0.6703 -0.0964 -0.5796
 5637TIP3    H238471   3.738   1.986   2.564 -0.6644 -0.0408  0.8679
 5638TIP3   OH238472   3.901   3.973   0.433 -0.1549 -0.5392  0.3647
 5638TIP3    H138473   3.826   3.987   0.375  0.2367  0.1049  0.0059
 5638TIP3    H238474   3.876   4.012   0.516 -0.3050 -0.5175  0.3084
 5639TIP3   OH238475   0.987   6.845   7.117  0.0342  0.3201 -0.4319
 5639TIP3    H138476   1.047   6.782   7.075  1.3896  0.6644  0.8927
 5639TIP3    H238477   1.001   6.927   7.069 -1.1886 -0.1503 -1.6748
 5640TIP3   OH238478   3.641   5.949   1.797  0.3628  0.2486 -0.4887
 5640TIP3    H138479   3.565   5.937   1.741 -0.4713  1.3529  0.3591
 5640TIP3    H238480   3.695   5.872   1.782 -1.1411 -0.7819 -0.7690
 5641TIP3   OH238481   1.496   4.809   0.683  0.3294 -0.9182  0.4350
 5641TIP3    H138482   1.512   4.738   0.622 -0.5030 -0.9020  0.1893
 5641TIP3    H238483   1.550   4.881   0.651  0.0953 -0.9911 -0.1357
 5642TIP3   OH238484   5.414   3.217   0.001  0.0825  0.1301  0.1205
 5642TIP3    H138485   5.483   3.167   0.045  0.6758  0.3652 -0.5217
 5642TIP3    H238486   5.335   3.197   0.050  0.6112 -0.1310  0.8884
 5643TIP3   OH238487   2.494   6.456   7.842 -0.3991  0.6785  0.0917
 5643TIP3    H138488   2.467   6.449   7.750 -1.5222 -0.1640  0.4575
 5643TIP3    H238489   2.565   6.392   7.851  0.8437  1.9168 -0.5524
 5644TIP3   OH238490   5.971   2.562   6.571  0.1836  0.4846  0.4741
 5644TIP3    H138491   5.938   2.580   6.483  1.9268  2.4850  0.1456
 5644TIP3    H238492   5.907   2.502   6.609  0.3990 -2.1641 -2.8543
 5645TIP3   OH238493   4.491   5.156   2.664  0.5999 -0.4710 -0.3406
 5645TIP3    H138494   4.460   5.236   2.705 -0.5724  1.1675 -3.9654
 5645TIP3    H238495   4.587   5.161   2.671  0.4596 -0.5154  2.3341
 5646TIP3   OH238496   1.555   2.876   8.581 -0.1430 -0.0324  0.1276
 5646TIP3    H138497   1.640   2.870   8.536 -0.4917 -1.7738 -0.4187
 5646TIP3    H238498   1.565   2.821   8.658 -0.5409  0.3633  0.4621
 5647TIP3   OH238499   5.349   3.403   1.210  0.2417  0.2088 -0.2590
 5647TIP3    H138500   5.297   3.423   1.132  0.8182 -0.2456 -0.7642
 5647TIP3    H238501   5.328   3.474   1.271 -0.2791  0.5227 -0.7924
 5648TIP3   OH238502   3.610   3.474   2.009 -0.1179  0.2372 -0.4760
 5648TIP3    H138503   3.614   3.432   2.095  2.1837 -1.6744 -1.4094
 5648TIP3    H238504   3.536   3.432   1.965 -0.5837  0.3953  0.1402
 5649TIP3   OH238505   5.240   6.540   0.577 -0.3504  0.1984  0.4758
 5649TIP3    H138506   5.290   6.616   0.606 -0.3446 -0.3192  1.9206
 5649TIP3    H238507   5.292   6.465   0.605  0.6099 -0.4049 -2.6200
 5650TIP3   OH238508   6.846   2.233   7.325 -0.3671 -0.2860 -0.5637
 5650TIP3    H138509   6.822   2.142   7.342 -1.8928  0.4463  1.5545
 5650TIP3    H238510   6.942   2.231   7.315  0.0210 -1.7470  2.5293
 5651TIP3   OH238511   6.057   4.843   1.719  1.1874 -0.1482 -0.1533
 5651TIP3    H138512   6.101   4.780   1.775 -2.0670 -0.7779  2.0210
 5651TIP3    H238513   6.056   4.924   1.770 -1.8053 -0.7203  0.9383
 5652TIP3   OH238514   6.544   0.310   7.257  0.0767 -0.0136  0.2709
 5652TIP3    H138515   6.540   0.236   7.317 -0.9501  1.1170  1.6326
 5652TIP3    H238516   6.456   0.315   7.219  0.1700  0.4663  0.1144
 5653TIP3   OH238517   3.373   6.831   0.711 -0.0824 -0.1452 -0.2835
 5653TIP3    H138518   3.314   6.833   0.636 -0.0392 -0.8347 -0.3387
 5653TIP3    H238519   3.349   6.752   0.760 -0.3621  0.4907  0.6373
 5654TIP3   OH238520   0.907   6.359   0.205  0.4803  0.2100 -0.4290
 5654TIP3    H138521   0.914   6.398   0.118  0.7794 -2.3807 -1.6606
 5654TIP3    H238522   0.995   6.367   0.242  1.1564 -1.2819 -1.6172
 5655TIP3   OH238523   5.555   2.168   0.974  0.1019 -0.3130  0.0217
 5655TIP3    H138524   5.556   2.072   0.982  0.4860 -0.3919 -0.8652
 5655TIP3    H238525   5.619   2.187   0.906 -0.4326  0.5326 -0.2642
 5656TIP3   OH238526   1.975   1.860   1.279  0.2387 -0.4825  0.2208
 5656TIP3    H138527   2.068   1.879   1.265  0.1285 -0.9608 -1.3691
 5656TIP3    H238528   1.954   1.796   1.212 -1.9299  1.7127 -1.3491
 5657TIP3   OH238529   2.647   0.860   8.018  0.1910  1.0528 -0.3100
 5657TIP3    H138530   2.648   0.861   7.922  1.4232  2.0168 -0.3045
 5657TIP3    H238531   2.688   0.777   8.042 -1.4682  0.1068 -0.5938
 5658TIP3   OH238532   0.136   6.302   1.902  0.4968 -0.6014 -0.4697
 5658TIP3    H138533   0.058   6.252   1.925  0.8894 -1.1980 -0.4337
 5658TIP3    H238534   0.102   6.388   1.877  0.0087 -0.0637  1.8197
 5659TIP3   OH238535   1.622   3.456   7.993  0.1465  0.0601 -0.0832
 5659TIP3    H138536   1.528   3.438   7.991  0.1637 -0.0222 -0.1629
 5659TIP3    H238537   1.629   3.549   7.971 -0.0229  0.4758  1.4958
 5660TIP3   OH238538   1.805   4.131   8.509 -0.0475  0.1360  0.2356
 5660TIP3    H138539   1.786   4.196   8.442  0.2994 -0.1865 -0.1866
 5660TIP3    H238540   1.875   4.170   8.562 -1.4769  1.1155  1.4879
 5661TIP3   OH238541   0.232   3.396   0.509 -0.1670  0.2282  0.5884
 5661TIP3    H138542   0.215   3.329   0.443 -0.1719 -0.0488  0.8682
 5661TIP3    H238543   0.327   3.400   0.517 -0.0051  2.1336 -1.3399
 5662TIP3   OH238544   2.728   3.837   1.867  0.1017 -0.4862  0.3012
 5662TIP3    H138545   2.656   3.833   1.805 -0.3007 -0.5649  0.7626
 5662TIP3    H238546   2.777   3.916   1.844 -0.0380 -0.5214 -0.1135
 5663TIP3   OH238547   6.140   2.391   1.134 -0.2404 -0.3474  0.1867
 5663TIP3    H138548   6.212   2.450   1.111  0.7749 -2.0886 -1.4434
 5663TIP3    H238549   6.084   2.443   1.192  0.9785  1.9287 -0.5264
 5664TIP3   OH238550   0.631   0.642   1.395  0.6170 -0.3160 -0.3747
 5664TIP3    H138551   0.694   0.712   1.383  1.9002 -1.3220  0.2617
 5664TIP3    H238552   0.670   0.585   1.461 -2.1948  0.4518  2.1984
 5665TIP3   OH238553   6.574   1.170   1.526 -0.5647  0.3378 -0.0904
 5665TIP3    H138554   6.569   1.190   1.619  0.4445 -0.4678  0.1606
 5665TIP3    H238555   6.554   1.252   1.482 -0.1902  0.9350  0.8393
 5666TIP3   OH238556   1.462   4.845   2.017 -0.0719 -0.1188 -0.5620
 5666TIP3    H138557   1.393   4.906   1.991  1.1999  0.3190 -3.2671
 5666TIP3    H238558   1.428   4.758   1.996 -1.1551 -0.2552  1.5479
 5667TIP3   OH238559   4.037   2.699   7.929 -0.4215  0.1095  0.2151
 5667TIP3    H138560   3.975   2.772   7.937 -0.1529  0.2224  1.5385
 5667TIP3    H238561   3.994   2.626   7.973 -0.0982 -0.1334  0.1300
 5668TIP3   OH238562   3.264   1.346   8.676 -0.2823  0.6120 -0.0991
 5668TIP3    H138563   3.251   1.430   8.719 -2.0433  0.2674  0.1163
 5668TIP3    H238564   3.281   1.285   8.748  1.0837  0.7656 -0.2616
 5669TIP3   OH238565   4.848   5.629   1.389  0.3578 -0.5644  0.1461
 5669TIP3    H138566   4.796   5.561   1.345  1.0359 -0.1919 -1.3085
 5669TIP3    H238567   4.911   5.656   1.323 -0.9831  2.7234  0.0291
 5670TIP3   OH238568   5.427   3.495   0.507  0.5909 -0.1131 -0.8325
 5670TIP3    H138569   5.395   3.573   0.462  0.5549  1.1425  1.2809
 5670TIP3    H238570   5.391   3.501   0.595 -0.0101 -2.9172 -0.7956
 5671TIP3   OH238571   1.250   1.558   8.285 -0.1556 -0.2295  0.5767
 5671TIP3    H138572   1.215   1.642   8.255  0.9564  0.0777  0.0925
 5671TIP3    H238573   1.234   1.498   8.212 -3.3411 -1.1815  1.8810
 5672TIP3   OH238574   4.359   3.043   7.641  0.8769  0.1323  0.4530
 5672TIP3    H138575   4.407   3.125   7.652 -0.6879  1.1574 -0.0958
 5672TIP3    H238576   4.349   3.009   7.730 -0.0815  1.5174  0.9101
 5673TIP3   OH238577   4.506   5.830   7.778  0.8332  0.5560  0.0347
 5673TIP3    H138578   4.572   5.813   7.846 -0.7630  1.3921  1.8816
 5673TIP3    H238579   4.557   5.857   7.701  2.8030 -1.9151  0.3365
 5674TIP3   OH238580   4.153   3.057   0.801 -0.1641 -0.1260  0.2098
 5674TIP3    H138581   4.101   3.118   0.749 -2.1780  0.4565  2.6954
 5674TIP3    H238582   4.226   3.109   0.834 -1.4684  0.7949  1.7235
 5675TIP3   OH238583   5.455   0.843   8.354 -0.1268  0.1808 -0.2530
 5675TIP3    H138584   5.416   0.920   8.395 -0.6050 -0.2903  0.1924
 5675TIP3    H238585   5.387   0.775   8.360  0.7795 -0.6856  0.6144
 5676TIP3   OH238586   1.757   0.188   2.555  0.3733  0.2064 -0.2884
 5676TIP3    H138587   1.759   0.097   2.586 -2.0931  0.9374  2.4707
 5676TIP3    H238588   1.840   0.225   2.584  1.3901 -1.0819 -1.3952
 5677TIP3   OH238589   4.638   2.768   7.698 -0.8058 -0.0058  0.5775
 5677TIP3    H138590   4.663   2.856   7.726 -0.9770  0.1410  0.2797
 5677TIP3    H238591   4.714   2.713   7.718 -1.5571 -0.2748  2.9905
 5678TIP3   OH238592   3.396   2.480   7.641  0.0948  0.0214 -0.2381
 5678TIP3    H138593   3.404   2.576   7.643  1.0526 -0.0038 -1.4611
 5678TIP3    H238594   3.304   2.464   7.619  0.0856  0.6936 -0.7297
 5679TIP3   OH238595   6.666   0.739   1.990 -0.4070  0.0802  0.0943
 5679TIP3    H138596   6.653   0.734   1.895  3.0777  1.1460 -0.5499
 5679TIP3    H238597   6.650   0.831   2.012 -4.4343 -0.6920  1.2845
 5680TIP3   OH238598   5.950   2.058   2.524  0.1230  0.1428 -0.3544
 5680TIP3    H138599   6.019   2.041   2.588  0.9603  0.1096 -1.2314
 5680TIP3    H238600   5.945   2.153   2.519 -0.4053  0.1494  0.2326
 5681TIP3   OH238601   4.893   1.165   8.347 -0.1020 -0.2105  0.0281
 5681TIP3    H138602   4.948   1.234   8.383 -0.2262 -1.6189  3.1985
 5681TIP3    H238603   4.954   1.106   8.302  0.1750  1.1173 -1.4126
 5682TIP3   OH238604   0.308   2.071   0.399 -0.3973  0.2655 -0.5731
 5682TIP3    H138605   0.386   2.097   0.350  0.1640  1.4088  0.8605
 5682TIP3    H238606   0.262   2.153   0.418 -1.5894 -0.3254 -0.7854
 5683TIP3   OH238607   0.563   3.931   1.502  0.0201 -1.1544 -0.4851
 5683TIP3    H138608   0.632   3.966   1.444 -0.3648 -0.1907 -0.3760
 5683TIP3    H238609   0.547   3.843   1.469  1.5592 -1.5398 -0.2941
 5684TIP3   OH238610   4.940   4.181   8.673  0.1433  0.3435  0.0756
 5684TIP3    H138611   4.918   4.128   8.597  0.5281  1.7827 -1.0717
 5684TIP3    H238612   5.036   4.185   8.673  0.1298  0.7250  0.3736
 5685TIP3   OH238613   0.675   3.896   1.758 -0.1687  0.6499  0.0770
 5685TIP3    H138614   0.630   3.903   1.674  1.9456 -0.3115 -1.2415
 5685TIP3    H238615   0.681   3.985   1.791 -0.0708  1.2000 -1.3699
 5686TIP3   OH238616   0.025   3.888   1.394 -0.1476  0.3952  0.3738
 5686TIP3    H138617  -0.051   3.938   1.424 -0.8122 -0.8003  0.7711
 5686TIP3    H238618   0.013   3.882   1.299  0.0775  1.1952  0.2903
 5687TIP3   OH238619   0.618   2.504   8.039 -0.1483 -0.1567  0.0264
 5687TIP3    H138620   0.697   2.540   7.999  0.7190  1.2935  2.8046
 5687TIP3    H238621   0.642   2.416   8.068 -0.1092 -0.3652 -0.6215
 5688TIP3   OH238622   4.788   1.629   7.598  0.0504 -0.0680 -0.5741
 5688TIP3    H138623   4.870   1.649   7.554  1.8060 -1.9199  1.6228
 5688TIP3    H238624   4.762   1.543   7.564  0.0237 -0.3173  0.0482
 5689TIP3   OH238625   2.957   2.133   1.623 -0.0124  0.6062 -0.4648
 5689TIP3    H138626   2.978   2.066   1.557 -0.4921 -2.3467  2.1435
 5689TIP3    H238627   2.862   2.125   1.635  0.0891  0.9434  0.6921
 5690TIP3   OH238628   6.722   0.618   0.601  0.5572  0.2985 -0.4219
 5690TIP3    H138629   6.758   0.694   0.555  0.6779 -0.0962 -0.9793
 5690TIP3    H238630   6.759   0.625   0.689 -0.0635  1.3273 -0.2161
 5691TIP3   OH238631   0.597   4.670   2.514  0.0564  0.1799  0.3641
 5691TIP3    H138632   0.567   4.579   2.515  0.0896  0.1207  2.9445
 5691TIP3    H238633   0.518   4.721   2.533  0.1412  0.6788 -0.5660
 5692TIP3   OH238634   5.111   2.277   0.526 -0.0676  0.1958 -0.0734
 5692TIP3    H138635   5.168   2.261   0.601 -0.3439 -0.4325  0.0089
 5692TIP3    H238636   5.171   2.305   0.457  0.1141  1.3892  0.5526
 5693TIP3   OH238637   4.852   4.394   1.674  0.1427 -0.4965  0.0699
 5693TIP3    H138638   4.820   4.324   1.617 -2.3965  1.4867 -1.1735
 5693TIP3    H238639   4.791   4.395   1.748 -0.5547  1.0262 -0.4741
 5694TIP3   OH238640   6.041   3.740   2.682  0.8584 -0.0414 -0.3074
 5694TIP3    H138641   5.986   3.691   2.621  2.4891 -3.0979  0.4762
 5694TIP3    H238642   5.980   3.799   2.726 -1.0029 -0.3283 -2.3354
 5695TIP3   OH238643   3.402   1.906   0.522 -0.7004  0.3827  0.1549
 5695TIP3    H138644   3.319   1.954   0.525 -0.5592  0.7270 -1.0281
 5695TIP3    H238645   3.443   1.926   0.607 -2.0328 -0.2146  0.9779
 5696TIP3   OH238646   2.990   5.882   2.230 -0.0680  0.6152  0.0503
 5696TIP3    H138647   3.077   5.920   2.245 -0.9033  2.7971 -0.3705
 5696TIP3    H238648   2.930   5.956   2.230 -1.6168 -0.4870 -2.3345
 5697TIP3   OH238649   1.467   4.617   8.195 -0.6341 -0.8570 -0.0965
 5697TIP3    H138650   1.456   4.711   8.181 -1.1698 -1.1070 -1.4945
 5697TIP3    H238651   1.523   4.610   8.273  1.0988  0.6333 -1.1417
 5698TIP3   OH238652   1.080   2.923   8.160  0.2802 -0.3531 -0.6600
 5698TIP3    H138653   0.993   2.893   8.131  1.0269 -0.5891 -2.8398
 5698TIP3    H238654   1.111   2.853   8.218 -0.4359 -0.9257 -0.9509
 5699TIP3   OH238655   1.809   0.484   1.753 -0.4956  0.3360  0.1467
 5699TIP3    H138656   1.784   0.462   1.663 -2.4591 -0.7642  0.9023
 5699TIP3    H238657   1.777   0.573   1.765 -0.6363  0.3182 -0.0832
 5700TIP3   OH238658   0.586   4.868   8.094  0.4000  0.5789 -0.8963
 5700TIP3    H138659   0.606   4.859   8.187  0.0141 -0.1904 -0.8838
 5700TIP3    H238660   0.641   4.803   8.051 -1.6199 -1.2003 -0.9077
 5701TIP3   OH238661   6.660   5.771   7.564 -0.8854  0.2115 -0.8059
 5701TIP3    H138662   6.604   5.815   7.628 -0.3021 -0.6117  0.3236
 5701TIP3    H238663   6.744   5.817   7.569 -0.1191 -1.2358  0.7359
 5702TIP3   OH238664   1.383   4.566   2.899  0.6311 -0.8063 -0.0323
 5702TIP3    H138665   1.477   4.572   2.881  0.0759  0.6570 -3.1039
 5702TIP3    H238666   1.350   4.654   2.883 -1.5206 -1.6802 -0.7470
 5703TIP3   OH238667   6.628   2.767   1.637  0.3596  0.1417  0.4185
 5703TIP3    H138668   6.672   2.825   1.574 -0.4297 -0.2000 -0.4691
 5703TIP3    H238669   6.700   2.720   1.679  0.8928  0.1080 -0.4988
 5704TIP3   OH238670   3.624   0.015   0.400 -0.1577 -0.2557 -0.3471
 5704TIP3    H138671   3.544   0.026   0.349 -0.6844  1.0113  0.6951
 5704TIP3    H238672   3.616   0.078   0.472  1.9646  0.2098 -0.4460
 5705TIP3   OH238673   4.361   1.927   7.174 -0.5608 -0.0471 -0.5879
 5705TIP3    H138674   4.369   2.014   7.215  1.0423 -0.7976  0.7635
 5705TIP3    H238675   4.444   1.914   7.128 -0.9604 -0.7022 -1.1392
 5706TIP3   OH238676   1.860   2.360   7.109  0.4126 -0.6739 -1.1203
 5706TIP3    H138677   1.876   2.348   7.203 -1.0793  0.9834 -0.5807
 5706TIP3    H238678   1.770   2.329   7.096 -0.7759  2.3677 -1.1570
 5707TIP3   OH238679   0.223   1.782   7.374  0.1968 -0.1946  0.1741
 5707TIP3    H138680   0.259   1.845   7.311  0.5651 -0.6060 -0.0316
 5707TIP3    H238681   0.132   1.772   7.348  0.7629 -1.7166 -1.4347
 5708TIP3   OH238682   0.132   3.537   7.862  0.0590  0.4642  0.0268
 5708TIP3    H138683   0.144   3.456   7.813 -0.7114  0.8528 -0.8265
 5708TIP3    H238684   0.215   3.551   7.907  1.3102  0.8605 -2.2967
 5709TIP3   OH238685   6.288   0.911   2.669 -0.2075  0.0753 -0.6444
 5709TIP3    H138686   6.290   0.815   2.664  1.7206  0.0923 -0.9269
 5709TIP3    H238687   6.213   0.930   2.725  0.9393 -1.7342  1.7153
 5710TIP3   OH238688   2.770   1.030   7.059  0.2080 -0.1165 -0.2432
 5710TIP3    H138689   2.787   1.113   7.016 -1.6202  0.3768 -0.0902
 5710TIP3    H238690   2.822   1.034   7.139 -1.7886  2.0499  1.0681
 5711TIP3   OH238691   0.922   5.728   1.005  0.0326 -0.0379  0.1768
 5711TIP3    H138692   0.854   5.675   1.046 -1.7126 -0.5908 -3.1055
 5711TIP3    H238693   0.969   5.667   0.948  1.1974  0.9979 -0.0191
 5712TIP3   OH238694   0.577   3.048   8.532  0.2001 -0.2612 -0.3546
 5712TIP3    H138695   0.645   3.048   8.465  1.6193  2.7773  0.8832
 5712TIP3    H238696   0.624   3.048   8.615 -1.4609 -1.9637  0.6760
 5713TIP3   OH238697   3.800   4.399   2.435  0.1645  0.9242  0.8584
 5713TIP3    H138698   3.801   4.390   2.340  1.8321  1.2247  0.8132
 5713TIP3    H238699   3.867   4.338   2.466 -0.6530  0.5090  1.8887
 5714TIP3   OH238700   2.995   2.605   1.614  0.7594 -0.3879 -0.5014
 5714TIP3    H138701   2.921   2.553   1.645  0.8361 -0.1434  0.1109
 5714TIP3    H238702   2.959   2.692   1.597  0.7998 -0.4112 -0.7057
 5715TIP3   OH238703   3.990   6.619   1.490  0.3179 -0.1992 -0.4008
 5715TIP3    H138704   3.921   6.553   1.484  1.4533 -1.4020 -0.9241
 5715TIP3    H238705   3.979   6.673   1.412  2.0332 -2.5808 -2.4636
 5716TIP3   OH238706   5.174   0.137   7.290  0.1023  0.3093  0.1084
 5716TIP3    H138707   5.215   0.202   7.347  1.1293  0.6869 -1.0290
 5716TIP3    H238708   5.189   0.169   7.201  0.7857 -1.5285 -0.5027
 5717TIP3   OH238709   6.379   2.792   1.468  0.1136 -0.1192 -0.0677
 5717TIP3    H138710   6.445   2.743   1.419  0.8559 -0.0780  0.8454
 5717TIP3    H238711   6.428   2.832   1.540 -0.8791  0.0719  0.5273
 5718TIP3   OH238712   5.736   5.506   7.885  0.2940  0.1985 -0.4156
 5718TIP3    H138713   5.825   5.532   7.864  0.8091 -0.7377  0.5352
 5718TIP3    H238714   5.687   5.588   7.890  1.0333  0.7000 -1.1877
 5719TIP3   OH238715   3.950   2.861   7.226 -0.1522  0.9942  0.2376
 5719TIP3    H138716   3.879   2.878   7.287 -0.5083 -3.3184  1.3531
 5719TIP3    H238717   3.912   2.875   7.139 -2.0834 -0.0501  0.8582
 5720TIP3   OH238718   5.153   0.253   0.269  0.1257  0.2887 -0.3195
 5720TIP3    H138719   5.197   0.333   0.296  2.4161 -1.2159  0.7710
 5720TIP3    H238720   5.141   0.262   0.175  1.0764  1.5778 -0.3495
 5721TIP3   OH238721   1.814   6.410   0.762 -0.6199 -0.3024 -1.0034
 5721TIP3    H138722   1.825   6.438   0.671 -2.0831 -1.0343 -1.4346
 5721TIP3    H238723   1.720   6.397   0.772 -0.3204 -1.8243  0.1370
 5722TIP3   OH238724   6.389   4.211   7.098  0.3537 -0.1010  0.4506
 5722TIP3    H138725   6.316   4.272   7.097  1.2531  1.0477 -1.7871
 5722TIP3    H238726   6.465   4.265   7.121  0.6705 -1.0936  1.8429
 5723TIP3   OH238727   1.501   3.501   8.453  0.5284 -0.3238  0.1954
 5723TIP3    H138728   1.520   3.433   8.518  0.1963  0.2778  0.9334
 5723TIP3    H238729   1.569   3.567   8.467  0.5217 -0.2427 -0.1497
 5724TIP3   OH238730   5.192   2.730   8.604  0.0547 -0.2039  0.0499
 5724TIP3    H138731   5.185   2.781   8.523  0.9279  0.5399  0.4214
 5724TIP3    H238732   5.286   2.730   8.624  0.0742 -1.8881  0.1242
 5725TIP3   OH238733   1.398   0.052   1.558  0.1132  0.4436 -0.0815
 5725TIP3    H138734   1.395   0.009   1.643 -3.0990  0.9715  0.1845
 5725TIP3    H238735   1.450   0.131   1.572  1.0020 -0.2943  0.9376
 5726TIP3   OH238736   3.826   1.627   0.065  0.5059 -0.3623  0.0479
 5726TIP3    H138737   3.908   1.589   0.094  0.9170 -1.5387 -2.3754
 5726TIP3    H238738   3.759   1.569   0.100  0.6915  0.3765  1.6976
 5727TIP3   OH238739   2.191   3.146   7.390  0.4453 -0.8045  0.3718
 5727TIP3    H138740   2.216   3.141   7.298 -0.5070 -0.9893  0.1081
 5727TIP3    H238741   2.269   3.118   7.438  0.7116 -1.4390 -0.4076
 5728TIP3   OH238742   1.468   3.093   8.406  0.2562  0.0005 -0.4002
 5728TIP3    H138743   1.432   3.131   8.486 -2.7243 -0.9037 -1.1647
 5728TIP3    H238744   1.508   3.011   8.435 -2.0696 -1.0573  0.1169
 5729TIP3   OH238745   0.100   4.154   2.931 -0.0349  0.2835 -0.5213
 5729TIP3    H138746   0.127   4.243   2.954  0.1138  0.3737 -1.0256
 5729TIP3    H238747   0.077   4.159   2.838  1.0256 -0.4406 -0.8472
 5730TIP3   OH238748   3.108   1.585   7.804 -0.1016  0.6898  0.0740
 5730TIP3    H138749   3.063   1.627   7.877 -0.1979  2.3016 -0.8484
 5730TIP3    H238750   3.195   1.626   7.803  0.9971 -1.4827  1.0749
 5731TIP3   OH238751   1.010   3.819   8.064  0.2216 -0.3324  0.2662
 5731TIP3    H138752   0.967   3.853   7.985  1.3208 -0.5458 -0.4396
 5731TIP3    H238753   0.962   3.860   8.136  0.6294  1.6735 -0.5355
 5732TIP3   OH238754   2.251   1.206   0.648 -0.2329 -0.1443 -0.0071
 5732TIP3    H138755   2.229   1.217   0.556  0.5355  0.9039 -0.0862
 5732TIP3    H238756   2.209   1.279   0.693 -0.4000 -0.5095  0.4407
 5733TIP3   OH238757   5.727   6.422   6.981  0.1308  0.0050 -0.3369
 5733TIP3    H138758   5.782   6.462   6.914 -0.8097  0.8355 -0.6419
 5733TIP3    H238759   5.703   6.337   6.944  0.6946 -0.1049 -0.4656
 5734TIP3   OH238760   0.498   1.248   2.072 -0.6920 -0.0299 -0.4307
 5734TIP3    H138761   0.466   1.338   2.060 -2.1372 -0.5786 -0.9841
 5734TIP3    H238762   0.444   1.213   2.143 -0.6226 -0.6687 -0.6905
 5735TIP3   OH238763   2.305   4.292   1.003  0.1367  0.0355 -0.5585
 5735TIP3    H138764   2.308   4.326   0.914  0.7822  0.9277 -0.2061
 5735TIP3    H238765   2.395   4.300   1.035 -0.4615  1.6649  0.8641
 5736TIP3   OH238766   2.014   1.392   8.092  0.0153  0.0596  0.6410
 5736TIP3    H138767   1.992   1.332   8.020  0.5060  1.1498 -0.4553
 5736TIP3    H238768   2.038   1.473   8.048 -0.1774  0.9209  2.0816
 5737TIP3   OH238769   6.403   1.622   7.035  0.1121 -0.2931  0.0525
 5737TIP3    H138770   6.425   1.688   7.101 -0.8356  0.0869 -0.0109
 5737TIP3    H238771   6.321   1.651   6.997  0.1339 -1.0463 -0.6024
 5738TIP3   OH238772   5.840   4.503   8.230 -0.1599 -0.0525  0.2816
 5738TIP3    H138773   5.891   4.456   8.164  0.5780  0.6388  0.3342
 5738TIP3    H238774   5.903   4.565   8.268 -0.2351 -1.2038  2.4417
 5739TIP3   OH238775   3.824   5.401   0.463  0.0876  0.4372  0.0554
 5739TIP3    H138776   3.758   5.333   0.447 -0.4178  0.7986  0.5852
 5739TIP3    H238777   3.781   5.482   0.436  1.3601  0.3864 -2.4980
 5740TIP3   OH238778   2.178   6.051   1.736  0.2065  0.0407 -0.2267
 5740TIP3    H138779   2.133   6.091   1.662 -1.8660  0.4001  1.1329
 5740TIP3    H238780   2.210   5.967   1.703  2.4620  1.6390 -2.4439
 5741TIP3   OH238781   3.578   1.904   8.493 -0.3068 -0.0918  0.9238
 5741TIP3    H138782   3.505   1.959   8.522  0.5930  1.8093 -0.2314
 5741TIP3    H238783   3.642   1.909   8.565  0.3565  1.5829  0.2699
 5742TIP3   OH238784   3.288   0.745   1.063  0.6365 -0.1963  0.2905
 5742TIP3    H138785   3.367   0.761   1.011  1.2040 -0.8431  0.9217
 5742TIP3    H238786   3.295   0.653   1.089 -0.5488 -0.3864  0.0055
 5743TIP3   OH238787   2.549   1.111   8.094  0.1998  0.1949 -0.1525
 5743TIP3    H138788   2.476   1.126   8.033  0.7559  1.2603 -0.5913
 5743TIP3    H238789   2.579   1.022   8.074 -1.7040 -0.7267  0.8466
 5744TIP3   OH238790   3.353   1.844   1.593 -0.7053  0.0833  0.3990
 5744TIP3    H138791   3.297   1.773   1.562 -0.2326 -0.4284  0.6910
 5744TIP3    H238792   3.295   1.920   1.599 -1.4776 -0.5460  1.1354
 5745TIP3   OH238793   6.242   4.589   7.852  0.4091  0.2135  0.2117
 5745TIP3    H138794   6.151   4.560   7.841 -0.1235  1.9822 -0.4229
 5745TIP3    H238795   6.294   4.509   7.845 -0.9581 -0.5856 -1.4181
 5746TIP3   OH238796   6.448   0.595   2.059  0.2298  0.4659  0.3602
 5746TIP3    H138797   6.409   0.610   2.145  0.6014  2.4052  0.2191
 5746TIP3    H238798   6.515   0.663   2.051  0.7454 -0.1913 -1.1421
 5747TIP3   OH238799   3.942   2.788   1.040 -0.7993 -0.1848  0.2150
 5747TIP3    H138800   3.892   2.865   1.066 -0.7017 -0.2002  0.4566
 5747TIP3    H238801   3.884   2.714   1.058 -1.3839 -0.0955 -1.2261
 5748TIP3   OH238802   4.198   6.584   1.209  0.3276  0.0426  0.2113
 5748TIP3    H138803   4.248   6.622   1.280  0.3186  3.1250 -1.2925
 5748TIP3    H238804   4.113   6.626   1.213 -0.6483 -1.7847 -0.0100
 5749TIP3   OH238805   3.517   2.504   8.512 -0.0430 -0.1849 -0.0918
 5749TIP3    H138806   3.515   2.429   8.454 -0.0549 -0.4423  0.2367
 5749TIP3    H238807   3.460   2.479   8.585 -1.0686  0.6332 -0.5770
 5750TIP3   OH238808   6.709   4.787   8.539  0.2503 -0.3827 -0.3402
 5750TIP3    H138809   6.752   4.869   8.517  0.3889 -0.0945  0.9001
 5750TIP3    H238810   6.625   4.813   8.578  0.2172 -0.8247 -0.0998
 5751TIP3   OH238811   4.566   6.738   0.334 -0.6695  0.5365  0.5325
 5751TIP3    H138812   4.583   6.819   0.286  0.6313  0.7101  1.2486
 5751TIP3    H238813   4.540   6.767   0.421 -0.3569  0.1866  0.7427
 5752TIP3   OH238814   2.976   1.352   8.671 -0.1101  0.5463  0.2058
 5752TIP3    H138815   2.943   1.283   8.614  0.5178  0.4409 -0.0345
 5752TIP3    H238816   3.069   1.333   8.682 -0.1594  0.7336  1.0268
 5753TIP3   OH238817   0.132   5.011   1.228  0.0646  0.4999 -0.0872
 5753TIP3    H138818   0.224   5.028   1.248  0.5757  0.7232 -2.3150
 5753TIP3    H238819   0.135   4.964   1.144 -1.8823  1.6384 -0.8415
 5754TIP3   OH238820   5.471   2.180   7.521 -0.0385  0.6706  0.0885
 5754TIP3    H138821   5.395   2.233   7.545 -0.0684  1.8748 -2.3931
 5754TIP3    H238822   5.436   2.110   7.466  0.4057 -0.1293  0.7907
 5755TIP3   OH238823   1.515   6.284   0.460 -0.0743 -0.4892  0.1035
 5755TIP3    H138824   1.588   6.257   0.405  0.9827 -0.1312  1.2691
 5755TIP3    H238825   1.464   6.344   0.406  1.1203  0.1166 -0.3765
 5756TIP3   OH238826   3.145   3.573   0.051 -0.0979  0.4469 -0.2338
 5756TIP3    H138827   3.069   3.550  -0.003  1.0775 -0.9895 -1.3928
 5756TIP3    H238828   3.110   3.589   0.138 -1.7208 -0.2012 -0.7404
 5757TIP3   OH238829   4.096   5.056   7.664 -0.3741  0.1029  0.1440
 5757TIP3    H138830   4.172   5.113   7.650 -0.5280 -0.2280 -2.5538
 5757TIP3    H238831   4.129   4.986   7.720  0.5418  1.3590  1.2494
 5758TIP3   OH238832   6.074   1.450   0.299  0.5833 -0.9519  0.5653
 5758TIP3    H138833   6.073   1.527   0.242  2.3141 -1.3423 -0.0477
 5758TIP3    H238834   6.062   1.485   0.387 -1.5326 -0.2803  0.0595
 5759TIP3   OH238835   5.953   2.030   1.898 -0.4665  0.2583  0.0081
 5759TIP3    H138836   5.975   1.943   1.932 -1.8961 -0.2923 -0.4307
 5759TIP3    H238837   5.913   2.013   1.813 -1.2736  1.3070  0.1616
 5760TIP3   OH238838   2.199   1.781   2.515  0.1749 -0.0558  0.0880
 5760TIP3    H138839   2.236   1.704   2.471  0.9534  0.3619  0.0041
 5760TIP3    H238840   2.154   1.745   2.591 -0.2371 -0.6810 -0.4344
 5761TIP3   OH238841   5.320   4.313   0.946  0.0553  0.0950  0.6652
 5761TIP3    H138842   5.284   4.401   0.931 -0.3149 -0.1927 -0.2511
 5761TIP3    H238843   5.402   4.312   0.897 -0.9438 -0.7150 -1.0813
 5762TIP3   OH238844   2.055   0.545   0.790  0.1504 -0.0360 -1.1011
 5762TIP3    H138845   2.030   0.545   0.883  5.0182  0.5420  0.4953
 5762TIP3    H238846   2.017   0.625   0.754 -1.1290  0.1762  0.6116
 5763TIP3   OH238847   4.444   2.116   8.528 -0.2684  0.1427  0.2548
 5763TIP3    H138848   4.405   2.030   8.544  0.5073  0.0312  1.7362
 5763TIP3    H238849   4.477   2.143   8.613 -0.8316  2.0982 -0.1034
 5764TIP3   OH238850   4.180   0.920   0.618  0.0244 -0.0821 -0.0169
 5764TIP3    H138851   4.120   0.963   0.557 -0.5431 -0.7449  0.0692
 5764TIP3    H238852   4.176   0.974   0.697 -0.6744 -0.2742  0.0868
 5765TIP3   OH238853   4.186   2.262   8.463  0.2237 -0.0069  0.0146
 5765TIP3    H138854   4.260   2.288   8.517  0.7145 -0.9055 -0.2028
 5765TIP3    H238855   4.175   2.168   8.480 -0.2819 -0.0794 -0.6458
 5766TIP3   OH238856   6.073   4.039   1.775 -0.0965 -0.7872 -0.0424
 5766TIP3    H138857   6.074   4.016   1.682 -1.1177  1.0133 -0.5590
 5766TIP3    H238858   6.164   4.026   1.803  0.8195  0.8452 -1.9397
 5767TIP3   OH238859   4.148   4.451   1.060  0.4629 -0.0288 -0.0156
 5767TIP3    H138860   4.239   4.460   1.031  0.4224  1.4915  0.2192
 5767TIP3    H238861   4.098   4.451   0.978  0.7823 -4.3612 -0.4229
 5768TIP3   OH238862   0.120   5.832   6.297 -0.5187 -0.0229  0.3275
 5768TIP3    H138863   0.149   5.923   6.285  0.7205 -0.5903 -1.5757
 5768TIP3    H238864   0.155   5.807   6.382 -1.1858  1.3774  1.0456
 5769TIP3   OH238865   5.516   5.809   0.870  0.4906  0.0816  0.4186
 5769TIP3    H138866   5.482   5.810   0.959 -2.5265  0.4405 -0.6461
 5769TIP3    H238867   5.521   5.716   0.846 -1.5041  0.0408  0.0277
 5770TIP3   OH238868   4.106   5.703   1.253 -0.0561  0.3189  0.2115
 5770TIP3    H138869   4.117   5.668   1.165  0.4626 -0.9763  0.7649
 5770TIP3    H238870   4.060   5.786   1.241  0.1264  0.2211 -1.2785
 5771TIP3   OH238871   0.407   6.026   2.662  0.3540 -0.6127  0.1668
 5771TIP3    H138872   0.393   6.034   2.756  1.8707 -0.6708  0.4248
 5771TIP3    H238873   0.403   6.115   2.628  0.1257 -0.5633  0.3206
 5772TIP3   OH238874   5.863   0.167   0.728  0.0056  0.1137  0.2715
 5772TIP3    H138875   5.807   0.093   0.707  0.8822 -0.4922  0.0027
 5772TIP3    H238876   5.803   0.240   0.745 -0.8302  0.3609 -3.1327
 5773TIP3   OH238877   3.418   1.893   7.094  0.4408  0.4200  0.7290
 5773TIP3    H138878   3.400   1.861   7.005  0.4915 -0.1934  0.9369
 5773TIP3    H238879   3.512   1.906   7.096  0.2559  2.0691  0.1614
 5774TIP3   OH238880   1.516   2.757   2.148  0.0368  0.1017 -0.8530
 5774TIP3    H138881   1.595   2.710   2.122 -0.1610  0.7076 -2.7130
 5774TIP3    H238882   1.545   2.847   2.161 -0.2723  0.2499 -1.1722
 5775TIP3   OH238883   1.663   1.987   6.983 -0.3046 -0.2168  0.1836
 5775TIP3    H138884   1.732   1.953   7.039 -3.3766 -1.4608  3.5804
 5775TIP3    H238885   1.660   2.081   7.002  1.8977  0.4179 -1.9554
 5776TIP3   OH238886   4.139   5.267   8.240  0.0388 -0.0480  0.3855
 5776TIP3    H138887   4.171   5.216   8.165  1.8379  1.2717  0.1809
 5776TIP3    H238888   4.082   5.333   8.201 -1.1106 -0.9366  0.4986
 5777TIP3   OH238889   0.432   4.809   7.868 -0.0867 -0.2859  0.5480
 5777TIP3    H138890   0.514   4.804   7.818  0.0093 -0.0038  0.6738
 5777TIP3    H238891   0.460   4.836   7.955 -0.3497  0.1574  0.4964
 5778TIP3   OH238892   2.728   5.730   8.519 -0.2239  0.6905  0.3086
 5778TIP3    H138893   2.731   5.822   8.491 -1.1221  1.0819  1.4457
 5778TIP3    H238894   2.729   5.734   8.614  0.1004 -0.5101  0.3681
 5779TIP3   OH238895   4.945   3.462   7.247  0.6254  0.6841  0.2960
 5779TIP3    H138896   4.940   3.367   7.254 -0.2460  0.7606  0.8465
 5779TIP3    H238897   4.911   3.482   7.160  1.2341  0.4707  0.0018
 5780TIP3   OH238898   4.691   1.293   6.830  0.2365 -0.0454  0.4652
 5780TIP3    H138899   4.651   1.332   6.752 -0.8565 -2.7993 -0.4697
 5780TIP3    H238900   4.777   1.263   6.801  0.2936 -0.0352  0.6255
 5781TIP3   OH238901   1.950   5.781   1.812  0.3220  0.5298  0.2691
 5781TIP3    H138902   1.997   5.784   1.728  0.3232  0.4635  0.2672
 5781TIP3    H238903   1.897   5.702   1.807 -2.1051  2.1196 -0.9515
 5782TIP3   OH238904   0.691   2.987   7.333  0.1330 -0.3727 -0.1079
 5782TIP3    H138905   0.731   3.020   7.253 -1.1722 -1.9541 -1.4971
 5782TIP3    H238906   0.757   3.000   7.400  0.9922  1.6890 -1.2698
 5783TIP3   OH238907   2.485   0.568   6.513  0.0406 -0.3056  0.0995
 5783TIP3    H138908   2.415   0.583   6.576  0.2487 -2.2330  0.8655
 5783TIP3    H238909   2.461   0.620   6.436 -1.1631  0.6321  1.0733
 5784TIP3   OH238910   1.163   6.564   0.241  0.6724  0.0809 -0.1713
 5784TIP3    H138911   1.155   6.524   0.328  0.0303  0.8379  0.1358
 5784TIP3    H238912   1.153   6.658   0.258 -0.4852  0.1545 -1.1965
 5785TIP3   OH238913   1.626   5.591   3.036  0.1799 -0.3615  0.0201
 5785TIP3    H138914   1.663   5.569   3.122 -0.0013 -1.1537 -0.0969
 5785TIP3    H238915   1.603   5.684   3.043  1.8696  0.0893  0.2089
 5786TIP3   OH238916   2.824   6.554   8.001 -0.1501  0.0115 -0.0538
 5786TIP3    H138917   2.909   6.596   7.997  0.0244 -0.3697 -0.5440
 5786TIP3    H238918   2.828   6.498   8.078  1.5195 -3.0370 -2.1545
 5787TIP3   OH238919   0.271   2.828   1.164  0.1397  0.0040 -0.1472
 5787TIP3    H138920   0.270   2.889   1.238  0.7686 -0.3232  0.1406
 5787TIP3    H238921   0.258   2.884   1.088  3.3355  0.9625 -0.1551
 5788TIP3   OH238922   6.701   3.988   8.153  0.7882  0.4579 -0.2615
 5788TIP3    H138923   6.764   4.012   8.085 -1.0731  0.5427 -2.0533
 5788TIP3    H238924   6.753   3.983   8.233  2.4919  4.1667 -0.9105
 5789TIP3   OH238925   6.066   6.561   7.381 -0.8353  0.0526  0.0486
 5789TIP3    H138926   6.132   6.500   7.348 -0.2128  0.6121  0.2472
 5789TIP3    H238927   5.984   6.511   7.377 -0.3147 -0.8638  0.3748
 5790TIP3   OH238928   0.883   3.825   0.713  0.1159 -0.5167 -0.1946
 5790TIP3    H138929   0.803   3.866   0.746  0.7210  0.2496  0.3411
 5790TIP3    H238930   0.860   3.797   0.624 -0.7209 -0.2432 -0.0773
 5791TIP3   OH238931   2.872   3.127   2.683  0.0890 -0.5222  0.2324
 5791TIP3    H138932   2.843   3.058   2.743 -3.2978  0.2328 -0.3546
 5791TIP3    H238933   2.870   3.086   2.597  2.1052 -0.7710  0.2541
 5792TIP3   OH238934   3.985   3.368   0.370  0.2367 -0.5587 -0.6941
 5792TIP3    H138935   4.010   3.289   0.320  2.8335  0.1682 -0.7184
 5792TIP3    H238936   4.022   3.440   0.319  0.6941  0.4030  0.9244
 5793TIP3   OH238937   6.844   1.092   1.217 -0.2514 -0.0351 -0.2689
 5793TIP3    H138938   6.930   1.076   1.257  0.2470 -0.4015 -1.4387
 5793TIP3    H238939   6.782   1.051   1.277  0.4033  0.1401  0.5427
 5794TIP3   OH238940   3.167   1.618   1.233 -0.0010 -0.3888 -0.1244
 5794TIP3    H138941   3.103   1.662   1.178  2.6894  0.4573 -2.8139
 5794TIP3    H238942   3.167   1.527   1.201 -1.7139 -1.1667  1.8062
 5795TIP3   OH238943   6.261   5.941   1.968 -0.3506  0.0966  0.1057
 5795TIP3    H138944   6.225   6.019   1.925  0.2490 -0.1253 -0.8400
 5795TIP3    H238945   6.259   5.962   2.061  1.6926  2.1187 -0.2081
 5796TIP3   OH238946   2.030   0.402   8.194 -0.3797 -0.1606 -0.2438
 5796TIP3    H138947   1.984   0.369   8.117  1.3415 -1.3773 -0.8181
 5796TIP3    H238948   2.105   0.449   8.159 -0.4185  0.6247  0.6860
 5797TIP3   OH238949   3.849   2.781   0.389  0.1827  0.6471 -0.2959
 5797TIP3    H138950   3.826   2.804   0.299 -1.5362  1.0727  0.2177
 5797TIP3    H238951   3.766   2.755   0.429  0.6584  1.7530  1.5407
 5798TIP3   OH238952   6.493   5.025   1.838 -0.0888  0.0014  0.1318
 5798TIP3    H138953   6.520   5.025   1.746  1.7002 -1.2194  0.6107
 5798TIP3    H238954   6.422   5.089   1.842  1.2859  1.7862 -1.6813
 5799TIP3   OH238955   5.738   4.080   0.090 -0.5210  0.0277 -0.1148
 5799TIP3    H138956   5.697   4.008   0.043 -1.0577  0.6783 -0.6526
 5799TIP3    H238957   5.678   4.154   0.079  0.6461  0.9242 -0.6847
 5800TIP3   OH238958   0.842   4.193   0.951 -0.0754 -0.6110 -0.5514
 5800TIP3    H138959   0.868   4.152   0.869 -0.5260 -0.5243 -0.7420
 5800TIP3    H238960   0.897   4.270   0.959  0.4465 -0.9952 -0.4306
 5801TIP3   OH238961   4.447   4.407   1.626 -0.3300 -0.2758  0.3664
 5801TIP3    H138962   4.412   4.343   1.564  1.6870 -0.7057 -0.3875
 5801TIP3    H238963   4.400   4.388   1.708  0.5741 -3.1388  0.3417
 5802TIP3   OH238964   6.036   5.329   0.126 -0.1930  0.1765 -0.5007
 5802TIP3    H138965   6.029   5.323   0.031 -3.3329  1.8087 -0.4746
 5802TIP3    H238966   6.041   5.422   0.145  0.0152 -0.1031  0.9802
 5803TIP3   OH238967   6.097   2.087   1.396  0.5104 -0.2210  0.1087
 5803TIP3    H138968   6.087   1.992   1.401 -1.4650 -0.0046  1.0685
 5803TIP3    H238969   6.139   2.111   1.479  0.6424 -0.2008  0.0371
 5804TIP3   OH238970   2.728   4.644   2.128 -0.2493  0.3227 -0.4266
 5804TIP3    H138971   2.681   4.580   2.181 -0.1444 -0.5533 -1.3648
 5804TIP3    H238972   2.702   4.624   2.038  0.8626  0.6956 -0.8429
 5805TIP3   OH238973   4.442   3.567   1.351 -0.2729 -0.2300  0.3889
 5805TIP3    H138974   4.475   3.530   1.432  2.2500  2.9234  0.9649
 5805TIP3    H238975   4.347   3.554   1.356 -0.3926  0.9587  4.4758
 5806TIP3   OH238976   6.569   5.490   6.636  0.0685  0.2415  0.0682
 5806TIP3    H138977   6.549   5.457   6.549 -1.3990 -1.0657  0.8563
 5806TIP3    H238978   6.583   5.411   6.689  1.7448  1.0192  0.8685
 5807TIP3   OH238979   1.769   5.044   1.472  0.2039 -0.3658 -0.1436
 5807TIP3    H138980   1.736   4.972   1.526  2.0222 -1.5628 -0.5551
 5807TIP3    H238981   1.738   5.024   1.384  0.7542 -0.6932 -0.2675
 5808TIP3   OH238982   1.648   0.225   0.136 -0.4894 -0.3891 -0.1956
 5808TIP3    H138983   1.588   0.258   0.203 -1.6773 -1.3399 -0.7558
 5808TIP3    H238984   1.684   0.304   0.095  0.2697  0.1991  1.5459
 5809TIP3   OH238985   1.041   3.042   7.459 -0.4352 -0.3702  0.3727
 5809TIP3    H138986   1.040   3.102   7.385  1.2314  0.6682  1.1282
 5809TIP3    H238987   0.961   3.062   7.508 -2.3677 -2.0883 -1.8120
 5810TIP3   OH238988   6.078   3.195   1.812  0.0580 -0.1810  0.2275
 5810TIP3    H138989   6.009   3.260   1.800 -0.4345 -0.7554 -0.1187
 5810TIP3    H238990   6.063   3.161   1.900 -0.0995 -0.3047  0.1528
 5811TIP3   OH238991   2.907   3.650   1.523 -0.0558 -0.4795 -0.5117
 5811TIP3    H138992   2.876   3.620   1.608  0.7000  0.2628  0.0306
 5811TIP3    H238993   2.905   3.572   1.468 -0.5376 -0.9641  0.1819
 5812TIP3   OH238994   0.188   6.562   2.927  0.3149  0.2955 -0.5078
 5812TIP3    H138995   0.275   6.538   2.895 -0.1280 -2.7864  0.2873
 5812TIP3    H238996   0.157   6.484   2.972 -2.3755  1.7449  0.3457
 5813TIP3   OH238997   0.392   6.761   8.661  0.0486 -0.1687 -0.4502
 5813TIP3    H138998   0.322   6.755   8.725 -1.0949 -2.0400 -1.7720
 5813TIP3    H238999   0.450   6.829   8.695 -1.0078 -0.3942  2.0353
 5814TIP3   OH239000   2.777   1.577   0.796  0.3946 -0.2721 -0.7100
 5814TIP3    H139001   2.857   1.587   0.847 -1.0283  0.7544  1.5054
 5814TIP3    H239002   2.787   1.637   0.723  0.8189  1.4935  0.7131
 5815TIP3   OH239003   4.951   4.445   8.534  0.1170 -0.0597  0.1843
 5815TIP3    H139004   5.014   4.487   8.593  1.5019 -0.1593 -1.1701
 5815TIP3    H239005   4.932   4.360   8.575  1.5506 -0.3950  0.1925
 5816TIP3   OH239006   5.839   6.539   2.175 -0.1797  0.2638  0.3736
 5816TIP3    H139007   5.804   6.455   2.143  0.1199  0.0654  0.5735
 5816TIP3    H239008   5.872   6.582   2.096  0.9523 -0.4118  0.4575
 5817TIP3   OH239009   0.462   4.357   1.472 -0.4772  0.1397 -0.0375
 5817TIP3    H139010   0.530   4.391   1.531  0.0723 -0.1961 -0.4677
 5817TIP3    H239011   0.434   4.433   1.422 -0.0903  0.1982 -0.1733
 5818TIP3   OH239012   1.724   5.918   0.640 -0.0128 -0.3936  0.0655
 5818TIP3    H139013   1.780   5.942   0.567  0.4192 -0.3249  0.4125
 5818TIP3    H239014   1.645   5.970   0.629  0.7172  0.8575  0.5495
 5819TIP3   OH239015   1.319   4.802   0.899 -0.0239 -0.3225  0.0141
 5819TIP3    H139016   1.401   4.814   0.851 -0.9471  1.1199 -1.3147
 5819TIP3    H239017   1.329   4.853   0.979 -0.1764  1.1710 -0.8896
 5820TIP3   OH239018   4.058   3.184   1.814 -0.3328  0.0536 -0.5075
 5820TIP3    H139019   4.099   3.270   1.827  0.4641 -0.1375 -1.5855
 5820TIP3    H239020   4.124   3.121   1.841 -0.5490 -0.2340 -0.6379
 5821TIP3   OH239021   3.852   6.672   0.386  0.2028 -0.1408 -0.0539
 5821TIP3    H139022   3.882   6.754   0.426  0.8894  0.4226 -1.6331
 5821TIP3    H239023   3.758   6.685   0.375  0.7345  2.1895 -3.8042
 5822TIP3   OH239024   1.422   0.403   2.548 -0.2467  0.2953  0.4836
 5822TIP3    H139025   1.400   0.337   2.482 -0.1317  1.7403 -1.0574
 5822TIP3    H239026   1.338   0.439   2.576 -0.2566  2.7888 -2.2421
 5823TIP3   OH239027   2.090   0.947   1.001 -0.6509 -0.3281 -0.0048
 5823TIP3    H139028   2.038   1.012   0.953  0.2705  0.2015 -0.3114
 5823TIP3    H239029   2.166   0.931   0.945  0.7925  0.7933  1.5454
 5824TIP3   OH239030   0.295   6.269   1.613  0.0125 -0.3081  0.1307
 5824TIP3    H139031   0.290   6.260   1.518  0.3335  0.2173  0.0574
 5824TIP3    H239032   0.233   6.205   1.647  0.2459 -0.8354 -0.4194
 5825TIP3   OH239033   5.527   5.444   1.524  0.1589 -0.2553 -0.6614
 5825TIP3    H139034   5.566   5.522   1.484  1.3122 -0.7430 -0.5240
 5825TIP3    H239035   5.592   5.375   1.511 -0.0684 -0.7738  0.7558
 5826TIP3   OH239036   4.680   3.874   8.143  0.0649  0.2024  0.7413
 5826TIP3    H139037   4.678   3.791   8.096  0.6938  0.4863  0.2026
 5826TIP3    H239038   4.755   3.921   8.107 -0.0644  0.8573  1.2951
 5827TIP3   OH239039   3.033   0.767   1.484  0.2169 -0.0140  0.2292
 5827TIP3    H139040   3.027   0.809   1.570  0.4741  2.8982 -1.0399
 5827TIP3    H239041   3.122   0.788   1.454 -0.7336  1.4716 -1.8002
 5828TIP3   OH239042   6.613   6.764   1.810  0.3296  0.8290 -0.2397
 5828TIP3    H139043   6.682   6.706   1.841 -0.2153  1.5225  2.4737
 5828TIP3    H239044   6.629   6.847   1.855 -1.0236  1.6913 -1.2645
 5829TIP3   OH239045   1.564   3.618   0.741  0.0447 -0.4570  0.0700
 5829TIP3    H139046   1.600   3.530   0.734 -2.1617 -1.4785  0.5930
 5829TIP3    H239047   1.570   3.654   0.653 -1.1386 -2.0605 -0.7154
 5830TIP3   OH239048   3.825   4.142   0.636  0.0409 -0.0032  0.3671
 5830TIP3    H139049   3.853   4.175   0.721 -0.9313  1.4558  0.1477
 5830TIP3    H239050   3.815   4.220   0.582 -2.4752 -0.5927 -0.1523
 5831TIP3   OH239051   3.123   5.540   7.804 -0.1999  0.2995  0.3095
 5831TIP3    H139052   3.087   5.506   7.723 -0.8906  0.7441  0.4193
 5831TIP3    H239053   3.149   5.630   7.784 -0.3807  0.4151  0.5852
 5832TIP3   OH239054   0.183   4.292   1.102 -0.0356  0.5410 -0.1414
 5832TIP3    H139055   0.262   4.278   1.155 -0.2499 -1.0188 -0.1986
 5832TIP3    H239056   0.210   4.357   1.036  0.7044  1.2681  0.8401
 5833TIP3   OH239057   2.867   0.302   0.465 -0.6096 -0.4403  0.0037
 5833TIP3    H139058   2.942   0.339   0.420  1.8586 -1.4124  2.9654
 5833TIP3    H239059   2.814   0.262   0.396  2.0425 -0.4723 -2.1555
 5834TIP3   OH239060   3.233   1.984   0.263 -0.0166 -0.5212 -0.3035
 5834TIP3    H139061   3.228   2.078   0.282  1.3422 -0.8056  1.6656
 5834TIP3    H239062   3.326   1.963   0.269 -0.0558 -1.6817 -2.5638
 5835TIP3   OH239063   0.296   6.847   1.767  0.6038  0.5836 -0.1871
 5835TIP3    H139064   0.376   6.795   1.759 -0.5342 -1.1161 -0.9975
 5835TIP3    H239065   0.266   6.861   1.677 -0.8885 -0.2469  0.1516
 5836TIP3   OH239066   3.595   4.685   1.778  0.1582 -0.3765 -0.1561
 5836TIP3    H139067   3.628   4.602   1.813  1.2200  0.1611  0.1470
 5836TIP3    H239068   3.555   4.728   1.853  1.6022  0.3617  0.2173
 5837TIP3   OH239069   6.616   0.942   8.376  0.1310  0.0636  0.1965
 5837TIP3    H139070   6.570   0.884   8.438  0.4673 -1.2929 -0.7793
 5837TIP3    H239071   6.708   0.918   8.386  0.7477  2.7825  2.1592
 5838TIP3   OH239072   1.793   5.986   1.875 -0.2182  0.7793  0.5618
 5838TIP3    H139073   1.836   5.906   1.846 -1.4646  0.0205  0.7358
 5838TIP3    H239074   1.839   6.056   1.829  0.1167 -0.1307 -0.5258
 5839TIP3   OH239075   3.226   4.459   7.713 -0.6724 -0.0106  0.0129
 5839TIP3    H139076   3.166   4.417   7.774 -2.8452 -0.3572 -2.2264
 5839TIP3    H239077   3.236   4.396   7.641  0.9402  0.8161 -0.5611
 5840TIP3   OH239078   1.983   2.962   1.294  0.3426  0.1436 -0.3934
 5840TIP3    H139079   2.067   2.921   1.273  0.1930 -0.0193 -0.6827
 5840TIP3    H239080   1.954   2.916   1.373 -0.4786 -1.2996 -1.4839
 5841TIP3   OH239081   1.149   0.703   2.190 -0.6701 -0.1407 -0.0460
 5841TIP3    H139082   1.058   0.676   2.176 -0.9472  0.3793  0.7098
 5841TIP3    H239083   1.148   0.798   2.183  0.0206 -0.1916 -1.0953
 5842TIP3   OH239084   6.359   0.985   2.183 -0.6634  0.1127  0.0261
 5842TIP3    H139085   6.392   0.971   2.272 -0.3029 -1.2650 -0.3065
 5842TIP3    H239086   6.430   1.034   2.139  0.7045 -2.1468 -0.4517
 5843TIP3   OH239087   5.654   1.674   0.147 -0.6052 -0.5763 -0.1714
 5843TIP3    H139088   5.618   1.667   0.058 -0.5191  0.0037 -0.2569
 5843TIP3    H239089   5.611   1.604   0.196  1.3096 -2.6745 -1.2944
 5844TIP3   OH239090   2.155   3.053   1.593  0.5344 -0.7700  0.1453
 5844TIP3    H139091   2.195   3.096   1.517 -0.3142  0.3675  0.3008
 5844TIP3    H239092   2.219   3.064   1.663 -0.4930  2.3469  0.7943
 5845TIP3   OH239093   3.371   0.482   8.144  0.0999  0.3054  0.2069
 5845TIP3    H139094   3.438   0.425   8.109  1.2393  1.7681 -0.0889
 5845TIP3    H239095   3.292   0.462   8.093  0.6542 -0.4970 -0.3460
 5846TIP3   OH239096   6.705   4.273   0.250  0.4620  0.2888  0.3946
 5846TIP3    H139097   6.697   4.364   0.222  1.0474  0.5116  0.9491
 5846TIP3    H239098   6.723   4.224   0.169  1.2145  0.8039  0.2475
 5847TIP3   OH239099   0.369   4.635   7.238 -0.4450 -0.0550  0.3223
 5847TIP3    H139100   0.431   4.579   7.191 -2.4783 -0.7493 -1.6832
 5847TIP3    H239101   0.398   4.630   7.329  2.9012  0.3369 -0.5993
 5848TIP3   OH239102   4.558   5.555   1.972 -0.2316  0.0034 -0.1300
 5848TIP3    H139103   4.554   5.490   2.042  1.0708 -1.2530 -1.1676
 5848TIP3    H239104   4.553   5.639   2.018  0.1983 -0.7855  1.4407
 5849TIP3   OH239105   6.653   2.074   8.186 -0.2813 -0.0012 -0.5362
 5849TIP3    H139106   6.707   2.009   8.140 -0.4313 -0.7558  0.3188
 5849TIP3    H239107   6.648   2.041   8.276  0.0814  1.4899  0.0529
 5850TIP3   OH239108   5.926   3.204   0.850 -0.0126  0.1177  0.0959
 5850TIP3    H139109   6.020   3.217   0.842 -0.0262 -0.3862 -1.1591
 5850TIP3    H239110   5.900   3.259   0.924  1.2860  0.1168  0.5761
 5851TIP3   OH239111   5.307   4.781   8.641  1.0988 -0.0073  0.3103
 5851TIP3    H139112   5.317   4.848   8.709 -0.7302  2.2660 -1.4968
 5851TIP3    H239113   5.359   4.814   8.567  1.3226 -1.3514 -0.1688
 5852TIP3   OH239114   2.411   6.850   1.381 -0.2530  0.6694  0.1775
 5852TIP3    H139115   2.357   6.917   1.340 -1.1483  0.3257  0.7492
 5852TIP3    H239116   2.443   6.890   1.462 -0.2398  0.6319  0.1912
 5853TIP3   OH239117   6.346   5.778   7.951 -0.1815 -0.1492 -0.1983
 5853TIP3    H139118   6.295   5.851   7.986  0.8917 -0.3954  2.1418
 5853TIP3    H239119   6.373   5.806   7.864 -1.3589  1.4437 -0.0840
 5854TIP3   OH239120   3.928   4.669   6.634 -0.3360 -0.2952  0.2739
 5854TIP3    H139121   3.842   4.628   6.627  0.0623 -1.1230  0.1679
 5854TIP3    H239122   3.987   4.599   6.660  0.3308  0.2440  0.2632
 5855TIP3   OH239123   1.997   6.140   0.222  0.1378  0.8031 -0.2710
 5855TIP3    H139124   2.014   6.120   0.130 -1.1326 -0.8114 -0.1873
 5855TIP3    H239125   2.084   6.146   0.261  0.6748  0.2371 -1.3245
 5856TIP3   OH239126   0.598   6.419   8.591  0.4785  0.1438  0.2990
 5856TIP3    H139127   0.513   6.433   8.550  0.8258 -2.0359 -1.3318
 5856TIP3    H239128   0.586   6.449   8.681 -1.1012  2.6263 -0.6280
 5857TIP3   OH239129   4.417   3.188   1.186 -0.1806  0.7176  0.6108
 5857TIP3    H139130   4.422   3.093   1.196 -0.6754  0.3126 -2.3223
 5857TIP3    H239131   4.387   3.219   1.272 -1.2865 -1.8854  1.2527
 5858TIP3   OH239132   2.153   6.299   1.954 -0.0460 -0.2070  0.1976
 5858TIP3    H139133   2.120   6.264   1.871  0.7682  0.6713 -0.5304
 5858TIP3    H239134   2.114   6.386   1.961 -0.2914 -0.3637  0.8617
 5859TIP3   OH239135   1.045   3.382   7.855 -0.1222 -0.0198 -0.1103
 5859TIP3    H139136   1.011   3.394   7.944  1.2169  0.7434  0.3159
 5859TIP3    H239137   1.071   3.290   7.852  0.1690  0.0413  0.4196
 5860TIP3   OH239138   1.280   6.778   2.259  0.5850 -0.7363 -0.1665
 5860TIP3    H139139   1.347   6.762   2.325  1.5210  0.0907 -0.9095
 5860TIP3    H239140   1.326   6.816   2.185 -0.9181  1.4768 -0.0670
 5861TIP3   OH239141   0.150   6.680   1.968 -0.0897  0.9377  0.2041
 5861TIP3    H139142   0.154   6.676   1.873 -0.2885  0.6971  0.2062
 5861TIP3    H239143   0.241   6.686   1.996  0.0217  0.0004  0.0478
 5862TIP3   OH239144   5.123   2.035   7.665  0.0498  0.8541  0.0579
 5862TIP3    H139145   5.193   1.973   7.683  0.0001  0.5124 -0.8586
 5862TIP3    H239146   5.135   2.059   7.573 -0.9592  0.8745 -0.0857
 5863TIP3   OH239147   1.005   5.331   0.387 -0.1869 -0.0665 -0.2647
 5863TIP3    H139148   0.940   5.402   0.386 -0.1923 -0.0721 -0.3077
 5863TIP3    H239149   0.968   5.265   0.445 -0.2112 -0.0616 -0.2742
 5864TIP3   OH239150   0.570   2.135   7.410  0.0744 -0.0580  0.1138
 5864TIP3    H139151   0.603   2.224   7.421 -0.3601 -0.2082  4.1597
 5864TIP3    H239152   0.489   2.133   7.462 -1.9733 -1.9007 -2.8518
 5865TIP3   OH239153   2.696   5.797   2.361 -0.0449 -0.2196 -0.7194
 5865TIP3    H139154   2.776   5.847   2.343 -0.6599  0.3810 -1.9216
 5865TIP3    H239155   2.661   5.837   2.441  0.0444  0.5790 -1.0641
 5866TIP3   OH239156   2.375   3.184   0.112 -0.2473 -0.9083 -0.1045
 5866TIP3    H139157   2.395   3.101   0.069  1.8531 -0.3672 -0.2432
 5866TIP3    H239158   2.455   3.235   0.105 -0.8034  0.3385  1.8718
 5867TIP3   OH239159   3.400   5.918   1.658 -0.2571  0.1103 -0.0832
 5867TIP3    H139160   3.453   5.891   1.582 -0.2636 -1.8571  0.5763
 5867TIP3    H239161   3.371   6.006   1.635  0.7294  0.0397 -1.8456
 5868TIP3   OH239162   0.593   6.119   1.009  0.1818 -0.1490 -0.1010
 5868TIP3    H139163   0.680   6.087   0.985 -0.5909 -2.1971 -0.3788
 5868TIP3    H239164   0.604   6.158   1.096  1.3713 -0.4297 -0.1183
 5869TIP3   OH239165   3.324   5.885   7.359 -0.4686 -0.6979 -0.3308
 5869TIP3    H139166   3.378   5.846   7.427  0.4897 -0.0407 -0.6872
 5869TIP3    H239167   3.301   5.972   7.392  0.2672 -0.2510 -0.9641
 5870TIP3   OH239168   6.098   1.542   1.311 -0.2886 -0.0529  0.7842
 5870TIP3    H139169   6.027   1.478   1.312  0.5602 -1.0174  2.0288
 5870TIP3    H239170   6.170   1.499   1.357  0.4310  1.6546  1.3340
 5871TIP3   OH239171   4.396   0.050   7.661 -0.3309 -0.0037 -0.3461
 5871TIP3    H139172   4.429   0.036   7.750  1.0322  0.5087 -0.7568
 5871TIP3    H239173   4.425  -0.027   7.612 -2.1053 -0.8795 -0.1058
 5872TIP3   OH239174   4.475   0.451   0.050 -0.6642  0.5984 -0.5187
 5872TIP3    H139175   4.475   0.466   0.144  0.6493  0.7448 -0.5157
 5872TIP3    H239176   4.426   0.369   0.038 -0.0754  0.1000  0.3894
 5873TIP3   OH239177   2.953   3.651   7.245 -0.0096 -0.5058 -0.1616
 5873TIP3    H139178   2.982   3.660   7.154 -0.2791  0.5691 -0.1526
 5873TIP3    H239179   3.032   3.623   7.292  1.3298  3.0141 -0.0136
 5874TIP3   OH239180   6.691   0.218   8.349 -0.3274  0.2209 -0.7852
 5874TIP3    H139181   6.762   0.158   8.376  1.2274  1.3962 -2.0564
 5874TIP3    H239182   6.624   0.207   8.417  0.1902 -2.3962 -0.5671
 5875TIP3   OH239183   0.006   0.269   2.200 -0.3881 -0.5563 -0.2283
 5875TIP3    H139184   0.074   0.215   2.160  0.0382 -0.7347  0.6928
 5875TIP3    H239185  -0.045   0.207   2.253 -0.3905 -0.1902  0.2016
 5876TIP3   OH239186   3.851   2.194   7.901  0.4261 -0.6233  0.6702
 5876TIP3    H139187   3.936   2.162   7.871  0.1149 -0.6371 -0.2061
 5876TIP3    H239188   3.844   2.161   7.991  1.8667  0.3898  1.1985
 5877TIP3   OH239189   6.396   6.158   1.792  0.8601 -0.2237 -0.2228
 5877TIP3    H139190   6.322   6.193   1.842  1.4576 -0.1122  0.6075
 5877TIP3    H239191   6.360   6.140   1.705 -0.1194 -0.1085  0.1484
 5878TIP3   OH239192   1.681   5.347   1.212 -0.3714  0.0314  0.1996
 5878TIP3    H139193   1.627   5.425   1.202  0.7153  0.8734  0.7114
 5878TIP3    H239194   1.759   5.378   1.257  1.0646 -0.9220 -1.5408
 5879TIP3   OH239195   3.811   1.710   2.693  0.1982  0.1289 -0.3498
 5879TIP3    H139196   3.758   1.632   2.674 -0.2156 -0.1554  1.7441
 5879TIP3    H239197   3.900   1.684   2.670 -0.2240 -0.1362 -1.8542
 5880TIP3   OH239198   2.492   6.516   7.562 -0.2500 -0.7416  0.7788
 5880TIP3    H139199   2.578   6.491   7.596 -0.5219 -1.4085  0.9989
 5880TIP3    H239200   2.498   6.499   7.468 -0.2438 -1.1140  0.8428
 5881TIP3   OH239201   5.823   4.678   0.422 -0.4787  0.0891  0.3514
 5881TIP3    H139202   5.783   4.615   0.482 -0.7173 -1.5527 -1.4215
 5881TIP3    H239203   5.763   4.683   0.348  0.9733  0.1007 -0.8881
 5882TIP3   OH239204   6.682   2.315   2.237 -0.3121  0.1981  0.2684
 5882TIP3    H139205   6.756   2.283   2.185  0.4181 -1.0806  2.0071
 5882TIP3    H239206   6.682   2.261   2.316 -2.4897  0.8533  0.8013
 5883TIP3   OH239207   1.593   1.831   8.316  0.6602  0.4620  0.4320
 5883TIP3    H139208   1.563   1.858   8.229  0.9347 -0.2916  0.0906
 5883TIP3    H239209   1.675   1.879   8.330  0.2452  1.1347  0.5888
 5884TIP3   OH239210   5.919   6.856   1.051 -0.3160 -0.0039  0.6733
 5884TIP3    H139211   5.867   6.936   1.041 -0.4140 -0.1417 -0.0172
 5884TIP3    H239212   5.871   6.803   1.115  0.4130  1.0080  2.1008
 5885TIP3   OH239213   4.086   5.799   1.906 -0.6739 -0.1711  0.0610
 5885TIP3    H139214   4.008   5.754   1.940 -0.3007  0.4517  1.8416
 5885TIP3    H239215   4.159   5.743   1.931 -0.3874  0.3278  0.3582
 5886TIP3   OH239216   2.487   2.930   2.752  0.0115 -0.2095  0.0410
 5886TIP3    H139217   2.551   2.859   2.748 -0.0098 -0.2098 -0.3169
 5886TIP3    H239218   2.506   2.975   2.834  0.5238 -0.1647 -0.0971
 5887TIP3   OH239219   2.371   4.143   7.683  0.3992 -0.0143  0.1246
 5887TIP3    H139220   2.423   4.063   7.674  0.3791  0.0904 -1.1991
 5887TIP3    H239221   2.290   4.115   7.723  1.1024 -0.3425  1.3602
 5888TIP3   OH239222   4.354   2.576   0.793 -0.3665 -0.2493 -0.1973
 5888TIP3    H139223   4.292   2.645   0.814 -1.5644 -0.7045 -1.9412
 5888TIP3    H239224   4.299   2.505   0.757  0.9250 -1.6577  0.4935
 5889TIP3   OH239225   5.203   0.015   0.432 -0.0744  0.5049  0.5891
 5889TIP3    H139226   5.112  -0.007   0.451 -0.7363  0.3561 -2.2726
 5889TIP3    H239227   5.199   0.103   0.394  0.7460  0.0312 -0.6910
 5890TIP3   OH239228   2.683   3.383   0.730 -0.1675  0.2146 -0.1930
 5890TIP3    H139229   2.592   3.387   0.699 -0.4625 -0.2612  0.5856
 5890TIP3    H239230   2.718   3.304   0.690 -0.4883 -0.2921  0.5101
 5891TIP3   OH239231   2.212   2.164   7.867 -0.0089 -0.1539  0.2388
 5891TIP3    H139232   2.254   2.250   7.876 -1.0051  0.4348 -0.5830
 5891TIP3    H239233   2.284   2.105   7.845  1.0278  0.0510  2.7306
 5892TIP3   OH239234   4.505   2.106   2.096  0.2411 -0.1184  0.0774
 5892TIP3    H139235   4.535   2.085   2.184  1.3335  0.4516 -0.1350
 5892TIP3    H239236   4.448   2.182   2.106  1.2426  0.6392  0.1972
 5893TIP3   OH239237   4.429   6.290   7.851 -0.2126  0.6171 -0.0135
 5893TIP3    H139238   4.347   6.260   7.888 -0.0512  0.7153  0.4260
 5893TIP3    H239239   4.492   6.284   7.922  0.6341 -1.3292 -0.8594
 5894TIP3   OH239240   3.718   6.797   1.358 -0.6445 -0.2986 -0.1206
 5894TIP3    H139241   3.661   6.842   1.296 -0.6535 -0.1967 -0.0387
 5894TIP3    H239242   3.689   6.828   1.444 -1.0011 -0.8644 -0.0312
 5895TIP3   OH239243   5.170   3.168   0.486  0.6853  0.6659  0.0703
 5895TIP3    H139244   5.115   3.245   0.504  1.0064  1.0326 -0.4810
 5895TIP3    H239245   5.191   3.175   0.393 -0.0332 -0.5976 -0.1989
 5896TIP3   OH239246   0.188   4.104   0.637 -0.3520 -0.2643  0.1206
 5896TIP3    H139247   0.141   4.021   0.638 -0.0697 -0.4459 -0.9686
 5896TIP3    H239248   0.145   4.155   0.569  0.3039 -0.0040 -0.1078
 5897TIP3   OH239249   1.861   0.630   6.866 -0.2410  0.2988  0.0217
 5897TIP3    H139250   1.886   0.718   6.837 -1.8498  0.6721 -0.3014
 5897TIP3    H239251   1.929   0.573   6.830 -0.6068  1.0898 -2.0567
 5898TIP3   OH239252   1.494   5.860   0.817  0.1781  0.1580 -0.1674
 5898TIP3    H139253   1.502   5.940   0.869 -3.2004  0.4750  0.0849
 5898TIP3    H239254   1.567   5.864   0.756  3.0684  0.8695  3.0033
 5899TIP3   OH239255   5.084   2.112   0.187 -0.5256 -0.1578 -0.1109
 5899TIP3    H139256   5.020   2.180   0.164  0.5110  0.5979 -0.8462
 5899TIP3    H239257   5.125   2.089   0.104  1.3417  0.5963  0.5662
 5900TIP3   OH239258   4.330   4.688   0.961  0.0043  0.1305  0.0689
 5900TIP3    H139259   4.395   4.752   0.933  0.2196 -0.6494 -1.3175
 5900TIP3    H239260   4.253   4.740   0.984  0.1265  0.8977 -1.1513
 5901TIP3   OH239261   2.253   1.344   1.890  0.6292 -0.4752 -0.0703
 5901TIP3    H139262   2.166   1.308   1.905  1.2111 -2.3339 -0.8861
 5901TIP3    H239263   2.286   1.363   1.978  0.5724 -2.7748  0.5152
 5902TIP3   OH239264   6.400   6.060   2.250 -0.5733  0.4299  0.0420
 5902TIP3    H139265   6.417   5.973   2.286 -0.0370  0.2860 -0.5406
 5902TIP3    H239266   6.486   6.091   2.221 -0.4706  1.8381  1.7161
 5903TIP3   OH239267   1.842   5.815   1.080  0.0321 -0.2172 -0.4434
 5903TIP3    H139268   1.851   5.909   1.095 -0.3674 -0.5257  2.1516
 5903TIP3    H239269   1.867   5.803   0.989  0.9681  2.2788 -0.5919
 5904TIP3   OH239270   1.343   4.835   2.780 -0.1571 -0.0453 -0.3593
 5904TIP3    H139271   1.419   4.803   2.731  0.4454  0.1397  0.4406
 5904TIP3    H239272   1.350   4.931   2.774 -0.8363 -0.0234 -1.0360
 5905TIP3   OH239273   3.385   0.618   6.866 -0.0572 -0.0204  0.6811
 5905TIP3    H139274   3.317   0.566   6.824  0.1053  0.7643 -0.6158
 5905TIP3    H239275   3.374   0.706   6.830  1.4716  0.1796  0.6089
 5906TIP3   OH239276   6.303   2.134   8.522 -0.2474 -0.1898 -0.7563
 5906TIP3    H139277   6.276   2.080   8.447 -4.8496  0.2581  0.2683
 5906TIP3    H239278   6.320   2.070   8.592  1.7896 -0.4856 -1.4393
 5907TIP3   OH239279   2.981   2.817   7.212 -0.4717 -0.1200 -0.2331
 5907TIP3    H139280   2.959   2.757   7.140  0.3325  0.4271 -0.9522
 5907TIP3    H239281   2.957   2.769   7.291 -1.2828 -0.7760 -0.8613
 5908TIP3   OH239282   6.208   2.611   1.618 -0.3748  0.5363  0.9420
 5908TIP3    H139283   6.263   2.657   1.555  0.9190 -0.0760  1.5840
 5908TIP3    H239284   6.118   2.629   1.590  0.1576  0.6256 -0.8129
 5909TIP3   OH239285   4.347   6.218   2.332  0.2341  0.0854 -0.0517
 5909TIP3    H139286   4.269   6.192   2.283  0.4966  0.7710 -0.8443
 5909TIP3    H239287   4.413   6.151   2.310 -0.0663 -0.3930  0.4784
 5910TIP3   OH239288   6.723   2.524   1.809  0.6061  0.2095 -0.5809
 5910TIP3    H139289   6.746   2.578   1.884  1.2561 -2.0539  0.9719
 5910TIP3    H239290   6.630   2.504   1.821  0.6299  0.1126 -0.5551
 5911TIP3   OH239291   4.465   0.316   1.650 -0.3500 -0.2418 -0.6759
 5911TIP3    H139292   4.481   0.332   1.743  0.5723  0.7371 -0.9774
 5911TIP3    H239293   4.531   0.369   1.605  0.3625 -2.0418 -1.8715
 5912TIP3   OH239294   0.385   2.086   7.623 -0.1613  0.2671 -0.3278
 5912TIP3    H139295   0.411   2.112   7.712  1.5630  2.0680 -1.2892
 5912TIP3    H239296   0.324   2.013   7.637  2.3056 -1.5431  2.2718
 5913TIP3   OH239297   2.669   2.007   1.306  0.3513 -0.4123 -0.1190
 5913TIP3    H139298   2.582   1.980   1.276  0.3776 -1.1082  0.4187
 5913TIP3    H239299   2.729   1.944   1.267  0.5979 -0.0531 -0.3249
 5914TIP3   OH239300   4.636   6.775   8.161 -0.0722 -0.6696 -0.0222
 5914TIP3    H139301   4.714   6.828   8.142  0.0537 -0.5517  0.7780
 5914TIP3    H239302   4.661   6.723   8.237 -1.6393  1.3662  2.0558
 5915TIP3   OH239303   5.090   5.824   1.798  0.2228 -0.1760 -0.6969
 5915TIP3    H139304   5.081   5.873   1.717 -0.2030 -0.4973 -0.8527
 5915TIP3    H239305   5.067   5.734   1.774 -0.6046 -0.1403 -0.0721
 5916TIP3   OH239306   2.381   6.064   0.575  0.7531 -0.7423  0.3278
 5916TIP3    H139307   2.444   6.055   0.503 -0.9730  0.2417 -1.3874
 5916TIP3    H239308   2.436   6.076   0.653  2.6908 -0.8342 -0.9474
 5917TIP3   OH239309   0.105   0.442   8.531  0.0985  0.1417  0.1651
 5917TIP3    H139310   0.134   0.352   8.517 -0.9079 -0.2412  0.4236
 5917TIP3    H239311   0.012   0.434   8.553 -0.3041  1.3424 -0.9758
 5918TIP3   OH239312   0.120   0.120   2.659 -0.0862  0.0173 -0.2951
 5918TIP3    H139313   0.112   0.129   2.754  1.7443 -1.6270  0.0831
 5918TIP3    H239314   0.110   0.026   2.643 -1.7033  0.4256 -1.9165
 5919TIP3   OH239315   4.353   3.038   6.685  0.3464  0.6800  0.1914
 5919TIP3    H139316   4.289   3.048   6.755 -0.3765  0.1383 -0.3845
 5919TIP3    H239317   4.412   3.112   6.696 -0.0632  0.8868  1.0552
 5920TIP3   OH239318   6.569   4.568   0.445  0.2808 -0.7320 -0.1706
 5920TIP3    H139319   6.492   4.515   0.467  0.8490 -0.9700  1.3552
 5920TIP3    H239320   6.585   4.550   0.352 -2.4274  0.5418 -0.9846
 5921TIP3   OH239321   1.172   1.772   1.344  0.0957 -0.3569 -0.4213
 5921TIP3    H139322   1.238   1.834   1.376  0.2775 -0.4351 -0.6450
 5921TIP3    H239323   1.139   1.811   1.264 -0.8505  0.1760  0.2043
 5922TIP3   OH239324   4.344   4.523   7.569 -0.0227  0.1670 -0.1456
 5922TIP3    H139325   4.327   4.518   7.663 -0.0907 -0.0586 -0.1675
 5922TIP3    H239326   4.407   4.453   7.552  0.2155  0.3984 -0.2195
 5923TIP3   OH239327   0.373   4.595   2.274 -0.0088 -0.7689  0.2150
 5923TIP3    H139328   0.400   4.503   2.270 -0.2345 -0.8135 -0.3269
 5923TIP3    H239329   0.330   4.603   2.359  1.3656 -0.7814  0.9330
 5924TIP3   OH239330   1.333   4.278   2.235 -0.2778 -0.8213 -0.4117
 5924TIP3    H139331   1.240   4.267   2.215 -0.2433 -1.2610 -0.3502
 5924TIP3    H239332   1.359   4.354   2.185 -0.4087 -1.3677 -1.3252
 5925TIP3   OH239333   2.609   2.179   2.552 -0.0914 -0.0841  0.0259
 5925TIP3    H139334   2.606   2.093   2.511 -0.2835  0.4295 -1.0579
 5925TIP3    H239335   2.646   2.163   2.639 -0.4285 -1.2986 -0.0443
 5926TIP3   OH239336   2.864   1.918   6.981 -0.4955 -0.4087 -0.4780
 5926TIP3    H139337   2.922   1.846   6.957 -0.7234 -0.8745  0.3209
 5926TIP3    H239338   2.829   1.893   7.067 -0.4556  0.7246 -0.1124
 5927TIP3   OH239339   2.527   6.719   0.606  0.0381  0.0703  0.3342
 5927TIP3    H139340   2.517   6.695   0.699  0.2138  1.3892  0.7129
 5927TIP3    H239341   2.589   6.656   0.571  1.2343  0.5353  1.5369
 5928TIP3   OH239342   4.170   2.765   0.860  0.5323  0.3067  0.0153
 5928TIP3    H139343   4.169   2.859   0.880  0.6036  0.5641 -1.0920
 5928TIP3    H239344   4.079   2.738   0.870  0.9853 -0.3077  3.6420
 5929TIP3   OH239345   4.849   6.416   1.217 -0.0748  0.1597  0.0102
 5929TIP3    H139346   4.771   6.448   1.172 -0.1877  0.2523  0.2634
 5929TIP3    H239347   4.893   6.495   1.248  0.6916  0.1675 -1.0414
 5930TIP3   OH239348   4.555   2.594   0.506 -0.6192 -0.0069  0.8019
 5930TIP3    H139349   4.579   2.502   0.509 -0.1832  0.1200  1.1889
 5930TIP3    H239350   4.579   2.629   0.592 -1.0688  0.3961  0.7707
 5931TIP3   OH239351   1.514   1.641   1.746  0.3134  0.1485  0.2305
 5931TIP3    H139352   1.529   1.617   1.838 -0.1953 -2.0201 -0.1813
 5931TIP3    H239353   1.577   1.588   1.698  0.7470  1.4633 -0.6815
 5932TIP3   OH239354   3.574   1.052   0.269 -0.3519  0.0763  0.4100
 5932TIP3    H139355   3.554   0.964   0.236  1.9160  0.2171 -1.6729
 5932TIP3    H239356   3.586   1.105   0.190  0.3570  1.7666  1.5846
 5933TIP3   OH239357   4.190   4.125   0.672  0.0754  0.5167  0.2059
 5933TIP3    H139358   4.200   4.139   0.577  0.7103  1.7755  0.4374
 5933TIP3    H239359   4.254   4.056   0.692 -0.5375 -0.2459 -0.3748
 5934TIP3   OH239360   5.121   5.696   7.991 -0.0475  0.1348  0.0109
 5934TIP3    H139361   5.086   5.700   8.081  0.7748  1.6511  0.2918
 5934TIP3    H239362   5.085   5.614   7.956 -0.8972 -0.1863  1.5041
 5935TIP3   OH239363   0.337   5.215   7.602 -0.2004 -0.0944 -0.1665
 5935TIP3    H139364   0.260   5.194   7.655 -0.7320 -1.1311 -1.3060
 5935TIP3    H239365   0.407   5.225   7.666 -1.1559  0.3398  0.8549
 5936TIP3   OH239366   4.559   0.042   1.550  0.0050 -0.4344 -0.5119
 5936TIP3    H139367   4.498   0.116   1.546  0.1235 -0.3940 -2.0926
 5936TIP3    H239368   4.530  -0.017   1.481  2.4447  0.1613 -2.1715
 5937TIP3   OH239369   1.632   2.260   0.511  0.3533 -0.7448 -0.0628
 5937TIP3    H139370   1.725   2.271   0.491  0.2960 -0.9724 -0.4643
 5937TIP3    H239371   1.627   2.266   0.606  0.4868  1.4981 -0.1247
 5938TIP3   OH239372   5.923   5.784   7.922  0.5010 -0.3895 -0.3913
 5938TIP3    H139373   5.835   5.820   7.914 -0.1576 -1.9393 -0.4613
 5938TIP3    H239374   5.945   5.752   7.834  0.6677 -1.0110 -0.1347
 5939TIP3   OH239375   1.210   1.331   1.814  0.3654  0.2398  0.4367
 5939TIP3    H139376   1.135   1.281   1.846  1.1638 -1.4266 -0.1878
 5939TIP3    H239377   1.172   1.412   1.782 -1.0039 -0.0098  1.3151
 5940TIP3   OH239378   2.298   0.291   0.622  0.2738  0.0893  0.0875
 5940TIP3    H139379   2.319   0.203   0.656  0.4016  0.2433  0.4137
 5940TIP3    H239380   2.332   0.291   0.533  2.9857  0.7923  1.0147
 5941TIP3   OH239381   5.471   0.590   7.740 -0.2505 -0.1573 -0.1624
 5941TIP3    H139382   5.472   0.667   7.683 -1.4988 -0.4328 -0.6028
 5941TIP3    H239383   5.470   0.516   7.680 -1.2615 -0.4576  0.2000
 5942TIP3   OH239384   6.735   5.508   8.003 -0.0840 -0.2790 -0.2027
 5942TIP3    H139385   6.705   5.485   8.090 -2.5771 -0.1242 -0.9474
 5942TIP3    H239386   6.664   5.560   7.966  1.3914  0.6420 -1.9394
 5943TIP3   OH239387   4.783   1.390   1.922 -0.4109 -0.3331 -0.0162
 5943TIP3    H139388   4.826   1.326   1.979 -1.5687 -1.0619  0.0948
 5943TIP3    H239389   4.761   1.463   1.981  0.4914 -0.0421 -0.0387
 5944TIP3   OH239390   4.012   6.103   1.545 -0.3036  0.6097  0.0888
 5944TIP3    H139391   3.946   6.085   1.613  2.3714  0.4443  2.8464
 5944TIP3    H239392   4.033   6.017   1.509  0.1149  0.3469  0.9379
 5945TIP3   OH239393   4.089   5.946   7.072 -0.1622  0.3216  0.5112
 5945TIP3    H139394   4.099   5.949   6.977  0.2452  0.9223  0.5662
 5945TIP3    H239395   4.018   6.007   7.091 -1.6023 -1.2373  0.4436
 5946TIP3   OH239396   2.484   5.426   1.358 -0.2802 -0.6196 -0.0061
 5946TIP3    H139397   2.492   5.494   1.425 -2.2515  0.0400 -0.3511
 5946TIP3    H239398   2.434   5.468   1.288 -0.7136 -2.1379 -0.6409
 5947TIP3   OH239399   0.639   4.179   0.485  0.4178  0.4076  0.2041
 5947TIP3    H139400   0.710   4.198   0.424  0.6378  2.1571  0.9632
 5947TIP3    H239401   0.620   4.086   0.471 -0.5657  1.0199 -3.6152
 5948TIP3   OH239402   1.797   2.867   8.167 -0.0649 -0.5439 -0.8075
 5948TIP3    H139403   1.808   2.904   8.255  1.4316  1.6344 -1.8508
 5948TIP3    H239404   1.739   2.792   8.181 -0.0232 -0.1742  2.0056
 5949TIP3   OH239405   6.006   6.321   2.643  0.0182 -0.4311 -0.4904
 5949TIP3    H139406   5.980   6.385   2.709 -0.8753 -1.1214 -0.1447
 5949TIP3    H239407   6.101   6.314   2.652  0.1067  0.6754 -0.3940
 5950TIP3   OH239408   4.711   1.621   2.113  0.3717  0.7105  0.1850
 5950TIP3    H139409   4.707   1.710   2.079 -0.2872  0.1550 -1.2653
 5950TIP3    H239410   4.776   1.625   2.183 -0.5526  2.5919  0.9967
 5951TIP3   OH239411   5.119   0.972   8.321  0.1260  0.0843 -0.1294
 5951TIP3    H139412   5.115   0.876   8.325 -1.0448  0.1109 -0.3917
 5951TIP3    H239413   5.190   0.995   8.381  0.3149 -0.9375  0.0593
 5952TIP3   OH239414   3.357   1.418   2.415  0.7179  0.5849  0.1081
 5952TIP3    H139415   3.331   1.491   2.471  1.8253  0.3161  1.0051
 5952TIP3    H239416   3.438   1.385   2.454  2.3841  1.3182 -2.4807
 5953TIP3   OH239417   5.317   2.243   2.897 -0.2990 -0.4510 -0.8856
 5953TIP3    H139418   5.284   2.325   2.861 -0.6467 -0.0353  0.3230
 5953TIP3    H239419   5.243   2.183   2.891 -0.7699 -0.0079  0.2831
 5954TIP3   OH239420   4.257   0.159   1.295  0.3015 -0.2454 -0.6432
 5954TIP3    H139421   4.182   0.167   1.354  1.1223  0.6893  0.2958
 5954TIP3    H239422   4.262   0.244   1.250  1.2188 -0.0327 -0.1686
 5955TIP3   OH239423   3.479   4.596   7.825  0.3236 -0.2102 -0.5777
 5955TIP3    H139424   3.457   4.683   7.792  0.1003 -0.7629 -1.9551
 5955TIP3    H239425   3.425   4.536   7.773  0.9258 -1.2186 -0.0789
 5956TIP3   OH239426   3.515   2.807   1.904 -0.4751  0.1718 -0.5247
 5956TIP3    H139427   3.594   2.860   1.916 -0.9019  0.3271  2.0970
 5956TIP3    H239428   3.536   2.750   1.830  2.4401 -0.3983  0.6104
 5957TIP3   OH239429   0.832   1.387   1.705 -0.0647  0.7968 -0.4915
 5957TIP3    H139430   0.883   1.315   1.743  0.5489  0.6524 -1.5246
 5957TIP3    H239431   0.842   1.459   1.767  0.7570  0.5201 -0.2834
 5958TIP3   OH239432   5.989   3.888   1.547 -0.3300  0.2215  0.0491
 5958TIP3    H139433   5.937   3.813   1.519  0.1239 -1.0274  2.3229
 5958TIP3    H239434   6.053   3.901   1.477 -0.7106 -1.2025 -0.5902
 5959TIP3   OH239435   6.808   6.093   0.039 -0.0921 -0.5048  0.4422
 5959TIP3    H139436   6.859   6.012   0.038 -0.6825 -0.9044  1.2894
 5959TIP3    H239437   6.721   6.066   0.069 -0.9931  0.0675 -1.5311
 5960TIP3   OH239438   3.367   5.043   0.481 -0.4712  0.2482  0.1252
 5960TIP3    H139439   3.356   4.957   0.441 -2.3708  0.3785  0.2478
 5960TIP3    H239440   3.333   5.032   0.570 -1.9677  1.3962 -0.2606
 5961TIP3   OH239441   2.794   1.850   1.145  0.2578  0.3241 -0.8745
 5961TIP3    H139442   2.789   1.915   1.075 -0.3893  3.1118  1.5685
 5961TIP3    H239443   2.884   1.816   1.140  0.9680  2.1998 -1.5599
 5962TIP3   OH239444   0.410   6.507   1.721  0.2670 -0.8034 -0.1665
 5962TIP3    H139445   0.497   6.515   1.760  0.0022 -3.2072  1.1130
 5962TIP3    H239446   0.408   6.418   1.688 -2.3689 -1.5433  1.6865
 5963TIP3   OH239447   4.054   2.163   7.017  0.4278 -0.3686 -0.5659
 5963TIP3    H139448   4.078   2.126   7.102  1.3463  0.1807 -0.5670
 5963TIP3    H239449   3.974   2.118   6.993 -0.4507  0.2280  1.0866
 5964TIP3   OH239450   0.799   3.993   7.088  0.2884  0.5306 -0.1125
 5964TIP3    H139451   0.713   3.996   7.130  0.8236  1.9949  0.9514
 5964TIP3    H239452   0.786   3.938   7.011 -1.3377 -0.1537  0.6061
 5965TIP3   OH239453   1.981   2.623   1.421  0.1763 -0.7734  0.4938
 5965TIP3    H139454   1.898   2.633   1.374  0.9352 -0.5126 -0.8258
 5965TIP3    H239455   1.988   2.703   1.474 -0.7566 -1.1389  1.2114
 5966TIP3   OH239456   4.660   3.123   1.446 -0.1233 -0.3559 -0.6052
 5966TIP3    H139457   4.672   3.034   1.412 -0.0304 -0.4132 -0.4230
 5966TIP3    H239458   4.671   3.114   1.541 -1.2386 -0.3477 -0.4595
 5967TIP3   OH239459   1.907   2.592   8.034  0.0667 -0.2613  0.1708
 5967TIP3    H139460   1.889   2.583   8.128 -0.5432  0.0644  0.0938
 5967TIP3    H239461   1.836   2.647   8.002  0.0376 -0.7196 -0.5669
 5968TIP3   OH239462   4.697   4.913   1.949 -0.1129 -0.6858 -0.3509
 5968TIP3    H139463   4.687   4.933   1.856  0.8656  0.4103 -0.2477
 5968TIP3    H239464   4.609   4.923   1.986 -0.3054 -0.0097 -0.9675
 5969TIP3   OH239465   3.094   3.832   1.628 -0.2851 -0.2108 -0.2762
 5969TIP3    H139466   3.046   3.755   1.599 -0.9918 -0.4386  1.3831
 5969TIP3    H239467   3.048   3.860   1.707 -0.0240  1.8925 -0.8014
 5970TIP3   OH239468   6.742   5.927   6.435  0.0685 -0.8242  0.4803
 5970TIP3    H139469   6.776   5.847   6.393  0.7322 -0.0164 -0.5791
 5970TIP3    H239470   6.705   5.897   6.517  2.1109 -1.9712  1.0613
 5971TIP3   OH239471   0.241   3.479   0.154 -0.2294  0.1642  0.4819
 5971TIP3    H139472   0.317   3.473   0.212 -0.6116  0.5812  1.0353
 5971TIP3    H239473   0.262   3.420   0.081  0.6399  0.3023  0.6024
 5972TIP3   OH239474   1.124   5.926   1.987  0.1730 -0.1797  0.3622
 5972TIP3    H139475   1.095   5.999   1.932 -1.1814 -0.5068  0.6014
 5972TIP3    H239476   1.176   5.870   1.929  1.2121  0.9424  0.1712
 5973TIP3   OH239477   4.819   5.264   0.507 -0.8805 -0.4282 -0.5509
 5973TIP3    H139478   4.737   5.232   0.546 -0.0520 -0.8798  0.9016
 5973TIP3    H239479   4.852   5.327   0.571 -0.0129 -0.3788 -1.0462
 5974TIP3   OH239480   0.964   5.495   0.866 -0.1559 -0.4336 -0.1709
 5974TIP3    H139481   1.021   5.422   0.839 -1.3502 -1.4273 -0.0794
 5974TIP3    H239482   0.911   5.514   0.789  1.1965  1.4363 -0.7173
 5975TIP3   OH239483   5.619   5.407   1.801  0.3743 -0.6735  0.7937
 5975TIP3    H139484   5.587   5.378   1.716  0.4105  2.0027 -0.2364
 5975TIP3    H239485   5.549   5.463   1.835  1.1801 -0.1090  1.5777
 5976TIP3   OH239486   3.503   4.776   0.137  0.1313  0.6957 -0.6171
 5976TIP3    H139487   3.525   4.844   0.073 -1.1298  3.1332  1.3493
 5976TIP3    H239488   3.407   4.768   0.132 -0.3783  2.7711  2.4259
 5977TIP3   OH239489   4.570   1.768   0.547  0.3215 -0.2285 -0.2985
 5977TIP3    H139490   4.598   1.686   0.507  3.0933  0.8231 -0.7249
 5977TIP3    H239491   4.612   1.836   0.495 -0.7226  1.4354  0.9308
 5978TIP3   OH239492   4.532   4.273   1.290  0.1497  0.3190 -0.2454
 5978TIP3    H139493   4.530   4.202   1.226  2.8169  0.0481 -0.1326
 5978TIP3    H239494   4.506   4.351   1.242  0.6016 -0.1455 -1.2580
 5979TIP3   OH239495   0.326   3.192   1.178 -0.0957 -0.4695 -0.3289
 5979TIP3    H139496   0.336   3.270   1.232 -0.6495  0.2138 -1.1921
 5979TIP3    H239497   0.248   3.148   1.214  0.0166 -0.4515 -0.0595
 5980TIP3   OH239498   2.561   6.665   1.594 -0.1905 -0.4669 -0.3012
 5980TIP3    H139499   2.649   6.674   1.558  0.5584 -1.8190  1.0808
 5980TIP3    H239500   2.568   6.699   1.683 -1.2357 -0.0144 -0.3751
 5981TIP3   OH239501   3.980   1.699   0.972 -0.2100  0.6524 -0.0738
 5981TIP3    H139502   4.005   1.791   0.969 -0.9054  0.8625  0.4095
 5981TIP3    H239503   4.011   1.669   1.058  0.4211  0.3056 -0.4107
 5982TIP3   OH239504   5.763   2.735   8.339  0.2972 -0.5676 -0.3292
 5982TIP3    H139505   5.685   2.711   8.389  0.3343  1.4388  0.8210
 5982TIP3    H239506   5.753   2.829   8.322  2.9113  0.0256  0.7959
 5983TIP3   OH239507   2.224   3.642   0.214  0.2212 -0.0839 -0.7348
 5983TIP3    H139508   2.274   3.595   0.147  0.0751  0.1489 -1.0077
 5983TIP3    H239509   2.174   3.574   0.259  0.3675 -0.2485 -0.8192
 5984TIP3   OH239510   1.503   2.843   7.981  0.4605 -0.2808 -0.5707
 5984TIP3    H139511   1.520   2.936   7.995  1.0900 -0.4276 -0.2806
 5984TIP3    H239512   1.588   2.808   7.952  0.2928 -0.8039 -0.4347
 5985TIP3   OH239513   6.238   4.133   2.137  0.0058  0.0596  0.3650
 5985TIP3    H139514   6.260   4.221   2.106 -0.9309 -0.1760 -1.0976
 5985TIP3    H239515   6.174   4.148   2.207  2.0552  0.5991  2.2435
 5986TIP3   OH239516   4.920   3.872   1.174  0.7990  0.3067  0.0898
 5986TIP3    H139517   4.909   3.950   1.119  0.4690 -0.6679 -1.2637
 5986TIP3    H239518   4.831   3.845   1.196  0.9222  0.6055  1.0255
 5987TIP3   OH239519   5.693   5.405   8.128  0.6813  0.4519 -0.2143
 5987TIP3    H139520   5.709   5.432   8.038  0.5297 -1.8315 -0.9872
 5987TIP3    H239521   5.599   5.416   8.140  0.2187 -1.7551 -1.3096
 5988TIP3   OH239522   6.563   5.754   8.119  0.2055  0.9449  0.5315
 5988TIP3    H139523   6.485   5.759   8.064 -0.3485 -0.4205  1.1271
 5988TIP3    H239524   6.542   5.686   8.184  1.6227  1.0446  1.1376
 5989TIP3   OH239525   3.189   6.708   2.214 -0.0760 -1.2845 -0.2874
 5989TIP3    H139526   3.113   6.652   2.198  0.2940 -1.6651 -0.7537
 5989TIP3    H239527   3.254   6.680   2.149  0.6177 -1.2495  0.3672
 5990TIP3   OH239528   4.054   1.283   0.978  0.0501 -0.6604 -0.9718
 5990TIP3    H139529   3.984   1.261   1.040 -0.5553  0.0615 -1.3737
 5990TIP3    H239530   4.084   1.369   1.007 -1.1137  0.2781 -2.4034
 5991TIP3   OH239531   4.163   2.377   0.105 -0.2285 -0.3761 -0.2605
 5991TIP3    H139532   4.105   2.326   0.049 -0.7819  1.0681 -1.0791
 5991TIP3    H239533   4.125   2.465   0.105  1.6132  0.4804 -0.3413
 5992TIP3   OH239534   0.721   2.993   1.975 -0.3040  0.2309 -0.5234
 5992TIP3    H139535   0.703   2.915   2.028  0.1819 -0.5291 -1.4317
 5992TIP3    H239536   0.809   2.977   1.939  0.7331  2.1621  0.9287
 5993TIP3   OH239537   2.907   0.137   1.516 -0.0221 -0.2629  0.3342
 5993TIP3    H139538   2.890   0.224   1.553  0.3532 -0.3197  0.6433
 5993TIP3    H239539   2.984   0.149   1.461 -0.6666 -0.1459 -0.5594
 5994TIP3   OH239540   5.235   3.484   0.899 -0.0121 -0.6817 -0.0440
 5994TIP3    H139541   5.245   3.409   0.840  2.5564 -0.1783 -0.3474
 5994TIP3    H239542   5.241   3.560   0.842 -0.8147 -0.2055  0.4907
 5995TIP3   OH239543   2.124   0.927   8.071 -0.8360 -0.6897 -0.2168
 5995TIP3    H139544   2.042   0.977   8.077  0.4861  1.4490  1.6200
 5995TIP3    H239545   2.128   0.878   8.153 -0.5991 -1.3821 -0.6336
 5996TIP3   OH239546   3.005   4.296   0.262 -1.0029 -0.1869 -0.1786
 5996TIP3    H139547   2.953   4.215   0.263 -0.4605 -0.5385 -0.0949
 5996TIP3    H239548   3.068   4.284   0.333  0.1455 -0.3968 -1.1991
 5997TIP3   OH239549   4.312   4.765   7.453 -1.0075  0.5756  0.2992
 5997TIP3    H139550   4.231   4.769   7.504 -0.6340 -0.2926  0.9880
 5997TIP3    H239551   4.345   4.676   7.467 -0.4814  0.5780 -0.8234
 5998TIP3   OH239552   1.522   1.610   2.038  0.0555  0.0504 -0.0200
 5998TIP3    H139553   1.518   1.699   2.072 -1.2811 -0.5309  1.4667
 5998TIP3    H239554   1.576   1.563   2.102 -0.4232 -0.5096 -0.0221
 5999TIP3   OH239555   3.972   1.088   8.132 -0.0818  0.1473 -0.4984
 5999TIP3    H139556   4.011   1.150   8.193  0.4001 -0.3643 -0.2852
 5999TIP3    H239557   3.966   1.137   8.050 -0.3776  0.7107 -0.1473
 6000TIP3   OH239558   1.431   0.944   2.255  0.3127 -0.3870  0.1987
 6000TIP3    H139559   1.347   0.939   2.209  0.8050  0.4262 -0.8283
 6000TIP3    H239560   1.488   0.882   2.208  0.8669  0.5740 -0.4323
 6001TIP3   OH239561   5.606   4.793   0.240  0.9461  0.4193 -0.1737
 6001TIP3    H139562   5.582   4.772   0.150  2.5291 -0.2407 -0.4844
 6001TIP3    H239563   5.649   4.878   0.234 -0.1845  1.0245  0.1817
 6002TIP3   OH239564   4.111   6.214   6.787  0.2707 -0.3407  0.5308
 6002TIP3    H139565   4.058   6.173   6.856  0.6221  0.8415  1.5300
 6002TIP3    H239566   4.051   6.277   6.746  0.2461 -0.6081  0.1487
 6003TIP3   OH239567   6.534   5.530   1.548  0.1462  0.8706  0.2686
 6003TIP3    H139568   6.560   5.508   1.458 -0.7166 -1.6337  0.5619
 6003TIP3    H239569   6.458   5.587   1.538 -0.3814  0.0324 -0.5994
 6004TIP3   OH239570   5.032   0.692   1.287 -0.1498 -0.0319 -0.3716
 6004TIP3    H139571   5.066   0.756   1.224 -0.4806  0.4782 -0.0359
 6004TIP3    H239572   5.011   0.743   1.365  1.6537 -0.8636  0.7288
 6005TIP3   OH239573   4.839   4.934   7.869 -0.1145  0.2610  0.1145
 6005TIP3    H139574   4.850   5.019   7.826 -0.4680  0.9716  1.3484
 6005TIP3    H239575   4.749   4.935   7.900 -0.2686 -0.7813 -0.2549
 6006TIP3   OH239576   1.631   3.019   2.153 -0.0816  0.8245 -0.1441
 6006TIP3    H139577   1.599   3.033   2.064 -1.6088  0.8693  0.3760
 6006TIP3    H239578   1.687   3.094   2.172 -1.6221  2.0429 -0.2644
 6007TIP3   OH239579   4.079   3.774   0.521  0.0370  0.0355  0.3485
 6007TIP3    H139580   4.149   3.813   0.469  0.0335  0.7963  0.9033
 6007TIP3    H239581   4.000   3.822   0.496 -0.1854 -0.4037  0.1814
 6008TIP3   OH239582   0.386   3.807   7.964  0.3148 -0.0624  0.0686
 6008TIP3    H139583   0.308   3.847   7.928  0.3936 -0.4066 -0.5058
 6008TIP3    H239584   0.380   3.714   7.939 -0.1648 -0.5616  1.8746
 6009TIP3   OH239585   0.608   4.174   8.368  0.1588 -0.7708  0.5029
 6009TIP3    H139586   0.573   4.125   8.294 -1.2483 -1.6324  1.6929
 6009TIP3    H239587   0.689   4.212   8.335 -0.3861 -1.1818 -1.4494
 6010TIP3   OH239588   5.736   2.181   7.180  0.3607  0.0391  0.4937
 6010TIP3    H139589   5.659   2.160   7.128  1.0389  0.8755 -0.9175
 6010TIP3    H239590   5.733   2.120   7.254 -0.8455 -0.9171 -0.3085
 6011TIP3   OH239591   3.902   6.455   2.147 -0.6781 -0.1494 -1.4491
 6011TIP3    H139592   3.894   6.379   2.204  1.2175  0.8226  0.2471
 6011TIP3    H239593   3.812   6.481   2.129 -1.6177  1.3011  3.7435
 6012TIP3   OH239594   3.117   3.898   7.370 -0.4707  0.3881  0.0955
 6012TIP3    H139595   3.163   3.897   7.286 -1.4961  2.2600 -0.5514
 6012TIP3    H239596   3.177   3.941   7.431 -0.5684  1.0125 -0.2438
 6013TIP3   OH239597   2.234   6.580   7.245  0.7428  0.3517 -0.1166
 6013TIP3    H139598   2.198   6.539   7.166 -1.0243  1.5034  0.0296
 6013TIP3    H239599   2.242   6.508   7.308  0.2164 -0.2245 -0.6973
 6014TIP3   OH239600   3.117   1.644   0.508 -0.4184 -0.4935 -0.1715
 6014TIP3    H139601   3.061   1.720   0.491  0.0729 -0.1282 -0.1711
 6014TIP3    H239602   3.205   1.672   0.482 -0.2033 -1.0032 -0.0107
 6015TIP3   OH239603   5.433   2.902   1.865  0.2097  0.1517  0.3941
 6015TIP3    H139604   5.488   2.980   1.850  0.1481 -0.0188 -0.7771
 6015TIP3    H239605   5.493   2.838   1.903  0.5524  0.3537  0.2006
 6016TIP3   OH239606   0.253   6.362   8.018  0.5909  0.0302 -0.0979
 6016TIP3    H139607   0.271   6.391   7.929 -0.1810  1.9841  0.3314
 6016TIP3    H239608   0.331   6.387   8.068  1.7173 -2.4754 -0.4344
 6017TIP3   OH239609   1.775   3.442   8.226  0.4520 -0.1934  0.2899
 6017TIP3    H139610   1.724   3.438   8.145 -0.3669  2.1850  0.5953
 6017TIP3    H239611   1.741   3.370   8.279 -1.6667  0.4401 -0.0820
 6018TIP3   OH239612   5.756   2.648   1.787 -0.4621 -0.2345  0.1610
 6018TIP3    H139613   5.851   2.652   1.792 -0.0426 -5.5456  2.1968
 6018TIP3    H239614   5.726   2.665   1.876 -1.2025 -0.9844  0.0713
 6019TIP3   OH239615   5.639   6.851   7.744  0.0362 -0.3106  0.6083
 6019TIP3    H139616   5.668   6.798   7.670  0.8033  2.4432 -1.2595
 6019TIP3    H239617   5.715   6.906   7.764 -1.1642  1.1556  1.3532
 6020TIP3   OH239618   5.359   3.496   0.078  0.0877 -0.3829 -1.2878
 6020TIP3    H139619   5.453   3.518   0.083  0.0779 -0.5980  1.4097
 6020TIP3    H239620   5.356   3.417   0.024  1.3076  0.2565 -2.3652
 6021TIP3   OH239621   0.873   2.307   8.533 -0.6519 -0.4502 -0.3490
 6021TIP3    H139622   0.805   2.243   8.513  0.0912 -2.3661  2.6164
 6021TIP3    H239623   0.942   2.289   8.469 -0.8766 -2.0041 -0.2015
 6022TIP3   OH239624   1.094   3.222   1.423  0.0465 -0.9268 -0.2529
 6022TIP3    H139625   1.004   3.251   1.435  0.3355 -0.2753  0.4626
 6022TIP3    H239626   1.118   3.252   1.336  0.6009  1.8163  0.7394
 6023TIP3   OH239627   0.974   6.828   0.604 -0.5200 -0.3294 -0.5823
 6023TIP3    H139628   1.057   6.782   0.608  0.2696  0.6496 -3.5947
 6023TIP3    H239629   0.968   6.875   0.687  2.2969  0.1328 -0.5596
 6024TIP3   OH239630   0.205   4.763   1.069  0.1655 -0.3282 -0.2153
 6024TIP3    H139631   0.130   4.745   1.012 -0.2513 -1.3946  0.6302
 6024TIP3    H239632   0.192   4.704   1.144  0.7444  0.9700  0.9339
 6025TIP3   OH239633   4.562   1.405   0.439  0.0976 -0.0491 -0.1309
 6025TIP3    H139634   4.591   1.412   0.530  1.5927 -0.5180 -0.5357
 6025TIP3    H239635   4.531   1.315   0.431  0.7154 -0.2549 -0.2739
 6026TIP3   OH239636   0.461   1.349   7.148  0.4367 -0.8760 -0.9786
 6026TIP3    H139637   0.455   1.444   7.153 -1.6232 -0.9884 -0.5619
 6026TIP3    H239638   0.377   1.322   7.111  0.9598 -2.5472 -1.0148
 6027TIP3   OH239639   2.428   0.719   8.246 -0.5309 -0.1385 -1.0558
 6027TIP3    H139640   2.501   0.718   8.185 -0.2315 -1.9199 -0.7301
 6027TIP3    H239641   2.358   0.671   8.200 -0.8252 -0.1601 -0.5924
 6028TIP3   OH239642   0.287   1.062   7.925  0.5895 -0.4695  0.5499
 6028TIP3    H139643   0.203   1.108   7.921  1.1562  0.5286 -1.6223
 6028TIP3    H239644   0.306   1.055   8.018 -0.4559  2.0300  1.0464
 6029TIP3   OH239645   0.551   0.430   7.052  0.2274  0.0099 -0.2205
 6029TIP3    H139646   0.534   0.521   7.077  0.1831  0.0645 -0.4488
 6029TIP3    H239647   0.497   0.378   7.111  0.4504  0.1218  0.0864
 6030TIP3   OH239648   2.699   5.841   8.163  0.0988  0.0153 -0.1226
 6030TIP3    H139649   2.792   5.853   8.145 -0.0340  1.2638 -0.0786
 6030TIP3    H239650   2.656   5.857   8.079 -0.0633 -0.9481 -0.2353
 6031TIP3   OH239651   4.266   3.880   7.633  0.9065 -0.0104 -0.2626
 6031TIP3    H139652   4.258   3.973   7.650 -1.5359  0.2538 -2.2663
 6031TIP3    H239653   4.232   3.837   7.711  0.0613  0.8399 -0.1564
 6032TIP3   OH239654   4.034   4.983   8.330 -0.3732 -0.2804 -0.2410
 6032TIP3    H139655   4.034   5.059   8.272  0.5405 -2.4840 -3.3987
 6032TIP3    H239656   3.943   4.955   8.334 -0.3592 -0.5150 -1.2771
 6033TIP3   OH239657   4.199   2.321   0.757 -0.0985  0.2926  0.3182
 6033TIP3    H139658   4.169   2.326   0.848 -0.6426  0.0052  0.1570
 6033TIP3    H239659   4.167   2.237   0.726 -0.2039  0.5391 -0.2469
 6034TIP3   OH239660   1.229   0.630   8.278 -0.2766  0.6295  0.2768
 6034TIP3    H139661   1.133   0.636   8.281 -0.3759 -0.8940  0.6768
 6034TIP3    H239662   1.247   0.580   8.199  0.1794  0.6244  0.3826
 6035TIP3   OH239663   0.776   3.461   0.373 -0.3348 -0.3271 -0.0756
 6035TIP3    H139664   0.809   3.545   0.405  0.0823 -0.7236  0.5514
 6035TIP3    H239665   0.805   3.458   0.282  1.6684 -0.7837  0.5157
 6036TIP3   OH239666   4.075   0.775   1.311 -0.1128  0.1355  0.2553
 6036TIP3    H139667   4.042   0.860   1.342  1.2887  0.6557  0.3954
 6036TIP3    H239668   4.047   0.713   1.377 -1.3976  0.4265  0.0149
 6037TIP3   OH239669   0.829   0.156   2.191 -0.8921 -0.1080 -0.2568
 6037TIP3    H139670   0.761   0.151   2.258 -0.6251 -2.7363 -0.1168
 6037TIP3    H239671   0.886   0.082   2.209 -0.0368 -0.0713 -2.5759
 6038TIP3   OH239672   4.640   1.898   0.986  0.1255  0.4882 -0.0365
 6038TIP3    H139673   4.656   1.973   0.930 -1.4683  0.5202 -0.5103
 6038TIP3    H239674   4.595   1.835   0.930 -1.6855  0.5978  1.1823
 6039TIP3   OH239675   4.988   2.901   7.418  0.4345 -0.3491 -0.2017
 6039TIP3    H139676   5.043   2.958   7.364 -0.3075  1.4459  0.8274
 6039TIP3    H239677   4.904   2.899   7.374 -0.2017  1.1970  0.8584
 6040TIP3   OH239678   2.175   6.417   7.946 -0.1964  0.4195 -0.3064
 6040TIP3    H139679   2.084   6.397   7.923 -0.7903  2.0858  0.4194
 6040TIP3    H239680   2.226   6.344   7.910 -1.8528 -0.7554 -0.3819
 6041TIP3   OH239681   6.724   1.782   8.074  0.0337  0.0650 -0.2731
 6041TIP3    H139682   6.684   1.701   8.105 -0.1973  0.1586 -0.3264
 6041TIP3    H239683   6.656   1.825   8.022  0.0884  0.3874 -0.0823
 6042TIP3   OH239684   2.029   2.337   8.266  0.6350 -0.0829  0.3922
 6042TIP3    H139685   2.048   2.430   8.279  0.2696 -0.1629  1.7277
 6042TIP3    H239686   2.106   2.301   8.223  0.0295  1.1902 -1.9090
 6043TIP3   OH239687   4.032   5.274   0.915  0.6783  1.0828  0.2160
 6043TIP3    H139688   4.082   5.338   0.865 -0.9410  2.6325  0.4946
 6043TIP3    H239689   3.945   5.273   0.874 -0.1061  0.9887  1.7882
 6044TIP3   OH239690   0.993   1.738   0.556 -0.7349 -0.0475  0.2205
 6044TIP3    H139691   0.956   1.710   0.639  0.3833  1.2729  1.2223
 6044TIP3    H239692   0.956   1.825   0.541 -0.1474  0.1490 -0.1400
 6045TIP3   OH239693   2.094   2.064   6.834  0.0276 -0.1444 -0.0259
 6045TIP3    H139694   2.034   2.139   6.840 -0.1985  0.0903 -3.2206
 6045TIP3    H239695   2.040   1.993   6.799  0.8905 -0.9154  0.1840
 6046TIP3   OH239696   6.537   6.470   7.735  0.3838 -0.6308  0.7127
 6046TIP3    H139697   6.632   6.471   7.720  0.5179  2.3306  1.1601
 6046TIP3    H239698   6.527   6.434   7.823  1.3877  1.4667  1.7524
 6047TIP3   OH239699   2.093   1.964   8.044 -0.1493  0.2192 -0.0115
 6047TIP3    H139700   2.141   2.000   7.969  0.0105 -0.4974 -0.2601
 6047TIP3    H239701   2.003   1.993   8.030 -0.1378  0.0126 -0.5376
 6048TIP3   OH239702   0.461   2.225   0.706 -0.4214  0.1490 -0.3133
 6048TIP3    H139703   0.451   2.283   0.782  1.3648  0.6624 -0.4348
 6048TIP3    H239704   0.507   2.279   0.641  1.9548 -1.5710 -0.1773
 6049TIP3   OH239705   0.695   3.674   7.076  0.6690 -0.5316  0.4957
 6049TIP3    H139706   0.613   3.697   7.119 -1.0121  0.7853 -3.0806
 6049TIP3    H239707   0.698   3.578   7.080 -2.1131 -0.7595 -0.9628
 6050TIP3   OH239708   0.238   1.102   0.349  0.1591 -0.2492 -0.2365
 6050TIP3    H139709   0.329   1.081   0.330 -0.1050 -1.2485 -0.4602
 6050TIP3    H239710   0.229   1.086   0.443  0.4278  0.6990 -0.0430
 6051TIP3   OH239711   5.598   2.406   8.577  0.0171 -0.7502 -0.0437
 6051TIP3    H139712   5.513   2.444   8.601 -0.3495 -1.3137 -0.4251
 6051TIP3    H239713   5.648   2.406   8.659  0.1130  0.7632 -0.0848
 6052TIP3   OH239714   0.621   4.882   7.184 -0.0748 -0.0344 -0.0148
 6052TIP3    H139715   0.532   4.914   7.168 -0.2285 -0.2445  0.4250
 6052TIP3    H239716   0.664   4.891   7.099 -0.5576 -0.0619 -0.2703
 6053TIP3   OH239717   4.193   0.333   1.655  0.6781 -0.0596 -0.4800
 6053TIP3    H139718   4.191   0.266   1.723  0.0733  1.3801  0.9755
 6053TIP3    H239719   4.286   0.353   1.644  0.9714 -1.8877 -1.7561
 6054TIP3   OH239720   3.747   5.313   6.834  0.1863  0.4102  0.1966
 6054TIP3    H139721   3.673   5.370   6.813  0.6935  0.5721 -1.2906
 6054TIP3    H239722   3.804   5.319   6.758  2.1205  0.8755  1.6008
 6055TIP3   OH239723   6.491   3.388   8.053  0.1347  0.7065  0.0501
 6055TIP3    H139724   6.496   3.324   8.124  2.6976 -0.7425 -1.3062
 6055TIP3    H239725   6.422   3.449   8.081 -0.7051 -1.2124  2.5550
 6056TIP3   OH239726   5.016   2.886   8.028 -0.7270  0.1305  0.2784
 6056TIP3    H139727   4.921   2.879   8.033 -0.8617  0.5431 -1.1232
 6056TIP3    H239728   5.035   2.884   7.934  0.7229 -0.7527  0.5562
 6057TIP3   OH239729   2.977   6.707   0.588  0.0672  0.3117 -0.2234
 6057TIP3    H139730   2.953   6.800   0.592  0.5541  0.4272  0.0885
 6057TIP3    H239731   3.057   6.706   0.535 -0.3558 -0.0137 -0.8540
 6058TIP3   OH239732   0.232   4.445   1.643  0.1037 -0.2115  0.7341
 6058TIP3    H139733   0.282   4.377   1.600  0.9798  1.5364 -1.1946
 6058TIP3    H239734   0.146   4.442   1.601  0.8521  1.2692 -1.0630
 6059TIP3   OH239735   1.419   5.698   7.871 -0.3725 -0.3802  0.1331
 6059TIP3    H139736   1.374   5.616   7.851  1.1589 -2.0917  3.1164
 6059TIP3    H239737   1.510   5.674   7.883  0.6284  2.2538 -1.2517
 6060TIP3   OH239738   0.047   3.470   0.987 -0.1238 -0.4197  0.2390
 6060TIP3    H139739   0.047   3.391   1.040  1.1552 -1.0274 -0.6015
 6060TIP3    H239740   0.075   3.540   1.046 -1.6378 -0.4934  1.0839
 6061TIP3   OH239741   4.792   6.504   0.395 -0.5648  0.2598 -0.0469
 6061TIP3    H139742   4.784   6.574   0.461 -1.3640 -2.1789  2.6700
 6061TIP3    H239743   4.883   6.476   0.401 -0.2146  1.0648 -1.2197
 6062TIP3   OH239744   5.102   5.666   7.549 -1.0850 -0.3993  0.2325
 6062TIP3    H139745   5.160   5.602   7.507 -1.0135 -0.1604 -0.0407
 6062TIP3    H239746   5.019   5.619   7.561 -1.3328 -0.2743 -0.8215
 6063TIP3   OH239747   3.884   1.269   7.078  0.0243  0.3591  0.1069
 6063TIP3    H139748   3.920   1.250   6.991  0.2153 -1.4915  0.5350
 6063TIP3    H239749   3.791   1.246   7.071  0.0062  0.3546  0.3459
 6064TIP3   OH239750   1.990   4.166   0.173  0.0181 -0.7208 -0.1956
 6064TIP3    H139751   2.052   4.104   0.135  0.6814 -0.1193 -0.1415
 6064TIP3    H239752   1.972   4.228   0.103  2.9812  1.7007  0.9535
 6065TIP3   OH239753   5.388   4.529   0.699  0.5254 -0.0944 -0.4523
 6065TIP3    H139754   5.469   4.485   0.724  0.8793 -0.0262 -1.4235
 6065TIP3    H239755   5.408   4.570   0.615 -0.6006 -0.2951 -0.8343
 6066TIP3   OH239756   2.984   4.358   3.078  0.9738  0.3294  0.0907
 6066TIP3    H139757   3.007   4.416   3.150  0.1684  1.1644 -0.2894
 6066TIP3    H239758   3.012   4.406   2.999  2.4270 -0.8497 -0.1408
 6067TIP3   OH239759   1.588   4.481   8.670  0.3399  0.2291  0.5000
 6067TIP3    H139760   1.605   4.545   8.601 -0.4318  1.5701  1.5098
 6067TIP3    H239761   1.496   4.458   8.661 -0.2402  1.7249  2.0878
 6068TIP3   OH239762   2.247   2.161   7.305  0.4118  0.5782 -0.3092
 6068TIP3    H139763   2.315   2.209   7.258  1.3516 -0.9201 -0.5339
 6068TIP3    H239764   2.262   2.181   7.397  2.7231 -1.5641 -0.1163
 6069TIP3   OH239765   5.762   5.175   2.406 -0.1316  0.1331 -0.0020
 6069TIP3    H139766   5.724   5.212   2.485 -2.3850  0.1600 -1.0201
 6069TIP3    H239767   5.756   5.080   2.417  1.7283  0.0793  0.8119
 6070TIP3   OH239768   5.491   0.491   0.624  0.0305  0.0602 -0.1208
 6070TIP3    H139769   5.478   0.398   0.645  2.0550 -0.3703 -0.6051
 6070TIP3    H239770   5.497   0.493   0.528  0.2363  0.6594 -0.0955
 6071TIP3   OH239771   1.120   5.688   8.106  0.3128  0.1755  0.3275
 6071TIP3    H139772   1.160   5.766   8.146 -0.7009  1.3213 -0.8073
 6071TIP3    H239773   1.098   5.632   8.181  0.5040  1.2483  1.2148
 6072TIP3   OH239774   4.049   2.392   7.537 -0.3932  0.4938 -0.1764
 6072TIP3    H139775   3.992   2.370   7.610 -1.2189 -2.7252 -1.5954
 6072TIP3    H239776   4.120   2.328   7.542  0.2818  1.1265 -1.3674
 6073TIP3   OH239777   1.446   3.198   7.042  0.3706 -0.3183 -0.0760
 6073TIP3    H139778   1.463   3.215   6.949 -1.3976  0.7535 -0.2668
 6073TIP3    H239779   1.481   3.274   7.088 -0.9975  0.4186 -0.1742
 6074TIP3   OH239780   0.722   6.799   2.587  0.1112 -0.2033  0.2457
 6074TIP3    H139781   0.681   6.869   2.638 -2.6290  0.8471 -2.9617
 6074TIP3    H239782   0.793   6.843   2.539 -0.5819  0.0549 -0.5690
 6075TIP3   OH239783   0.373   1.947   0.725 -0.0194  0.3665 -0.2207
 6075TIP3    H139784   0.412   1.919   0.808  1.4777  1.5453 -0.4742
 6075TIP3    H239785   0.413   2.032   0.707  0.7457 -0.4432 -2.8096
 6076TIP3   OH239786   4.146   5.859   1.514 -0.3265  0.1751  0.5271
 6076TIP3    H139787   4.095   5.778   1.512  1.6054 -1.0972 -0.0835
 6076TIP3    H239788   4.197   5.853   1.595 -0.6035  1.0907  0.7797
 6077TIP3   OH239789   6.128   4.075   0.326 -0.4379 -0.7020 -0.3386
 6077TIP3    H139790   6.161   4.153   0.371 -0.4073  0.0807 -1.6838
 6077TIP3    H239791   6.058   4.043   0.383 -0.6791  0.4977  0.0841
 6078TIP3   OH239792   4.669   1.558   1.119 -0.5693  0.4608  0.3903
 6078TIP3    H139793   4.647   1.592   1.032 -0.5436 -1.1921 -0.2927
 6078TIP3    H239794   4.589   1.571   1.170 -1.5507 -1.0198 -0.6839
 6079TIP3   OH239795   5.563   0.631   7.458 -0.1451  0.4062 -0.5696
 6079TIP3    H139796   5.658   0.633   7.471 -0.3487  1.0907  0.9963
 6079TIP3    H239797   5.551   0.657   7.366  1.1262  1.3694 -0.4875
 6080TIP3   OH239798   2.449   0.889   2.571 -0.4257 -0.2709  0.1468
 6080TIP3    H139799   2.404   0.814   2.531 -1.1728 -0.0277  0.5175
 6080TIP3    H239800   2.519   0.850   2.623 -1.2919 -0.7612  0.9568
 6081TIP3   OH239801   1.131   2.327   1.688  0.8562 -0.3673 -0.0986
 6081TIP3    H139802   1.129   2.265   1.762  1.0517 -0.1485  0.0917
 6081TIP3    H239803   1.043   2.362   1.684  1.1064  0.3890  0.6922
 6082TIP3   OH239804   0.066   4.121   2.385 -0.2983  0.5526  0.3103
 6082TIP3    H139805   0.154   4.094   2.360 -1.2666 -1.0088 -1.6419
 6082TIP3    H239806   0.070   4.217   2.387  1.3730  0.5195  0.0473
 6083TIP3   OH239807   3.742   2.226   1.065 -0.2023  0.2277  0.5517
 6083TIP3    H139808   3.789   2.204   0.985 -1.1924  0.4555 -0.1080
 6083TIP3    H239809   3.809   2.225   1.133  0.6800  0.1685 -0.2979
 6084TIP3   OH239810   1.822   2.590   8.298  0.3254 -0.1275 -0.3415
 6084TIP3    H139811   1.854   2.609   8.386 -1.0657 -0.0303  0.1655
 6084TIP3    H239812   1.727   2.586   8.308 -0.2091  3.2670 -2.4412
 6085TIP3   OH239813   2.825   3.579   1.758  0.6679 -0.0269  0.3941
 6085TIP3    H139814   2.876   3.535   1.825  1.8064  1.3592  0.4788
 6085TIP3    H239815   2.786   3.654   1.802  3.2307  2.2286 -0.8456
 6086TIP3   OH239816   3.062   6.029   1.295 -0.2522 -0.6529  0.1735
 6086TIP3    H139817   3.098   5.995   1.213 -0.3173 -1.3673  0.4357
 6086TIP3    H239818   3.083   6.123   1.293 -0.0955 -0.6954 -0.5730
 6087TIP3   OH239819   2.255   4.372   8.640  0.0638 -0.0022  0.7669
 6087TIP3    H139820   2.275   4.278   8.648  1.9157  0.3118  0.3074
 6087TIP3    H239821   2.333   4.416   8.672  0.2109  1.3485 -1.2403
 6088TIP3   OH239822   2.693   4.926   7.499 -0.4723 -0.3374 -0.1401
 6088TIP3    H139823   2.709   4.961   7.411 -0.7325 -1.2321 -0.5563
 6088TIP3    H239824   2.717   4.834   7.493  0.8663 -0.1086  1.1231
 6089TIP3   OH239825   1.741   4.252   8.066 -0.0299  0.0539  0.6046
 6089TIP3    H139826   1.781   4.274   8.150 -0.7792  0.1782  0.9313
 6089TIP3    H239827   1.649   4.236   8.086 -0.6209  1.8668 -0.4640
 6090TIP3   OH239828   6.549   3.342   0.394 -0.7281  0.6334  0.0582
 6090TIP3    H139829   6.467   3.385   0.417 -1.5746 -0.1589 -1.3253
 6090TIP3    H239830   6.530   3.297   0.311  1.2014  0.7146 -0.4718
 6091TIP3   OH239831   6.808   0.541   2.091 -0.0585  0.2720 -0.5893
 6091TIP3    H139832   6.744   0.483   2.049  0.4304  0.9755 -2.4181
 6091TIP3    H239833   6.792   0.627   2.052  1.4756  0.6319 -0.5070
 6092TIP3   OH239834   6.467   3.819   1.163 -0.0311  0.1328 -0.0872
 6092TIP3    H139835   6.397   3.755   1.150 -0.2082 -0.4148  2.8714
 6092TIP3    H239836   6.504   3.831   1.076 -1.9296 -1.7258 -1.2644
 6093TIP3   OH239837   0.837   4.414   8.450 -0.7166 -0.3620 -0.2412
 6093TIP3    H139838   0.811   4.465   8.373 -0.2967  1.2166  0.6349
 6093TIP3    H239839   0.933   4.415   8.448 -0.6650 -2.0761 -0.7931
 6094TIP3   OH239840   4.218   5.276   2.070  0.0815  0.1016 -0.2672
 6094TIP3    H139841   4.182   5.191   2.042 -0.1044  0.7580 -2.2215
 6094TIP3    H239842   4.260   5.310   1.991 -0.9628  2.4043  0.1199
 6095TIP3   OH239843   5.114   2.637   0.319  0.1822  0.0788 -1.1311
 6095TIP3    H139844   5.168   2.716   0.313 -0.5006  0.5798 -0.8803
 6095TIP3    H239845   5.049   2.658   0.386 -0.1519 -0.6125 -1.2333
 6096TIP3   OH239846   6.379   1.555   1.765  0.1904 -0.3141  0.3241
 6096TIP3    H139847   6.449   1.618   1.783 -0.8805  0.7390  0.9650
 6096TIP3    H239848   6.310   1.578   1.826 -1.2734 -0.4395 -1.2167
 6097TIP3   OH239849   4.708   4.393   7.289 -0.2501  0.6397 -0.2189
 6097TIP3    H139850   4.678   4.306   7.264 -0.1920  0.4893  0.2185
 6097TIP3    H239851   4.628   4.445   7.296 -0.4951  0.1176  1.4169
 6098TIP3   OH239852   5.692   3.781   8.173  0.2279 -0.1016  0.0835
 6098TIP3    H139853   5.654   3.724   8.240  1.2735 -0.2765  0.5634
 6098TIP3    H239854   5.731   3.853   8.222 -2.3713  1.9262 -0.5946
 6099TIP3   OH239855   5.613   3.898   1.522 -0.2300 -0.1023 -0.2807
 6099TIP3    H139856   5.657   3.916   1.605 -0.6984 -1.5619  0.3148
 6099TIP3    H239857   5.529   3.943   1.530 -0.7774 -1.1954  0.5804
 6100TIP3   OH239858   6.322   2.441   0.524 -0.7975  1.1364 -0.7677
 6100TIP3    H139859   6.261   2.396   0.465 -0.1362 -0.7439 -0.0763
 6100TIP3    H239860   6.297   2.413   0.611  2.3918 -1.6038 -0.5552
 6101TIP3   OH239861   1.316   2.821   7.659  0.0006 -0.1075  0.6790
 6101TIP3    H139862   1.401   2.823   7.615 -0.8427  0.0559 -1.0132
 6101TIP3    H239863   1.335   2.847   7.749  1.7233 -0.0100  0.3153
 6102TIP3   OH239864   2.043   4.405   8.189  1.4312 -0.5770 -0.3792
 6102TIP3    H139865   2.030   4.377   8.098 -0.7133  0.5140 -0.4660
 6102TIP3    H239866   2.106   4.477   8.183  0.2169  0.4659 -1.2317
 6103TIP3   OH239867   4.553   3.864   6.678  0.0758 -0.4116 -0.0232
 6103TIP3    H139868   4.513   3.902   6.600 -0.7904  0.6141  0.8859
 6103TIP3    H239869   4.492   3.796   6.706  1.4013 -2.2777 -1.3826
 6104TIP3   OH239870   3.709   1.548   1.850  0.2789  0.4956 -0.4549
 6104TIP3    H139871   3.630   1.554   1.796  0.0647  1.4486 -0.0696
 6104TIP3    H239872   3.714   1.456   1.876 -2.1813  0.8310  1.6347
 6105TIP3   OH239873   4.799   6.508   8.249  0.1179 -0.0643 -0.4914
 6105TIP3    H139874   4.853   6.554   8.185 -0.4932 -0.5650 -1.3802
 6105TIP3    H239875   4.808   6.415   8.227 -1.8246 -0.1187 -1.2796
 6106TIP3   OH239876   3.456   6.833   1.836 -0.1586 -0.2572  0.7298
 6106TIP3    H139877   3.457   6.740   1.860  0.1838 -0.7900 -1.1959
 6106TIP3    H239878   3.369   6.847   1.798  0.1914 -0.0943 -0.0254
 6107TIP3   OH239879   6.510   3.240   2.310 -0.3972  0.5335  0.0125
 6107TIP3    H139880   6.543   3.191   2.234 -1.4219 -0.7466  0.3602
 6107TIP3    H239881   6.510   3.331   2.281 -0.4343  0.1074 -1.4031
 6108TIP3   OH239882   3.150   0.167   1.354 -0.0267  0.4944  0.8918
 6108TIP3    H139883   3.204   0.098   1.317  1.8236  1.9170  0.7507
 6108TIP3    H239884   3.113   0.212   1.278 -0.3606  0.3002  0.9412
 6109TIP3   OH239885   5.456   4.085   2.086  0.6384 -0.2902 -0.4041
 6109TIP3    H139886   5.449   4.181   2.094  1.9051 -0.0394 -1.8294
 6109TIP3    H239887   5.504   4.058   2.164  0.6523  0.2914 -0.2029
 6110TIP3   OH239888   4.439   5.296   7.352 -0.3238  0.0472  0.3873
 6110TIP3    H139889   4.531   5.303   7.379 -0.2801 -0.3171  0.3377
 6110TIP3    H239890   4.432   5.207   7.316 -0.7570 -0.0131  0.6234
 6111TIP3   OH239891   3.441   1.538   0.618 -0.5155  0.6930 -0.3557
 6111TIP3    H139892   3.411   1.590   0.693  3.3533  0.4388  1.6596
 6111TIP3    H239893   3.394   1.455   0.625 -1.6052  1.3745  0.6506
 6112TIP3   OH239894   2.277   2.738   0.172 -0.5684 -0.1400  0.1108
 6112TIP3    H139895   2.311   2.705   0.255  0.0350 -0.5960 -0.3047
 6112TIP3    H239896   2.227   2.664   0.136 -0.7689  0.0319  0.0325
 6113TIP3   OH239897   3.549   5.039   7.752  0.1255 -0.1454  0.0083
 6113TIP3    H139898   3.505   4.966   7.708 -0.2057 -1.2651  2.0673
 6113TIP3    H239899   3.631   5.050   7.704 -0.2565 -1.2297 -0.9368
 6114TIP3   OH239900   4.248   3.095   7.382  0.9715 -0.3596 -0.4275
 6114TIP3    H139901   4.270   3.077   7.473  0.1255  0.9501  0.0620
 6114TIP3    H239902   4.242   3.009   7.341  0.2776 -1.0373  1.0212
 6115TIP3   OH239903   4.051   3.196   0.133  0.0170 -0.5243  0.1677
 6115TIP3    H139904   4.107   3.192   0.210 -0.1040  2.6402  0.5839
 6115TIP3    H239905   3.964   3.171   0.165 -0.4123  2.3645  1.6610
 6116TIP3   OH239906   1.265   3.867   7.729  0.0027  0.0546  0.0392
 6116TIP3    H139907   1.324   3.819   7.671 -0.5545  0.3612 -0.7998
 6116TIP3    H239908   1.184   3.877   7.679 -1.7200 -2.5050  2.0217
 6117TIP3   OH239909   1.858   3.256   2.023  0.2285  0.2785  0.0908
 6117TIP3    H139910   1.881   3.341   1.985 -2.7412  1.1057 -0.1448
 6117TIP3    H239911   1.833   3.276   2.113 -0.0501 -0.4154  0.1751
 6118TIP3   OH239912   3.281   0.959   1.457  0.0587  0.5543  0.2913
 6118TIP3    H139913   3.334   0.920   1.526 -0.6920  0.4397  0.8177
 6118TIP3    H239914   3.253   1.044   1.493 -0.0958  0.6242  0.0129
 6119TIP3   OH239915   1.216   0.271   1.635 -0.2411  0.0308 -0.4843
 6119TIP3    H139916   1.286   0.288   1.572  0.9491  0.4078  0.8734
 6119TIP3    H239917   1.213   0.176   1.642  0.8855  0.0317  0.2203
 6120TIP3   OH239918   0.024   2.193   2.120  0.0131  0.3762 -0.0123
 6120TIP3    H139919   0.035   2.102   2.147  0.8098  0.0811 -1.2192
 6120TIP3    H239920   0.067   2.197   2.034 -3.5075  0.9150 -1.9175
 6121TIP3   OH239921   5.963   5.709   2.564  0.1075 -0.5586 -0.2283
 6121TIP3    H139922   6.003   5.648   2.626 -3.7218 -1.8652  1.2547
 6121TIP3    H239923   5.944   5.656   2.486 -1.2550 -0.7407  0.2100
 6122TIP3   OH239924   6.074   0.469   8.539  0.0955  0.0969  0.1571
 6122TIP3    H139925   6.025   0.507   8.467 -0.2124 -0.1332  0.2429
 6122TIP3    H239926   6.011   0.464   8.611  0.0351 -0.8829  0.0469
 6123TIP3   OH239927   4.153   5.562   0.113 -0.2530  0.3412  0.2063
 6123TIP3    H139928   4.136   5.468   0.107 -1.4664  0.4441  1.5332
 6123TIP3    H239929   4.202   5.583   0.034  2.3864 -1.8900  1.0901
 6124TIP3   OH239930   5.877   1.459   7.525 -0.1172  0.1573 -0.0712
 6124TIP3    H139931   5.928   1.460   7.445  0.3592  1.5691  0.2176
 6124TIP3    H239932   5.922   1.396   7.582 -0.0663 -0.3372 -0.6471
 6125TIP3   OH239933   6.829   3.293   0.382 -0.6888  0.4018 -0.7073
 6125TIP3    H139934   6.733   3.301   0.388 -0.8568 -1.8711  1.0767
 6125TIP3    H239935   6.857   3.277   0.473  1.4804  1.6205 -1.1015
 6126TIP3   OH239936   2.396   3.272   0.927 -0.0854 -0.4069  0.8536
 6126TIP3    H139937   2.417   3.317   0.845  1.4767 -1.9503  0.3521
 6126TIP3    H239938   2.351   3.192   0.900 -3.7824  1.1499  1.7767
 6127TIP3   OH239939   3.012   0.957   0.154 -0.5402 -0.2433  0.0323
 6127TIP3    H139940   2.979   0.914   0.075  0.2153 -0.4987 -0.1568
 6127TIP3    H239941   3.107   0.946   0.149 -0.5295 -1.1683  1.4997
 6128TIP3   OH239942   1.015   5.486   1.543  0.2047  0.0081  0.5968
 6128TIP3    H139943   0.929   5.461   1.576  0.6474  1.3273  2.9514
 6128TIP3    H239944   1.070   5.409   1.561 -0.5835 -1.2185 -1.7878
 6129TIP3   OH239945   3.358   2.218   3.065 -0.6266  0.5841  0.1748
 6129TIP3    H139946   3.347   2.302   3.109  0.5024  1.0560 -0.3905
 6129TIP3    H239947   3.367   2.240   2.972 -0.2452 -0.1492  0.0276
 6130TIP3   OH239948   1.201   3.993   8.160 -0.0982 -0.2564  0.1643
 6130TIP3    H139949   1.120   3.971   8.114 -0.3811  0.6928  0.1763
 6130TIP3    H239950   1.269   3.981   8.094  0.0123 -2.7807  0.6383
 6131TIP3   OH239951   3.347   2.236   1.411 -0.0223 -0.1079 -0.2663
 6131TIP3    H139952   3.297   2.256   1.491  1.3127  1.0863  0.3174
 6131TIP3    H239953   3.425   2.291   1.418  1.5915 -2.1901 -0.9361
 6132TIP3   OH239954   6.193   6.550   8.678 -0.3742 -0.2018  0.8472
 6132TIP3    H139955   6.184   6.492   8.754 -2.0179  1.2543  1.8384
 6132TIP3    H239956   6.250   6.620   8.708 -0.4178 -0.0078  0.4873
 6133TIP3   OH239957   5.716   6.309   2.104 -1.1483  0.4932  0.2375
 6133TIP3    H139958   5.728   6.218   2.075 -1.7296  0.6701 -0.6017
 6133TIP3    H239959   5.621   6.318   2.115 -1.2169  1.3161 -0.8175
 6134TIP3   OH239960   2.327   6.780   2.687  0.2525 -0.0555 -0.3239
 6134TIP3    H139961   2.239   6.751   2.660 -0.3101  1.6521 -0.4756
 6134TIP3    H239962   2.383   6.759   2.612 -0.1833 -0.4369 -0.5509
 6135TIP3   OH239963   1.791   1.563   8.332 -0.5481  0.0096  0.4725
 6135TIP3    H139964   1.807   1.657   8.341 -0.6031  0.2449 -1.3801
 6135TIP3    H239965   1.796   1.547   8.237 -1.8982 -1.6121  0.6292
 6136TIP3   OH239966   0.029   3.519   8.645 -0.3574 -0.4397  0.8647
 6136TIP3    H139967   0.008   3.504   8.737 -0.3125 -2.1099  0.6419
 6136TIP3    H239968   0.116   3.482   8.633 -0.1559  0.2052  0.2502
 6137TIP3   OH239969   6.107   6.251   0.013 -0.4504  0.3348  0.6170
 6137TIP3    H139970   6.124   6.283  -0.075  0.2333 -1.3287  0.1202
 6137TIP3    H239971   6.031   6.195   0.004  0.6870 -1.2850  0.7123
 6138TIP3   OH239972   5.917   0.885   0.049 -0.1997  0.5490  0.6461
 6138TIP3    H139973   6.004   0.867   0.012  0.5981  2.0862  1.6685
 6138TIP3    H239974   5.866   0.918  -0.024  1.1900  3.0517  0.7103
 6139TIP3   OH239975   3.368   5.559   2.632 -0.0751 -0.1766  0.5961
 6139TIP3    H139976   3.343   5.504   2.706 -1.7691  0.2115  0.3687
 6139TIP3    H239977   3.460   5.540   2.617 -0.0599 -1.2803  1.9275
 6140TIP3   OH239978   5.815   0.979   8.032 -0.5580 -0.0365 -0.3415
 6140TIP3    H139979   5.735   1.020   8.001 -0.8365  0.0032  0.4031
 6140TIP3    H239980   5.790   0.939   8.116 -0.6610 -2.8377 -1.5874
 6141TIP3   OH239981   0.020   1.325   1.031  0.5915  0.8369 -0.4180
 6141TIP3    H139982  -0.043   1.346   1.100 -0.6209  0.8886 -1.5000
 6141TIP3    H239983   0.047   1.235   1.050  0.1592  0.7971  0.0299
 6142TIP3   OH239984   5.528   6.218   1.817 -0.0118  0.0628 -0.3525
 6142TIP3    H139985   5.444   6.240   1.856  1.0693  4.1368  0.1886
 6142TIP3    H239986   5.548   6.293   1.760  3.0262 -0.9788 -0.8382
 6143TIP3   OH239987   4.804   5.281   7.191 -0.6202 -0.2580 -0.0415
 6143TIP3    H139988   4.853   5.265   7.110  1.5065  2.1927  0.6210
 6143TIP3    H239989   4.803   5.376   7.201 -1.8792 -0.4224  2.1962
 6144TIP3   OH239990   1.383   0.730   1.530 -0.3482  0.5481  0.0643
 6144TIP3    H139991   1.291   0.712   1.508 -0.5170  0.2380  0.9754
 6144TIP3    H239992   1.399   0.678   1.609  0.8217  0.0319 -0.4777
 6145TIP3   OH239993   1.702   5.061   2.331 -0.2138 -0.3295 -0.3487
 6145TIP3    H139994   1.644   5.039   2.404  0.1479 -2.2409 -0.5867
 6145TIP3    H239995   1.707   4.981   2.279  1.2998  0.3042 -1.2515
 6146TIP3   OH239996   4.830   2.969   0.026 -0.2651  0.1533 -0.5926
 6146TIP3    H139997   4.800   3.016   0.104  3.0346  0.3885  0.7024
 6146TIP3    H239998   4.766   2.899   0.015 -1.4176  0.7273  1.7376
 6147TIP3   OH239999   4.311   1.162   0.884  0.5479 -0.2637 -0.0067
 6147TIP3    H140000   4.225   1.198   0.906  0.4102  0.3742 -1.4478
 6147TIP3    H240001   4.361   1.238   0.855  1.0526 -0.8871 -0.7955
 6148TIP3   OH240002   2.328   2.759   7.451  0.1105  0.0356  0.5301
 6148TIP3    H140003   2.401   2.739   7.393 -0.6990  1.1705 -0.9428
 6148TIP3    H240004   2.255   2.706   7.419  0.1780 -0.8803  1.8172
 6149TIP3   OH240005   1.410   5.138   2.195 -0.3818 -0.7622  0.0508
 6149TIP3    H140006   1.409   5.215   2.252  0.0415 -0.3302 -0.5125
 6149TIP3    H240007   1.474   5.078   2.235 -1.1366 -1.0730  0.8050
 6150TIP3   OH240008   0.967   1.030   0.044 -0.2481  0.0607 -0.0098
 6150TIP3    H140009   0.880   1.016   0.081 -0.3424  1.1028  0.1751
 6150TIP3    H240010   1.017   1.071   0.115  0.6144 -1.1421  0.1265
 6151TIP3   OH240011   1.393   6.535   8.385 -0.0630 -0.1897 -0.4152
 6151TIP3    H140012   1.344   6.455   8.365  0.2888 -0.4852 -0.1201
 6151TIP3    H240013   1.432   6.518   8.471  0.2485  0.1855 -0.4795
 6152TIP3   OH240014   4.443   6.672   7.160  0.2822  0.4252  0.1346
 6152TIP3    H140015   4.383   6.649   7.089 -0.9805  1.2454  0.8849
 6152TIP3    H240016   4.525   6.694   7.116 -0.4750  0.9490 -1.0765
 6153TIP3   OH240017   0.904   4.990   1.272 -0.1535 -0.2041  0.7139
 6153TIP3    H140018   0.890   5.075   1.312 -0.7306  0.4696 -0.8450
 6153TIP3    H240019   0.819   4.946   1.278 -0.6455  0.4388 -0.9067
 6154TIP3   OH240020   2.028   4.387   0.685  0.1783 -0.5594  0.2318
 6154TIP3    H140021   2.064   4.471   0.714  1.2688 -0.4743 -1.2619
 6154TIP3    H240022   2.066   4.323   0.744 -0.5122 -0.0639  1.2670
 6155TIP3   OH240023   3.816   3.456   8.688 -0.1387  0.4281  0.1940
 6155TIP3    H140024   3.854   3.534   8.650  1.4435 -0.2192  0.3898
 6155TIP3    H240025   3.872   3.435   8.763 -1.2854 -0.1674  0.9219
 6156TIP3   OH240026   3.003   1.639   0.125  0.0133 -0.4897 -0.3294
 6156TIP3    H140027   2.935   1.666   0.186  1.6655 -0.0634  1.4117
 6156TIP3    H240028   3.022   1.549   0.148  0.4360 -0.4269 -0.4305
 6157TIP3   OH240029   3.219   2.771   1.771  0.1366 -0.1747  0.4313
 6157TIP3    H140030   3.303   2.727   1.757 -0.0449 -0.2662 -0.4297
 6157TIP3    H240031   3.194   2.803   1.684 -1.7090 -1.8863  0.2585
 6158TIP3   OH240032   1.820   5.062   8.645 -0.0344 -0.0045  0.3033
 6158TIP3    H140033   1.759   5.078   8.573  0.1041  0.8363  0.3567
 6158TIP3    H240034   1.768   5.079   8.724  0.6937  2.6272  0.3375
 6159TIP3   OH240035   2.240   0.536   8.021 -0.2515 -0.3160 -0.7197
 6159TIP3    H140036   2.311   0.572   7.967 -1.2222  1.3734 -0.9353
 6159TIP3    H240037   2.282   0.468   8.073  1.5388  0.6108 -0.8636
 6160TIP3   OH240038   3.577   5.840   8.233  0.1904  0.0667 -0.5138
 6160TIP3    H140039   3.607   5.861   8.145  0.5345 -2.3574 -1.0463
 6160TIP3    H240040   3.496   5.791   8.220  0.6290 -0.9641  0.4422
 6161TIP3   OH240041   2.639   1.977   6.822  0.7814 -0.5136 -0.5609
 6161TIP3    H140042   2.547   2.002   6.815  1.2869  1.6646 -0.1286
 6161TIP3    H240043   2.648   1.945   6.912  0.4163 -0.9213 -0.6658
 6162TIP3   OH240044   3.860   3.599   8.010  0.9250 -0.4837  0.3023
 6162TIP3    H140045   3.846   3.600   7.915 -0.4711 -2.2933  0.4362
 6162TIP3    H240046   3.922   3.670   8.026 -0.7160  1.5231 -1.6677
 6163TIP3   OH240047   1.971   4.338   8.665  0.1067  0.7181 -0.0302
 6163TIP3    H140048   2.059   4.374   8.654 -0.2567  1.9230  0.7810
 6163TIP3    H240049   1.914   4.415   8.666 -0.7931  0.0542  0.8861
 6164TIP3   OH240050   1.513   6.438   8.629  0.5860  0.7084  0.5980
 6164TIP3    H140051   1.592   6.440   8.683  0.1116 -0.1423  1.3636
 6164TIP3    H240052   1.460   6.368   8.668 -0.0150  0.4571 -0.6417
 6165TIP3   OH240053   3.771   0.830   6.725  0.2175 -0.2305 -0.3594
 6165TIP3    H140054   3.681   0.838   6.694 -0.8062 -1.3886  1.9904
 6165TIP3    H240055   3.779   0.737   6.749  1.8588 -0.0247  0.0079
 6166TIP3   OH240056   3.427   0.525   7.117 -0.1933 -0.2438  0.0385
 6166TIP3    H140057   3.337   0.494   7.122  0.2267 -1.6715 -0.8174
 6166TIP3    H240058   3.433   0.570   7.032 -0.0737 -0.2095  0.0644
 6167TIP3   OH240059   6.142   0.578   7.705 -0.7027  0.3467 -0.3377
 6167TIP3    H140060   6.059   0.604   7.664 -0.3936  0.2441 -1.0469
 6167TIP3    H240061   6.116   0.533   7.785 -1.3545 -0.1966 -0.8430
 6168TIP3   OH240062   6.236   2.393   2.559  0.1414  0.4428  0.3299
 6168TIP3    H140063   6.231   2.337   2.637 -1.5011  2.5884  1.8705
 6168TIP3    H240064   6.330   2.399   2.540  0.4971 -1.1036  1.3524
 6169TIP3   OH240065   1.331   6.835   1.797 -0.3568  0.8807  0.0993
 6169TIP3    H140066   1.241   6.810   1.816 -0.2229 -0.5563 -1.0026
 6169TIP3    H240067   1.374   6.837   1.883 -0.7688 -1.2774  0.4218
 6170TIP3   OH240068   4.339   5.180   0.295 -0.0964 -0.4729  0.5656
 6170TIP3    H140069   4.278   5.140   0.232  0.9258 -2.7626  0.9542
 6170TIP3    H240070   4.317   5.273   0.292 -0.8378 -0.6270 -2.3682
 6171TIP3   OH240071   0.941   6.168   0.589  0.2659  0.1057  0.0020
 6171TIP3    H140072   1.036   6.176   0.576  0.0496  1.7483 -0.8744
 6171TIP3    H240073   0.917   6.088   0.544  1.1506  0.0102 -0.3213
 6172TIP3   OH240074   6.764   2.487   1.255  0.0984  0.4591  0.4641
 6172TIP3    H140075   6.768   2.392   1.269  2.0468  0.3585 -0.4142
 6172TIP3    H240076   6.855   2.514   1.251 -0.4272  2.3200  0.2287
 6173TIP3   OH240077   4.414   2.231   6.472  0.0607 -0.1793 -0.0270
 6173TIP3    H140078   4.325   2.254   6.498 -0.5452  0.6511 -2.5290
 6173TIP3    H240079   4.458   2.314   6.457  1.1055 -0.5904  0.5998
 6174TIP3   OH240080   1.280   0.220   2.378 -0.1192  0.4948  0.1486
 6174TIP3    H140081   1.262   0.214   2.284  2.6495 -2.4448 -0.3783
 6174TIP3    H240082   1.238   0.142   2.415 -1.0501  1.5478  1.3627
 6175TIP3   OH240083   6.528   2.588   8.671 -0.4433  0.1408 -0.1801
 6175TIP3    H140084   6.543   2.493   8.674 -0.5794  0.1105 -0.3979
 6175TIP3    H240085   6.573   2.622   8.748 -0.7775 -0.1551  0.1516
 6176TIP3   OH240086   6.379   3.267   8.504  0.0641  0.1879  0.2582
 6176TIP3    H140087   6.441   3.339   8.514  0.4588 -0.0869 -0.2008
 6176TIP3    H240088   6.416   3.212   8.435 -0.9797  0.3346 -0.4470
 6177TIP3   OH240089   2.705   3.708   7.650 -0.3102  0.1752  0.0436
 6177TIP3    H140090   2.762   3.770   7.604  0.7145 -2.4423 -2.5686
 6177TIP3    H240091   2.762   3.665   7.713 -0.2798 -0.0359 -0.1264
 6178TIP3   OH240092   3.567   2.717   2.576 -0.4256 -0.2380 -0.3979
 6178TIP3    H140093   3.565   2.784   2.644  0.0836 -1.2303  0.6293
 6178TIP3    H240094   3.526   2.641   2.616 -1.3837 -0.4340 -1.6863
 6179TIP3   OH240095   1.156   6.308   0.024  0.4607 -0.1652 -0.5873
 6179TIP3    H140096   1.247   6.289   0.044  0.6908  0.6886 -0.7882
 6179TIP3    H240097   1.143   6.398   0.052 -0.4078 -0.3741 -0.2807
 6180TIP3   OH240098   6.318   1.165   2.564 -0.1541  0.2847 -0.1531
 6180TIP3    H140099   6.291   1.075   2.582  0.7964 -0.2481 -1.2414
 6180TIP3    H240100   6.377   1.157   2.489  2.9484  1.3745  1.9682
 6181TIP3   OH240101   4.960   0.042   0.217 -0.5268 -0.0255  0.0082
 6181TIP3    H140102   5.039   0.096   0.210 -1.0029  0.6916  0.0145
 6181TIP3    H240103   4.939   0.042   0.311 -0.5807 -0.1439 -0.0038
 6182TIP3   OH240104   0.053   1.446   0.759 -0.2438 -0.0801  0.2404
 6182TIP3    H140105   0.112   1.452   0.684  0.5367 -0.8169  0.7738
 6182TIP3    H240106   0.028   1.354   0.763 -1.2682  0.1861  0.1532
 6183TIP3   OH240107   6.171   6.636   1.172 -0.1900 -0.0771 -0.3853
 6183TIP3    H140108   6.258   6.596   1.163 -0.5630 -1.0894  0.3494
 6183TIP3    H240109   6.111   6.572   1.134 -1.0301 -1.3288  2.7335
 6184TIP3   OH240110   3.523   6.850   1.549 -0.2587 -0.2550 -0.1125
 6184TIP3    H140111   3.523   6.846   1.645  0.3308  1.1730 -0.0218
 6184TIP3    H240112   3.498   6.762   1.521  1.6653 -1.3212  1.3270
 6185TIP3   OH240113   6.120   1.848   7.829  1.0393 -0.2289  0.2902
 6185TIP3    H140114   6.171   1.888   7.758 -1.7014  1.1181 -1.0939
 6185TIP3    H240115   6.053   1.796   7.785  0.2002 -0.6329  1.9447
 6186TIP3   OH240116   4.940   1.250   2.090  0.2236  0.6532  0.0804
 6186TIP3    H140117   5.022   1.203   2.098 -0.2083 -0.6940 -2.3253
 6186TIP3    H240118   4.943   1.317   2.158  1.4613 -1.9669  2.8218
 6187TIP3   OH240119   3.511   5.499   1.103  0.3196 -0.0621 -0.0489
 6187TIP3    H140120   3.569   5.575   1.093 -0.5566  0.8148  1.2637
 6187TIP3    H240121   3.517   5.475   1.195 -0.4715 -0.7175 -0.1522
 6188TIP3   OH240122   0.049   3.217   1.153 -0.1264  0.1247  0.3372
 6188TIP3    H140123  -0.018   3.186   1.091 -0.8082  1.0659  0.5860
 6188TIP3    H240124   0.009   3.207   1.239 -1.5031  4.1303  0.3296
 6189TIP3   OH240125   4.087   4.343   0.092  0.2788 -0.2550  0.1182
 6189TIP3    H140126   4.058   4.368   0.180  1.6404 -2.5516  1.3407
 6189TIP3    H240127   4.180   4.323   0.103  0.5815 -0.2029 -1.9622
 6190TIP3   OH240128   5.397   1.787   2.918 -0.3365  0.6735 -0.0600
 6190TIP3    H140129   5.472   1.826   2.963 -0.1109  0.7419 -0.4865
 6190TIP3    H240130   5.383   1.703   2.962 -0.7747  1.1902  0.8122
 6191TIP3   OH240131   0.250   1.690   1.895  0.6263 -0.0173 -0.6852
 6191TIP3    H140132   0.336   1.658   1.919  0.9374  0.0077 -1.6970
 6191TIP3    H240133   0.243   1.776   1.936  0.6168 -0.4891  0.3288
 6192TIP3   OH240134   1.955   2.711   1.805  0.1947  0.2477 -0.1117
 6192TIP3    H140135   2.017   2.725   1.877  1.2769 -1.1093 -0.7447
 6192TIP3    H240136   2.009   2.714   1.726 -0.8235  0.7047 -0.8107
 6193TIP3   OH240137   1.028   0.689   1.416  0.6444 -0.2751  0.4198
 6193TIP3    H140138   1.047   0.616   1.475  3.0613  0.2030  0.3230
 6193TIP3    H240139   1.041   0.767   1.469 -2.8332  0.1880  0.7895
 6194TIP3   OH240140   6.529   0.669   0.308  0.3748 -0.2808 -0.5688
 6194TIP3    H140141   6.515   0.575   0.297 -1.2668 -0.3351  1.3361
 6194TIP3    H240142   6.577   0.676   0.391 -0.4106  0.5967 -0.1789
 6195TIP3   OH240143   3.372   6.713   6.905 -0.6053 -0.1161  0.1135
 6195TIP3    H140144   3.295   6.691   6.853 -2.1685 -1.3099  2.7236
 6195TIP3    H240145   3.420   6.630   6.913  1.3001  0.7004 -1.8544
 6196TIP3   OH240146   5.428   1.609   2.199  0.0308 -0.3041  0.0256
 6196TIP3    H140147   5.366   1.570   2.261 -1.5836  2.4491  0.3058
 6196TIP3    H240148   5.462   1.534   2.150 -0.5347 -2.3238  2.4838
 6197TIP3   OH240149   4.121   3.573   7.555  0.0527  0.4053 -0.4110
 6197TIP3    H140150   4.143   3.495   7.503 -0.0188 -0.7241  1.1717
 6197TIP3    H240151   4.033   3.597   7.526 -0.2829 -0.6505 -0.3365
 6198TIP3   OH240152   4.289   3.874   2.490  0.3177  0.0763  0.1463
 6198TIP3    H140153   4.306   3.904   2.401 -0.2668  0.0371  0.0159
 6198TIP3    H240154   4.315   3.782   2.490 -1.0496 -0.3410 -0.4084
 6199TIP3   OH240155   5.203   2.566   1.799 -0.2364 -0.1848 -0.6657
 6199TIP3    H140156   5.123   2.606   1.833  0.9003  2.2842 -0.6974
 6199TIP3    H240157   5.235   2.512   1.872 -0.2057  1.4483  0.5747
 6200TIP3   OH240158   5.167   3.441   7.881  0.0043  0.0702  0.3389
 6200TIP3    H140159   5.258   3.459   7.904  0.4373 -1.0395 -0.4046
 6200TIP3    H240160   5.170   3.417   7.788 -1.3196  1.8929 -0.2360
 6201TIP3   OH240161   0.665   3.793   7.968 -0.1389  0.1348  0.2825
 6201TIP3    H140162   0.574   3.824   7.970 -0.0319  0.4292  1.7637
 6201TIP3    H240163   0.657   3.698   7.979 -0.2925  0.0983 -0.1363
 6202TIP3   OH240164   5.726   6.154   7.653 -0.4391  0.0468 -0.2486
 6202TIP3    H140165   5.636   6.181   7.669 -0.2001 -0.6811  3.0396
 6202TIP3    H240166   5.776   6.192   7.726  1.0982 -3.1766  0.5669
 6203TIP3   OH240167   0.204   3.909   1.805  0.2384 -0.4860  0.0844
 6203TIP3    H140168   0.258   3.856   1.747 -0.0748 -2.0913  1.2065
 6203TIP3    H240169   0.147   3.846   1.849 -1.0611  0.9300  0.5150
 6204TIP3   OH240170   2.698   1.466   2.264  0.2249  0.1239 -0.8144
 6204TIP3    H140171   2.636   1.440   2.331  3.3136 -2.9075  1.2197
 6204TIP3    H240172   2.726   1.554   2.291 -0.2283 -0.1330  0.6025
 6205TIP3   OH240173   2.524   1.479   7.455  0.3482  0.1507  0.2284
 6205TIP3    H140174   2.611   1.485   7.416  0.3114  1.1741  0.2708
 6205TIP3    H240175   2.532   1.527   7.537 -0.7670  2.0521 -0.7097
 6206TIP3   OH240176   6.162   1.914   0.280  0.7163  0.3186 -0.1831
 6206TIP3    H140177   6.135   1.905   0.188  0.2637 -1.0996  0.0731
 6206TIP3    H240178   6.080   1.909   0.329  1.1094 -0.6227  0.3931
 6207TIP3   OH240179   1.485   2.011   0.291  0.2387 -0.3044 -0.3792
 6207TIP3    H140180   1.472   2.105   0.278  1.0044 -0.3414 -1.5602
 6207TIP3    H240181   1.450   1.994   0.378  0.5261  1.1687  0.0498
 6208TIP3   OH240182   5.006   1.728   7.462 -0.3894  0.2015 -0.3665
 6208TIP3    H140183   5.051   1.805   7.427  0.5056  0.2418  0.8284
 6208TIP3    H240184   4.948   1.701   7.391 -1.1187  2.2678 -0.6462
 6209TIP3   OH240185   2.418   5.320   2.561  0.4407 -0.0836 -0.2263
 6209TIP3    H140186   2.338   5.305   2.511 -1.0224  1.1619  1.6190
 6209TIP3    H240187   2.466   5.384   2.508  1.0446 -1.9481 -2.1059
 6210TIP3   OH240188   6.034   5.122   7.160 -0.1679 -0.4628 -0.0260
 6210TIP3    H140189   6.083   5.178   7.100 -2.3966  0.9106 -0.6894
 6210TIP3    H240190   5.954   5.101   7.112 -0.7309 -1.7355  1.3980
 6211TIP3   OH240191   3.890   5.840   0.947 -0.2625  0.4984 -0.0775
 6211TIP3    H140192   3.812   5.882   0.911  1.6537  2.7206 -1.9252
 6211TIP3    H240193   3.898   5.875   1.035 -0.3482  1.7408 -0.5475
 6212TIP3   OH240194   4.752   3.277   0.203 -0.1477  0.3098 -0.4614
 6212TIP3    H140195   4.775   3.222   0.277 -0.8992 -0.0489 -0.4918
 6212TIP3    H240196   4.657   3.269   0.194 -0.2535  1.4504 -0.5916
 6213TIP3   OH240197   3.790   5.355   2.292  0.2889  0.2240 -0.1195
 6213TIP3    H140198   3.840   5.354   2.210  1.1997 -1.2308  0.4017
 6213TIP3    H240199   3.785   5.263   2.318 -0.2465  0.6231  1.2956
 6214TIP3   OH240200   1.109   1.590   1.791  0.1674 -1.0776  0.0571
 6214TIP3    H140201   1.183   1.611   1.735  1.5785 -1.7132  1.6084
 6214TIP3    H240202   1.132   1.627   1.876 -1.2586 -1.3645  0.5921
 6215TIP3   OH240203   2.419   2.447   1.395  0.2280  0.6272  0.6735
 6215TIP3    H140204   2.504   2.405   1.386 -0.3777 -0.4472 -0.2710
 6215TIP3    H240205   2.424   2.525   1.340  0.3564  0.1616  0.0192
 6216TIP3   OH240206   4.773   1.333   0.739 -0.4717 -0.2137 -0.5000
 6216TIP3    H140207   4.853   1.290   0.711  2.0197  0.9954  3.7787
 6216TIP3    H240208   4.719   1.263   0.775 -0.1329 -0.7274 -0.9764
 6217TIP3   OH240209   1.476   4.956   7.417 -0.3715 -0.3164 -0.2646
 6217TIP3    H140210   1.484   4.921   7.506  0.4856 -0.1245 -0.2551
 6217TIP3    H240211   1.504   4.884   7.361 -3.4860 -1.4218 -0.5996
 6218TIP3   OH240212   3.621   3.784   7.256  0.3691 -0.1001 -0.1055
 6218TIP3    H140213   3.696   3.829   7.295 -0.6275  1.4124  0.1513
 6218TIP3    H240214   3.591   3.844   7.187 -1.3086 -0.1164  0.5723
 6219TIP3   OH240215   3.562   2.323   0.380 -0.1832  0.4904 -0.2884
 6219TIP3    H140216   3.469   2.318   0.356 -0.6755 -0.9794  1.6976
 6219TIP3    H240217   3.565   2.391   0.447 -0.3009 -1.0302  1.3465
 6220TIP3   OH240218   2.368   4.529   1.876  0.9546  0.2815 -0.1855
 6220TIP3    H140219   2.362   4.615   1.835  1.6250  1.2014  1.5313
 6220TIP3    H240220   2.296   4.528   1.940  0.9396 -0.4439 -0.2044
 6221TIP3   OH240221   1.633   4.104   7.312  0.2470  0.2329  0.2603
 6221TIP3    H140222   1.601   4.072   7.229  2.1519 -0.8852 -0.1109
 6221TIP3    H240223   1.708   4.160   7.289  0.4171  0.4040  1.1813
 6222TIP3   OH240224   5.943   2.721   7.980 -0.0199  0.0215  0.3389
 6222TIP3    H140225   6.024   2.686   7.943 -0.4791 -1.3099  0.5675
 6222TIP3    H240226   5.948   2.698   8.073 -0.5451  0.1778  0.4056
 6223TIP3   OH240227   2.857   0.021   0.043  0.5981  0.1199  0.4445
 6223TIP3    H140228   2.847  -0.014  -0.045  0.2011 -0.6678  0.7953
 6223TIP3    H240229   2.929  -0.030   0.081  1.4465  1.1359  0.2453
 6224TIP3   OH240230   2.641   2.780   8.693  0.1065 -0.1366 -0.0549
 6224TIP3    H140231   2.736   2.787   8.702  0.0336  1.1778 -0.0549
 6224TIP3    H240232   2.619   2.847   8.629 -0.6283 -1.7629 -1.5713
 6225TIP3   OH240233   1.952   3.177   7.778 -0.0546 -0.1886 -0.3826
 6225TIP3    H140234   1.873   3.149   7.824 -0.3731  2.7376  1.0546
 6225TIP3    H240235   2.022   3.169   7.842 -0.1769  2.1608  0.1374
 6226TIP3   OH240236   2.268   4.186   1.495 -0.3512  0.4953 -0.1486
 6226TIP3    H140237   2.271   4.123   1.567  0.3217  0.0227 -0.5838
 6226TIP3    H240238   2.278   4.272   1.538 -0.5752  0.2662  0.3748
 6227TIP3   OH240239   1.231   0.386   0.604  0.0049  0.2885  0.1099
 6227TIP3    H140240   1.233   0.451   0.674 -0.2811 -0.5162  0.8912
 6227TIP3    H240241   1.206   0.435   0.526  0.4454  1.2219  0.5522
 6228TIP3   OH240242   6.334   5.203   7.506 -0.7322 -0.2394 -0.1504
 6228TIP3    H140243   6.383   5.284   7.521 -1.6338  0.6579 -1.7509
 6228TIP3    H240244   6.401   5.139   7.483 -0.1538  0.5523 -0.7475
 6229TIP3   OH240245   4.568   5.890   8.282 -0.3880 -0.5520  0.5124
 6229TIP3    H140246   4.522   5.879   8.199 -1.1246  0.1733  0.8099
 6229TIP3    H240247   4.524   5.964   8.324  1.0223  0.1292  0.8429
 6230TIP3   OH240248   6.360   4.426   1.413  0.3603  0.1996 -0.1971
 6230TIP3    H140249   6.298   4.488   1.450 -0.8006 -0.9439 -0.1364
 6230TIP3    H240250   6.445   4.453   1.448 -0.2788  1.0303  0.7760
 6231TIP3   OH240251   3.257   3.553   7.784 -0.0374 -0.1341 -0.0337
 6231TIP3    H140252   3.234   3.536   7.875  1.4669 -0.9369  0.2181
 6231TIP3    H240253   3.232   3.473   7.738 -1.5227  0.5567 -0.5006
 6232TIP3   OH240254   1.990   2.099   7.523 -0.6221  0.0298 -0.5497
 6232TIP3    H140255   2.071   2.140   7.492  0.0214 -0.6249  0.2256
 6232TIP3    H240256   1.983   2.127   7.615 -1.3870  0.2390 -0.6608
 6233TIP3   OH240257   0.115   5.917   0.302 -0.0241  0.2948  0.5630
 6233TIP3    H140258   0.180   5.987   0.297 -0.5297  0.6901 -0.7488
 6233TIP3    H240259   0.068   5.935   0.384  0.7278  0.6823  0.9316
 6234TIP3   OH240260   5.464   6.599   8.059  0.3325  0.3953 -0.8740
 6234TIP3    H140261   5.378   6.578   8.095  0.5938  1.5615  0.5079
 6234TIP3    H240262   5.447   6.620   7.967 -0.5646 -1.2441 -1.1255
 6235TIP3   OH240263   3.606   2.698   0.458  0.2327 -0.4602 -0.8297
 6235TIP3    H140264   3.519   2.691   0.497  0.4495 -1.1723 -0.4628
 6235TIP3    H240265   3.591   2.702   0.364 -0.3059  1.3467 -0.6984
 6236TIP3   OH240266   5.490   6.856   8.142  0.2756  0.6800  0.0529
 6236TIP3    H140267   5.571   6.907   8.132  1.3552 -0.4546  2.2216
 6236TIP3    H240268   5.500   6.784   8.079 -0.2013  1.8292 -1.3864
 6237TIP3   OH240269   0.933   6.663   8.046  0.1214  0.3123 -0.1953
 6237TIP3    H140270   0.987   6.724   8.097  0.7006 -0.8760  0.6738
 6237TIP3    H240271   0.992   6.629   7.979  0.1835 -0.2616  0.1456
 6238TIP3   OH240272   0.392   5.542   1.492  0.4778  0.3424 -0.2301
 6238TIP3    H140273   0.407   5.474   1.558 -1.1738  0.8791  0.7641
 6238TIP3    H240274   0.318   5.593   1.527  0.1102  1.1607 -2.1053
 6239TIP3   OH240275   6.805   4.303   8.572  0.3515 -0.3154  0.0560
 6239TIP3    H140276   6.717   4.269   8.588  0.6222 -1.5099 -0.8585
 6239TIP3    H240277   6.793   4.368   8.502  0.0437  0.4254  0.7790
 6240TIP3   OH240278   0.572   5.117   1.113  0.4985 -0.2297  0.1845
 6240TIP3    H140279   0.567   5.086   1.022 -1.6666  0.5947 -0.0548
 6240TIP3    H240280   0.563   5.038   1.166  1.3237 -0.6694 -0.3015
 6241TIP3   OH240281   0.758   5.631   7.716 -0.0620 -0.7766 -0.0831
 6241TIP3    H140282   0.778   5.666   7.802 -0.4574 -2.5583  0.7787
 6241TIP3    H240283   0.842   5.603   7.681  0.1740  0.4276 -0.5342
 6242TIP3   OH240284   5.776   3.445   6.644  0.7261 -0.4831  0.4191
 6242TIP3    H140285   5.741   3.384   6.709  1.7405  0.9250  2.3572
 6242TIP3    H240286   5.857   3.404   6.614  1.9430  0.2759  2.4651
 6243TIP3   OH240287   0.439   0.858   0.914 -0.0456  0.4330  0.1439
 6243TIP3    H140288   0.433   0.768   0.883  0.1634  0.4160  0.1487
 6243TIP3    H240289   0.373   0.865   0.983  1.4964 -0.3974  1.7833
 6244TIP3   OH240290   1.493   6.498   1.779 -0.2905  0.0049 -0.0560
 6244TIP3    H140291   1.482   6.533   1.691  0.7847  0.4599 -0.0316
 6244TIP3    H240292   1.588   6.501   1.794 -0.5407  1.1709  1.6008
 6245TIP3   OH240293   5.310   0.727   6.721 -0.0399 -0.1272  0.4344
 6245TIP3    H140294   5.290   0.821   6.712 -2.6903 -0.5487  0.9920
 6245TIP3    H240295   5.250   0.684   6.660  1.1332 -1.4916  0.1927
 6246TIP3   OH240296   3.642   3.739   8.342  0.8124  0.5951  0.5792
 6246TIP3    H140297   3.622   3.656   8.297  1.8864  0.0758  1.0161
 6246TIP3    H240298   3.587   3.737   8.420  2.1579 -0.6397  1.5729
 6247TIP3   OH240299   2.795   5.985   7.510  0.1318  0.2850  0.6924
 6247TIP3    H140300   2.760   5.925   7.444 -0.3341  0.9447  0.3326
 6247TIP3    H240301   2.853   5.930   7.563 -0.2272 -0.4680  0.3280
 6248TIP3   OH240302   6.171   5.285   0.739  0.1601 -0.1581  0.6782
 6248TIP3    H140303   6.223   5.334   0.676 -1.1051  0.6818  0.2367
 6248TIP3    H240304   6.083   5.321   0.730 -1.0544 -3.0214 -0.2285
 6249TIP3   OH240305   4.500   0.100   7.301 -0.0820 -0.2746  0.3477
 6249TIP3    H140306   4.495   0.020   7.354 -0.5043  0.4263  1.4013
 6249TIP3    H240307   4.481   0.171   7.363 -1.6592  0.4990 -0.9445
 6250TIP3   OH240308   5.036   4.149   1.486 -0.3678  0.3514  0.2921
 6250TIP3    H140309   4.949   4.155   1.446 -0.4482 -2.2160 -0.0761
 6250TIP3    H240310   5.021   4.101   1.568  0.7907 -0.8074 -0.1566
 6251TIP3   OH240311   5.848   5.464   1.935  0.6633 -0.0088 -0.8429
 6251TIP3    H140312   5.776   5.469   1.872  0.0290 -0.2881 -0.1624
 6251TIP3    H240313   5.869   5.555   1.957  0.2795  0.0684 -0.7903
 6252TIP3   OH240314   2.703   0.216   0.260 -0.3921  1.1802 -0.6128
 6252TIP3    H140315   2.655   0.135   0.276  1.5117  0.2351  0.7057
 6252TIP3    H240316   2.716   0.218   0.165 -0.0130 -0.3465 -0.6186
 6253TIP3   OH240317   5.060   4.333   2.529 -0.4054 -0.3634  0.1889
 6253TIP3    H140318   5.002   4.271   2.574 -1.4557  0.9545  0.7297
 6253TIP3    H240319   5.008   4.413   2.520  1.0065  0.5598 -0.2158
 6254TIP3   OH240320   2.834   2.236   6.950 -0.3550  0.1396  0.6423
 6254TIP3    H140321   2.883   2.306   6.906  0.7367 -0.4422  0.8763
 6254TIP3    H240322   2.766   2.281   6.999 -0.1632  0.9742  0.1703
 6255TIP3   OH240323   2.765   0.523   1.691  0.6731  0.7561 -0.3583
 6255TIP3    H140324   2.724   0.499   1.775  1.3023 -0.2266 -0.3115
 6255TIP3    H240325   2.772   0.618   1.695  1.8391  0.6462  1.2662
 6256TIP3   OH240326   5.847   3.804   2.264  0.2589  0.8164  0.6056
 6256TIP3    H140327   5.818   3.725   2.309  1.0082  1.0991  1.6400
 6256TIP3    H240328   5.927   3.830   2.311  1.6567  0.5795 -1.5156
 6257TIP3   OH240329   5.051   4.613   6.968 -0.5260 -0.3692  0.6395
 6257TIP3    H140330   5.142   4.640   6.982 -0.6805  0.5170 -0.0031
 6257TIP3    H240331   5.002   4.656   7.039 -0.4851 -0.6174  0.8190
 6258TIP3   OH240332   5.183   1.799   2.147 -0.0172  0.3971 -0.0952
 6258TIP3    H140333   5.255   1.738   2.164 -0.0453  0.0487 -1.1431
 6258TIP3    H240334   5.181   1.856   2.223 -0.0844 -1.0027  0.9850
 6259TIP3   OH240335   4.376   1.270   1.898 -0.5623 -0.3063 -0.0298
 6259TIP3    H140336   4.399   1.338   1.961  1.4511  0.2027 -1.2281
 6259TIP3    H240337   4.325   1.206   1.948  4.3035 -2.0637  3.3263
 6260TIP3   OH240338   4.268   5.446   1.860 -0.1217 -0.1421 -0.3475
 6260TIP3    H140339   4.327   5.435   1.785 -0.2181 -2.1152 -0.1837
 6260TIP3    H240340   4.180   5.442   1.822 -0.2058  1.4180 -0.4096
 6261TIP3   OH240341   5.218   2.784   7.533  0.0857 -0.2272  0.5995
 6261TIP3    H140342   5.129   2.783   7.498 -0.9824  0.3018  3.0960
 6261TIP3    H240343   5.274   2.780   7.455 -2.0539  2.5254 -1.3085
 6262TIP3   OH240344   5.441   2.300   0.184  0.3565  0.2291  0.2578
 6262TIP3    H140345   5.524   2.303   0.231  0.3509 -1.1058  0.3733
 6262TIP3    H240346   5.376   2.330   0.248  0.7443  1.4339  0.1173
 6263TIP3   OH240347   1.135   5.340   0.683  0.0056 -0.4896  0.1168
 6263TIP3    H140348   1.079   5.262   0.676  0.4120 -0.7700 -0.0634
 6263TIP3    H240349   1.210   5.311   0.734 -0.4333  0.1296  1.1330
 6264TIP3   OH240350   0.282   5.462   8.359  0.1578 -0.4184 -0.1502
 6264TIP3    H140351   0.277   5.554   8.334 -2.8829 -0.4148  0.1253
 6264TIP3    H240352   0.211   5.419   8.310  0.7583 -2.4026  0.5879
 6265TIP3   OH240353   3.746   3.012   1.112  0.0306  0.1867  0.3563
 6265TIP3    H140354   3.711   3.037   1.027 -0.3825 -0.2624  0.3926
 6265TIP3    H240355   3.764   3.095   1.156  0.3024  0.4199 -0.1894
 6266TIP3   OH240356   5.489   2.521   7.452 -0.0638  0.0580  0.0115
 6266TIP3    H140357   5.441   2.473   7.384  1.8282  0.4014 -1.6669
 6266TIP3    H240358   5.455   2.610   7.448  1.0333  0.4471 -1.5819
 6267TIP3   OH240359   4.567   5.391   0.201  0.1200 -0.4737 -0.0926
 6267TIP3    H140360   4.649   5.367   0.243  0.5126 -1.1486 -1.2014
 6267TIP3    H240361   4.558   5.329   0.129  0.3504  1.6207 -2.0575
 6268TIP3   OH240362   3.574   2.413   1.437  1.4308 -0.6395  0.1488
 6268TIP3    H140363   3.549   2.410   1.344 -0.7819  1.0082  0.6079
 6268TIP3    H240364   3.603   2.504   1.450  1.8244 -0.8900  1.0456
 6269TIP3   OH240365   6.820   5.658   1.636  0.0301  0.3685 -0.1717
 6269TIP3    H140366   6.750   5.593   1.641 -0.2161  0.6110 -0.4303
 6269TIP3    H240367   6.812   5.695   1.548  1.2317 -0.4342 -0.6350
 6270TIP3   OH240368   2.041   1.556   2.653  0.0484 -0.5017  0.0736
 6270TIP3    H140369   2.114   1.516   2.701 -0.6715 -1.7449  0.1850
 6270TIP3    H240370   1.964   1.510   2.685 -1.3585  3.2462  2.7228
 6271TIP3   OH240371   0.238   3.536   0.813 -0.8703  0.4182  0.0578
 6271TIP3    H140372   0.168   3.536   0.878 -1.2163  0.1235 -0.3118
 6271TIP3    H240373   0.193   3.542   0.728 -0.3448  4.0256 -0.0969
 6272TIP3   OH240374   2.940   1.251   0.368 -0.0385 -0.5318  0.0999
 6272TIP3    H140375   2.890   1.310   0.311  1.0629 -0.7301 -1.1380
 6272TIP3    H240376   3.030   1.257   0.334  0.1634 -2.6861  0.1296
 6273TIP3   OH240377   6.454   0.936   2.427  0.0410  0.5447 -0.2903
 6273TIP3    H140378   6.392   0.946   2.498  0.7432  1.7849  0.1779
 6273TIP3    H240379   6.537   0.969   2.462  0.1253  2.3761 -2.0656
 6274TIP3   OH240380   6.053   2.181   7.244  0.0400  0.4871  0.2407
 6274TIP3    H140381   6.049   2.123   7.168  0.9626 -0.6981  1.0555
 6274TIP3    H240382   5.990   2.144   7.306 -1.0887  1.7474 -0.1214
 6275TIP3   OH240383   6.179   5.277   6.952  0.0710 -0.3190 -0.2817
 6275TIP3    H140384   6.173   5.369   6.930  1.8541  0.0285  0.4887
 6275TIP3    H240385   6.147   5.231   6.874  0.2582  0.9168 -1.1137
 6276TIP3   OH240386   4.673   1.696   7.178 -0.1694 -0.4105 -0.2648
 6276TIP3    H140387   4.759   1.670   7.211 -0.2942  0.4463  0.8095
 6276TIP3    H240388   4.647   1.625   7.120  0.5633 -1.4767  0.6582
 6277TIP3   OH240389   6.775   4.950   7.356  0.1603  0.2176  0.1853
 6277TIP3    H140390   6.775   4.932   7.262 -0.2864 -1.6433  0.5088
 6277TIP3    H240391   6.773   4.864   7.397 -1.1751  1.0112  1.8950
 6278TIP3   OH240392   0.079   0.226   0.441 -0.1051  0.4781 -0.0164
 6278TIP3    H140393   0.068   0.137   0.476  0.3852  0.3258 -0.2373
 6278TIP3    H240394   0.128   0.214   0.360  0.5427  1.0005  0.2843
 6279TIP3   OH240395   6.585   6.301   1.079 -0.0071  0.5053 -0.5350
 6279TIP3    H140396   6.542   6.220   1.106  1.0267 -0.3170 -1.2388
 6279TIP3    H240397   6.672   6.296   1.120  1.0191 -0.0227 -2.6691
 6280TIP3   OH240398   6.252   3.090   8.663  0.3027  0.3578  0.1488
 6280TIP3    H140399   6.292   3.149   8.599  0.0854  0.0460 -0.2747
 6280TIP3    H240400   6.191   3.146   8.712  1.0623  0.7787  0.6300
 6281TIP3   OH240401   0.561   5.670   0.580 -0.2158 -0.2178  0.6240
 6281TIP3    H140402   0.509   5.748   0.561 -0.7798 -0.0678  2.5750
 6281TIP3    H240403   0.497   5.602   0.599  0.2819 -1.0119 -0.4677
 6282TIP3   OH240404   6.697   4.871   7.113 -0.6953  0.1079 -0.3055
 6282TIP3    H140405   6.680   4.943   7.052 -0.2040  1.0155  0.6067
 6282TIP3    H240406   6.614   4.823   7.117 -0.8024  0.1774 -1.4966
 6283TIP3   OH240407   0.233   6.303   6.925  0.2397 -0.1644 -0.7800
 6283TIP3    H140408   0.323   6.331   6.915 -0.4457  2.1243 -1.0221
 6283TIP3    H240409   0.187   6.339   6.849 -1.0291 -0.5745 -0.2388
 6284TIP3   OH240410   0.676   2.181   1.749 -0.3390  0.1780 -0.2213
 6284TIP3    H140411   0.762   2.181   1.792 -0.8345 -0.1830  0.7827
 6284TIP3    H240412   0.614   2.161   1.819 -1.0086 -2.2542 -1.4131
 6285TIP3   OH240413   1.243   4.678   2.260 -0.2116  0.1955 -0.1195
 6285TIP3    H140414   1.179   4.724   2.204  0.9235 -0.2284 -1.8531
 6285TIP3    H240415   1.301   4.746   2.292  1.2090  0.1242 -2.3376
 6286TIP3   OH240416   6.111   1.176   8.097  0.6540 -0.1701 -0.2380
 6286TIP3    H140417   6.150   1.110   8.156  1.1110  0.2400 -0.0728
 6286TIP3    H240418   6.096   1.129   8.015 -1.2253 -1.1108  0.5857
 6287TIP3   OH240419   3.122   2.821   0.850 -0.1288 -0.1913 -0.5797
 6287TIP3    H140420   3.101   2.880   0.922  2.2861  0.5540 -0.4357
 6287TIP3    H240421   3.038   2.807   0.805 -1.4248  0.3874  1.5499
 6288TIP3   OH240422   3.140   0.745   1.736  0.1023 -0.1810  0.6568
 6288TIP3    H140423   3.184   0.748   1.821  0.6122 -1.3502  0.4533
 6288TIP3    H240424   3.170   0.663   1.696  0.6991  0.8414 -1.0932
 6289TIP3   OH240425   2.000   0.867   7.548 -0.3058 -0.2171  0.0201
 6289TIP3    H140426   2.076   0.824   7.587 -0.6676 -0.0852  0.9045
 6289TIP3    H240427   2.033   0.950   7.514 -0.3337  0.6444  1.9375
 6290TIP3   OH240428   6.217   5.022   2.211 -0.2757  0.9768  0.1970
 6290TIP3    H140429   6.143   5.011   2.271  1.0758  0.3107  1.8346
 6290TIP3    H240430   6.279   4.954   2.236 -0.2908 -0.4170 -3.1032
 6291TIP3   OH240431   0.069   1.664   1.242  0.0260 -0.1549  0.0753
 6291TIP3    H140432  -0.007   1.705   1.283 -0.7122  0.5201 -1.8387
 6291TIP3    H240433   0.131   1.735   1.229  0.3508 -0.4049  0.2555
 6292TIP3   OH240434   5.950   5.615   7.703  0.5455 -0.0427  0.0485
 6292TIP3    H140435   5.950   5.521   7.722 -1.3100 -0.0844  0.0343
 6292TIP3    H240436   5.899   5.623   7.622  0.3864  0.9961  0.2375
 6293TIP3   OH240437   4.414   5.023   7.976  0.3730  0.4714  0.6367
 6293TIP3    H140438   4.367   5.085   8.032  0.9030  2.3503 -0.8915
 6293TIP3    H240439   4.499   5.064   7.960  0.9892 -0.9511  0.0308
 6294TIP3   OH240440   2.088   2.905   0.052 -0.2798 -0.3443  0.0844
 6294TIP3    H140441   2.168   2.862   0.082 -0.0412  0.5455  0.7661
 6294TIP3    H240442   2.043   2.930   0.133  0.3994  2.1672 -0.2318
 6295TIP3   OH240443   5.892   3.326   1.115  0.1254 -0.2371  0.1418
 6295TIP3    H140444   5.895   3.258   1.181  1.1393 -0.4352 -0.0821
 6295TIP3    H240445   5.800   3.349   1.107  0.0111  0.0212  1.8527
 6296TIP3   OH240446   1.200   0.924   0.781  0.3234  0.3825  0.1391
 6296TIP3    H140447   1.202   0.876   0.863  1.3620 -0.6525 -0.4659
 6296TIP3    H240448   1.250   0.870   0.720  0.5793  1.6924 -0.8640
 6297TIP3   OH240449   1.684   6.053   1.519 -0.2598 -0.5874 -0.1403
 6297TIP3    H140450   1.696   6.129   1.575 -1.3642 -0.1137 -0.5179
 6297TIP3    H240451   1.673   5.980   1.579  1.4543 -0.5791  0.2230
 6298TIP3   OH240452   2.038   6.626   8.083 -0.0314  0.1262 -0.0843
 6298TIP3    H140453   2.052   6.598   8.173 -2.5899  1.1732  0.7067
 6298TIP3    H240454   2.109   6.582   8.034  1.5821 -0.2764  2.3996
 6299TIP3   OH240455   2.440   3.046   0.474 -0.0275 -0.6266 -0.2594
 6299TIP3    H140456   2.503   2.979   0.502 -0.1617  0.1167  2.0381
 6299TIP3    H240457   2.472   3.075   0.389  2.9319 -0.0982  0.9200
 6300TIP3   OH240458   3.808   0.927   1.456 -0.0231 -0.3032  0.0620
 6300TIP3    H140459   3.814   0.865   1.528 -0.5086 -0.9171 -0.4193
 6300TIP3    H240460   3.829   1.012   1.495  0.4134 -0.7323  0.7705
 6301TIP3   OH240461   0.368   1.134   8.696  0.1936  0.1394  0.5561
 6301TIP3    H140462   0.384   1.040   8.706 -0.6679  0.0381  1.0376
 6301TIP3    H240463   0.452   1.170   8.668 -0.0853 -1.1725 -2.3517
 6302TIP3   OH240464   0.505   5.742   7.889  0.1904 -0.4513 -0.2440
 6302TIP3    H140465   0.554   5.668   7.927  3.2465  1.3862 -0.2217
 6302TIP3    H240466   0.516   5.812   7.953  0.1381  0.9293 -1.6912
 6303TIP3   OH240467   0.561   6.230   7.350  0.2081  0.2203  0.1622
 6303TIP3    H140468   0.645   6.185   7.362  0.7477  0.9326 -0.7798
 6303TIP3    H240469   0.518   6.181   7.280  0.7561  1.0628 -0.7997
 6304TIP3   OH240470   1.795   1.688   8.069  0.2376  0.5466 -0.4052
 6304TIP3    H140471   1.866   1.684   8.005  1.9931  1.7186  1.3616
 6304TIP3    H240472   1.771   1.780   8.073 -0.2520  0.4016  0.1945
 6305TIP3   OH240473   6.274   2.421   8.463 -0.2634 -0.1346 -0.5366
 6305TIP3    H140474   6.367   2.415   8.440 -0.2666  0.5466 -0.7481
 6305TIP3    H240475   6.257   2.343   8.516 -0.3199 -1.8784 -2.9665
 6306TIP3   OH240476   2.005   3.788   1.553  0.1477  0.7917  0.5649
 6306TIP3    H140477   1.949   3.855   1.515  0.4911  1.5802  1.3991
 6306TIP3    H240478   2.094   3.819   1.536  0.3875 -0.5973 -1.0256
 6307TIP3   OH240479   1.172   0.513   0.365  0.4050 -0.6818 -0.0814
 6307TIP3    H140480   1.217   0.460   0.300 -0.4427 -1.1733 -0.2900
 6307TIP3    H240481   1.227   0.590   0.376  0.5653 -0.6008 -1.3680
 6308TIP3   OH240482   4.063   1.308   0.704 -0.3780 -0.1851  0.3085
 6308TIP3    H140483   4.066   1.213   0.690  1.2885 -0.2034  0.5072
 6308TIP3    H240484   4.017   1.319   0.787 -2.0211 -0.6861 -0.4948
 6309TIP3   OH240485   1.162   0.625   1.841  0.3567 -0.6225 -0.4338
 6309TIP3    H140486   1.075   0.590   1.858  0.6560 -0.5752  1.4273
 6309TIP3    H240487   1.151   0.720   1.840  0.1947 -0.6413 -1.5039
 6310TIP3   OH240488   6.264   1.723   8.561 -0.1228  0.8833  0.0774
 6310TIP3    H140489   6.187   1.671   8.538  0.6512 -0.1900 -0.1906
 6310TIP3    H240490   6.307   1.741   8.477 -1.0416  3.0935  0.0175
 6311TIP3   OH240491   5.921   0.576   1.431  0.0069  0.2027  0.9815
 6311TIP3    H140492   5.909   0.600   1.523  0.3304 -1.9624  1.6538
 6311TIP3    H240493   5.850   0.514   1.414  0.8155 -0.5446  0.2382
 6312TIP3   OH240494   5.823   0.101   8.275 -0.0673  0.4571  0.2085
 6312TIP3    H140495   5.756   0.106   8.343 -0.4262  0.1377 -0.1231
 6312TIP3    H240496   5.781   0.136   8.197  0.1478  0.2499 -0.0025
 6313TIP3   OH240497   5.578   2.973   7.439  0.2796 -0.1602 -0.4295
 6313TIP3    H140498   5.664   2.965   7.398 -0.2934  1.7488 -2.1579
 6313TIP3    H240499   5.567   3.066   7.455 -1.4225 -0.3800 -0.1271
 6314TIP3   OH240500   6.777   0.608   8.045  0.1345  0.1278  0.9459
 6314TIP3    H140501   6.794   0.516   8.066 -1.1328 -0.0881  1.0979
 6314TIP3    H240502   6.850   0.634   7.988 -0.4946 -1.5470 -0.7132
 6315TIP3   OH240503   1.905   5.593   1.266 -0.0211 -0.2254  0.5356
 6315TIP3    H140504   1.870   5.636   1.344 -2.6296 -1.9448  0.4109
 6315TIP3    H240505   1.904   5.662   1.199  0.2358  0.6993  1.4425
 6316TIP3   OH240506   0.893   4.903   7.986 -0.0363  0.5376  0.4225
 6316TIP3    H140507   0.809   4.949   7.990  0.4690  1.4095  1.4518
 6316TIP3    H240508   0.890   4.855   7.903  0.3693  4.4313 -2.1434
 6317TIP3   OH240509   1.106   5.513   0.100  0.7836  0.0705 -0.2304
 6317TIP3    H140510   1.104   5.608   0.086  1.5623  0.4237  1.6913
 6317TIP3    H240511   1.167   5.502   0.174 -2.8600 -1.4573  2.8432
 6318TIP3   OH240512   1.377   5.599   8.342  0.4359 -0.0119 -0.2902
 6318TIP3    H140513   1.300   5.632   8.387  1.5511  0.5251  1.3139
 6318TIP3    H240514   1.343   5.558   8.262 -1.3966  0.9829 -0.0598
 6319TIP3   OH240515   5.487   0.625   1.991 -0.3814 -0.0927  0.0019
 6319TIP3    H140516   5.571   0.606   2.033  0.5222  2.2874 -0.5697
 6319TIP3    H240517   5.423   0.576   2.043  1.1247 -0.3497  1.7241
 6320TIP3   OH240518   4.497   4.293   7.534 -0.0226  0.1193 -0.2459
 6320TIP3    H140519   4.552   4.274   7.610  0.7883 -0.8595 -1.0553
 6320TIP3    H240520   4.540   4.248   7.461 -1.6529 -0.3091 -0.9894
 6321TIP3   OH240521   3.420   1.438   1.140  0.0722 -0.0958  0.3643
 6321TIP3    H140522   3.472   1.424   1.219  0.9443  0.1485 -0.1473
 6321TIP3    H240523   3.430   1.531   1.120  0.0063 -0.1901 -0.1293
 6322TIP3   OH240524   2.523   0.874   8.468  0.3265  0.3971  0.0229
 6322TIP3    H140525   2.533   0.802   8.529  0.1535  0.4199  0.0797
 6322TIP3    H240526   2.504   0.832   8.384  1.2300  0.3446 -0.1593
 6323TIP3   OH240527   0.652   2.824   6.731 -0.1153 -0.6702  1.2115
 6323TIP3    H140528   0.646   2.822   6.827 -2.5119  0.1820  1.1717
 6323TIP3    H240529   0.682   2.912   6.711 -0.3936 -0.5761  1.1926
 6324TIP3   OH240530   5.465   4.934   0.617 -0.4813 -0.2443  0.0343
 6324TIP3    H140531   5.496   5.024   0.615 -2.1984  0.4092  0.5200
 6324TIP3    H240532   5.518   4.891   0.684  0.5185  0.3310 -0.3818
 6325TIP3   OH240533   0.489   4.272   2.213 -0.2656  0.1980 -0.3911
 6325TIP3    H140534   0.538   4.226   2.145  1.6032  1.7904 -0.1993
 6325TIP3    H240535   0.555   4.323   2.260 -1.9823  1.6873  0.5270
 6326TIP3   OH240536   5.423   6.097   8.243  0.0104 -0.3461  0.0502
 6326TIP3    H140537   5.451   6.070   8.330 -1.5188  0.8500  0.9850
 6326TIP3    H240538   5.445   6.024   8.186  0.2600 -1.5195  1.6018
 6327TIP3   OH240539   0.477   2.359   2.337 -0.2027 -0.0102  0.0594
 6327TIP3    H140540   0.572   2.354   2.339 -0.2128 -0.0363  0.5756
 6327TIP3    H240541   0.449   2.268   2.323 -0.1441  0.0856 -0.7648
 6328TIP3   OH240542   4.261   6.342   8.350  0.2180 -0.1885  0.8340
 6328TIP3    H140543   4.302   6.383   8.426 -0.8146  0.6185  0.9734
 6328TIP3    H240544   4.276   6.405   8.278 -0.1620 -0.2183  0.7277
 6329TIP3   OH240545   4.296   1.469   0.394 -0.0519 -0.4803  0.1359
 6329TIP3    H140546   4.308   1.425   0.309  1.6938  0.4981 -0.1630
 6329TIP3    H240547   4.383   1.467   0.434 -0.3659  0.9903  0.9461
 6330TIP3   OH240548   6.050   0.550   0.134 -0.0924 -0.2229  0.2991
 6330TIP3    H140549   5.957   0.558   0.116 -0.0520  0.2561  0.3079
 6330TIP3    H240550   6.056   0.554   0.230 -0.1007 -0.6935  0.3256
 6331TIP3   OH240551   3.471   2.769   8.506 -0.9283  0.4572 -0.3660
 6331TIP3    H140552   3.490   2.676   8.514  2.0363  1.1549  2.2862
 6331TIP3    H240553   3.515   2.796   8.426 -0.8019 -0.1815 -0.5139
 6332TIP3   OH240554   5.755   4.033   7.660 -0.0422 -0.3200  0.6931
 6332TIP3    H140555   5.845   4.032   7.626  0.1959  0.7307  1.2463
 6332TIP3    H240556   5.765   4.030   7.755 -0.5653  0.3567  0.7735
 6333TIP3   OH240557   4.057   5.945   7.469 -0.2947 -0.0262 -0.0245
 6333TIP3    H140558   4.051   6.034   7.435 -2.4770  0.3960  1.2393
 6333TIP3    H240559   4.150   5.931   7.484  0.0721  2.2543  0.2529
 6334TIP3   OH240560   6.705   0.417   8.583  0.0439 -0.5827  0.0544
 6334TIP3    H140561   6.654   0.445   8.507  0.3114 -1.2798 -0.3928
 6334TIP3    H240562   6.660   0.339   8.615 -0.7798  0.3766  1.3748
 6335TIP3   OH240563   1.545   2.727   7.518 -0.3129 -0.5316  0.2679
 6335TIP3    H140564   1.567   2.645   7.562  0.7618 -1.0037 -1.0843
 6335TIP3    H240565   1.626   2.754   7.475 -0.8045  0.9386  0.1982
 6336TIP3   OH240566   3.330   0.194   0.890  0.1408  0.3081 -0.2953
 6336TIP3    H140567   3.325   0.115   0.836 -1.2210 -1.2435  1.9324
 6336TIP3    H240568   3.398   0.176   0.954 -0.4597  0.7684  0.4868
 6337TIP3   OH240569   1.655   3.845   0.864 -0.0246  0.0444 -0.4595
 6337TIP3    H140570   1.569   3.879   0.889  0.4430  2.3704 -1.7198
 6337TIP3    H240571   1.637   3.757   0.830 -1.7392  0.0716  0.2625
 6338TIP3   OH240572   3.316   2.367   8.655 -0.0362 -0.0090 -0.1111
 6338TIP3    H140573   3.278   2.425   8.589 -0.5951 -1.1418 -0.8394
 6338TIP3    H240574   3.245   2.306   8.677  0.5228 -0.4145  0.6185
 6339TIP3   OH240575   1.403   3.836   2.054  0.3650  0.3254 -0.6977
 6339TIP3    H140576   1.494   3.806   2.047  0.3647  0.2916 -0.5560
 6339TIP3    H240577   1.363   3.776   2.116  0.4565  0.8355 -0.1400
 6340TIP3   OH240578   2.113   1.248   8.565  0.1126 -0.1878 -0.5058
 6340TIP3    H140579   2.088   1.308   8.494  1.2882  1.2685  0.2504
 6340TIP3    H240580   2.174   1.187   8.525  1.1645  0.9319 -0.6774
 6341TIP3   OH240581   6.490   1.237   1.794  0.2352 -0.4136  0.4966
 6341TIP3    H140582   6.490   1.332   1.790 -0.0425 -0.4419 -0.9677
 6341TIP3    H240583   6.398   1.214   1.812  0.4235 -0.4007  1.5075
 6342TIP3   OH240584   2.253   0.849   0.028 -0.1245 -0.4845 -0.3785
 6342TIP3    H140585   2.184   0.789  -0.001  0.3110 -0.7248 -0.9396
 6342TIP3    H240586   2.334   0.810  -0.005  0.2295  0.0562 -0.1591
 6343TIP3   OH240587   0.842   3.163   1.707  0.8205 -0.2490 -0.0454
 6343TIP3    H140588   0.916   3.106   1.686  0.2529 -0.7306 -0.7893
 6343TIP3    H240589   0.780   3.150   1.635  0.2751  0.6131  0.2462
 6344TIP3   OH240590   2.886   2.458   2.471 -0.2725  0.7583  0.4456
 6344TIP3    H140591   2.916   2.385   2.524 -0.9456 -0.8651 -1.3056
 6344TIP3    H240592   2.803   2.428   2.434  1.0099  1.0264 -2.9581
 6345TIP3   OH240593   3.021   2.680   2.362  0.5112  0.3182 -0.0796
 6345TIP3    H140594   3.105   2.639   2.340  0.5952  0.5172 -0.1291
 6345TIP3    H240595   2.970   2.610   2.402  0.7488  0.2295  0.0691
 6346TIP3   OH240596   5.849   4.134   2.979  0.1207  0.4782 -0.2140
 6346TIP3    H140597   5.840   4.167   3.068  0.1889  0.4069 -0.1809
 6346TIP3    H240598   5.773   4.169   2.933 -0.6332 -0.5813  0.1924
 6347TIP3   OH240599   6.374   5.417   0.285 -0.6562 -0.3228  0.2706
 6347TIP3    H140600   6.341   5.451   0.201  0.9356  0.2167 -0.1689
 6347TIP3    H240601   6.417   5.335   0.263  0.4329  0.1939  0.4233
 6348TIP3   OH240602   2.898   4.134   7.548  0.6193  0.2834  0.5150
 6348TIP3    H140603   2.842   4.089   7.485  2.0638 -2.1785  0.8609
 6348TIP3    H240604   2.863   4.109   7.634  0.7941  0.7209  0.7205
 6349TIP3   OH240605   2.855   4.235   0.982 -0.0387 -0.0742 -0.0034
 6349TIP3    H140606   2.910   4.172   1.028 -0.1901  0.5814  1.1242
 6349TIP3    H240607   2.901   4.319   0.994 -0.2489  0.1636 -0.7946
 6350TIP3   OH240608   3.952   1.885   7.946  0.0966 -0.4622 -0.0953
 6350TIP3    H140609   4.024   1.914   8.002 -0.2294 -2.1734  1.2811
 6350TIP3    H240610   3.991   1.821   7.888  0.1940  0.4977 -1.1186
 6351TIP3   OH240611   0.262   3.243   7.877 -0.1695 -0.0981  0.1457
 6351TIP3    H140612   0.202   3.265   7.807  0.4168 -0.1737 -0.3899
 6351TIP3    H240613   0.308   3.164   7.846 -0.7780 -0.8646  1.1432
 6352TIP3   OH240614   2.135   1.645   1.767  0.1989  0.2523  0.3690
 6352TIP3    H140615   2.134   1.707   1.694 -1.1364 -1.6997 -1.3835
 6352TIP3    H240616   2.072   1.577   1.742  1.6827 -1.9097  2.0976
 6353TIP3   OH240617   0.678   2.383   1.568 -0.4930 -1.1056 -0.0037
 6353TIP3    H140618   0.634   2.458   1.608  0.1441 -1.0316  0.5606
 6353TIP3    H240619   0.670   2.312   1.632  1.4183 -0.7009  0.7561
 6354TIP3   OH240620   5.705   6.594   1.720  0.1632 -0.4518 -0.1069
 6354TIP3    H140621   5.704   6.502   1.694 -0.5086 -0.9075  1.3922
 6354TIP3    H240622   5.626   6.604   1.774  1.7608  0.2158  2.2594
 6355TIP3   OH240623   5.201   2.349   2.004  0.0541 -0.0582  0.0455
 6355TIP3    H140624   5.154   2.312   2.079  2.8164 -1.5478  1.2096
 6355TIP3    H240625   5.182   2.290   1.932 -0.1915 -0.4053  0.3908
 6356TIP3   OH240626   3.354   1.659   7.853 -0.0756  0.2223  0.2718
 6356TIP3    H140627   3.389   1.746   7.834 -0.3573  0.4634  0.8264
 6356TIP3    H240628   3.431   1.607   7.877  0.5559 -0.5601 -2.9869
 6357TIP3   OH240629   4.993   0.619   0.112 -0.3269  0.6821  0.6035
 6357TIP3    H140630   5.077   0.662   0.102  0.8327 -1.2624  1.3331
 6357TIP3    H240631   4.937   0.657   0.044  1.8378  0.3844 -1.4536
 6358TIP3   OH240632   2.523   1.871   7.415 -0.5013 -0.0969  0.2068
 6358TIP3    H140633   2.497   1.866   7.323  1.9953  0.4411 -0.6333
 6358TIP3    H240634   2.449   1.837   7.464 -1.2407 -2.1104 -2.1288
 6359TIP3   OH240635   2.027   2.703   2.636 -0.4353  0.6455 -0.3089
 6359TIP3    H140636   1.967   2.663   2.699 -1.2174  1.9326 -0.2011
 6359TIP3    H240637   2.104   2.646   2.636 -0.8271  0.0859  1.0681
 6360TIP3   OH240638   5.240   1.850   0.118 -0.2376  0.9350 -0.5577
 6360TIP3    H140639   5.221   1.908   0.044 -1.3809 -1.1213 -1.9783
 6360TIP3    H240640   5.286   1.775   0.079  0.9585  0.7155  1.1620
 6361TIP3   OH240641   2.023   6.236   7.149  0.5012  0.6127  0.1460
 6361TIP3    H140642   1.987   6.311   7.102 -0.0109 -0.4063 -1.1562
 6361TIP3    H240643   2.026   6.166   7.083 -0.4339 -0.9375  1.6709
 6362TIP3   OH240644   6.033   2.496   7.409  0.5470 -0.0484  0.5838
 6362TIP3    H140645   6.102   2.433   7.390  0.7574  0.5495 -0.7175
 6362TIP3    H240646   6.053   2.572   7.354 -0.0386  0.9262  1.6579
 6363TIP3   OH240647   6.300   4.374   1.977  0.1070 -0.4500 -0.1669
 6363TIP3    H140648   6.332   4.309   1.914 -1.2491 -1.1302 -0.1834
 6363TIP3    H240649   6.379   4.407   2.019  0.9419 -0.9256 -1.3137
 6364TIP3   OH240650   2.023   5.517   1.987  0.1441  0.5397  0.1165
 6364TIP3    H140651   1.937   5.502   2.027  0.0433 -2.3055 -0.9519
 6364TIP3    H240652   2.079   5.539   2.061 -1.2301  1.2513  1.0005
 6365TIP3   OH240653   4.656   6.295   1.398  0.5141  0.0336  0.1533
 6365TIP3    H140654   4.719   6.333   1.336  0.8235  1.0518  1.0483
 6365TIP3    H240655   4.572   6.300   1.352  0.8481  0.0640 -0.4744
 6366TIP3   OH240656   6.255   6.213   8.415 -0.3783 -0.0685  0.4927
 6366TIP3    H140657   6.204   6.134   8.398 -1.6025  0.6940  0.5470
 6366TIP3    H240658   6.193   6.285   8.406  0.6444  0.8774  0.7526
 6367TIP3   OH240659   2.731   2.191   7.671 -0.3483 -0.1789 -0.1067
 6367TIP3    H140660   2.719   2.164   7.580 -0.4987  1.8123 -0.7215
 6367TIP3    H240661   2.737   2.287   7.667  3.3381 -0.1968  1.5818
 6368TIP3   OH240662   5.673   5.896   1.267  0.0267 -0.6233 -0.7053
 6368TIP3    H140663   5.731   5.879   1.193  0.7447 -1.4530  0.0257
 6368TIP3    H240664   5.644   5.986   1.255 -0.8278 -1.0909 -2.6422
 6369TIP3   OH240665   5.167   5.187   7.146  0.4980  0.4520  0.3080
 6369TIP3    H140666   5.140   5.116   7.205 -2.0040 -0.4543 -1.7599
 6369TIP3    H240667   5.213   5.142   7.075 -3.0378  0.3822 -2.1849
 6370TIP3   OH240668   4.241   2.573   7.155 -0.3232  0.2455  0.0402
 6370TIP3    H140669   4.176   2.610   7.096 -0.6520  0.3927  0.4926
 6370TIP3    H240670   4.223   2.479   7.154  0.5855  0.0475 -1.1983
 6371TIP3   OH240671   1.829   3.971   1.467 -0.5611 -0.0634 -0.1179
 6371TIP3    H140672   1.747   3.923   1.453 -1.3331  0.4863  2.0850
 6371TIP3    H240673   1.803   4.063   1.472 -0.0936  0.0113  2.0199
 6372TIP3   OH240674   4.642   5.856   1.500 -0.0601  0.3789 -0.5010
 6372TIP3    H140675   4.684   5.770   1.494 -0.1389  0.3350 -0.4169
 6372TIP3    H240676   4.595   5.865   1.417  0.9521  0.8666 -1.0522
 6373TIP3   OH240677   2.942   2.282   2.064 -0.2030 -0.5710 -0.7148
 6373TIP3    H140678   2.909   2.195   2.089 -0.7366  0.2925  1.9249
 6373TIP3    H240679   3.013   2.299   2.125 -3.4573  2.8966  2.7204
 6374TIP3   OH240680   2.797   4.409   7.380  0.3249 -0.4118 -0.3016
 6374TIP3    H140681   2.883   4.389   7.417  0.7135 -1.4101 -1.6750
 6374TIP3    H240682   2.800   4.374   7.291 -0.7293  1.5196 -1.1633
 6375TIP3   OH240683   4.766   2.801   8.061 -0.2532 -0.4406 -0.0567
 6375TIP3    H140684   4.788   2.708   8.067 -2.0722 -0.9335 -0.3898
 6375TIP3    H240685   4.674   2.806   8.088 -0.9841  0.8696 -2.4707
 6376TIP3   OH240686   2.217   3.559   6.999  0.0492 -0.4361  0.2271
 6376TIP3    H140687   2.260   3.618   6.936 -0.9998  0.2663  0.1578
 6376TIP3    H240688   2.137   3.531   6.955 -2.0819  2.1324  2.1707
 6377TIP3   OH240689   5.548   5.517   7.169  0.1968  0.4016  0.0757
 6377TIP3    H140690   5.621   5.456   7.174  1.5973  2.0908  1.6974
 6377TIP3    H240691   5.491   5.493   7.242  0.1066  0.2421 -0.0487
 6378TIP3   OH240692   3.912   0.554   0.749  0.4242 -0.4243  0.3952
 6378TIP3    H140693   3.923   0.528   0.840 -1.7408  1.4979  1.3182
 6378TIP3    H240694   3.866   0.638   0.754 -0.7177 -0.7710 -2.4717
 6379TIP3   OH240695   2.565   1.429   2.515 -0.3715 -0.1569 -0.0008
 6379TIP3    H140696   2.535   1.492   2.579 -1.5671 -1.3357  0.6466
 6379TIP3    H240697   2.485   1.399   2.470 -0.1438 -2.6194  1.0631
 6380TIP3   OH240698   0.731   5.591   1.145  0.4480 -0.1397  0.5153
 6380TIP3    H140699   0.709   5.619   1.234  2.7216 -1.5156  1.5911
 6380TIP3    H240700   0.718   5.496   1.146  2.0617 -0.3875 -0.1012
 6381TIP3   OH240701   0.602   5.935   6.776  0.1047 -0.3234 -0.5300
 6381TIP3    H140702   0.557   6.000   6.829  0.6747 -0.3629  0.0031
 6381TIP3    H240703   0.645   5.877   6.839 -0.6936 -1.4390 -0.9848
 6382TIP3   OH240704   2.659   2.462   6.907  0.2438  0.3357  0.1112
 6382TIP3    H140705   2.654   2.419   6.821  1.1587 -0.1558  0.2883
 6382TIP3    H240706   2.576   2.508   6.915  0.1672  0.4544 -1.0785
 6383TIP3   OH240707   0.911   3.593   7.472  0.1963  0.3663 -0.3074
 6383TIP3    H140708   0.917   3.505   7.435  0.7568  0.0944  0.3961
 6383TIP3    H240709   0.832   3.630   7.433  0.3055 -0.2142 -1.1009
 6384TIP3   OH240710   0.197   3.558   3.063  0.0127  0.1308  0.0213
 6384TIP3    H140711   0.204   3.514   2.978  0.0725  0.0718  0.0567
 6384TIP3    H240712   0.106   3.546   3.089  0.5124 -1.8850  1.0594
 6385TIP3   OH240713   1.400   2.273   0.357  0.0231  0.0748  0.2610
 6385TIP3    H140714   1.337   2.276   0.429 -0.2608  0.7971 -0.0105
 6385TIP3    H240715   1.485   2.268   0.401 -0.2219 -3.9215  0.6722
 6386TIP3   OH240716   6.162   1.774   0.637 -0.0139 -0.7934  0.2437
 6386TIP3    H140717   6.192   1.846   0.692  0.7180 -1.5055  0.8104
 6386TIP3    H240718   6.113   1.816   0.567  1.6871  0.3733 -0.3144
 6387TIP3   OH240719   2.905   5.867   1.937  0.2848  0.1408  0.1471
 6387TIP3    H140720   2.892   5.879   2.031  1.0339  0.2902  0.2399
 6387TIP3    H240721   2.817   5.858   1.902 -0.0171  0.3373  0.8296
 6388TIP3   OH240722   4.574   1.760   6.693  0.3116 -0.5940  0.1695
 6388TIP3    H140723   4.667   1.740   6.709  1.0548  1.9944 -0.5389
 6388TIP3    H240724   4.553   1.713   6.612  1.3518 -0.2759 -0.2994
 6389TIP3   OH240725   4.056   6.855   0.409  0.2931  0.7286  0.4768
 6389TIP3    H140726   4.086   6.885   0.495 -0.9807  0.0061  1.1928
 6389TIP3    H240727   4.020   6.934   0.368  0.3604  0.9513  0.8429
 6390TIP3   OH240728   2.661   2.980   1.129 -0.0300  0.1600  0.1905
 6390TIP3    H140729   2.683   3.071   1.114  1.8054 -0.2518  0.1429
 6390TIP3    H240730   2.620   2.979   1.216  0.1591  0.9822  0.2953
 6391TIP3   OH240731   2.295   3.157   1.356 -0.0303  0.0910 -0.3239
 6391TIP3    H140732   2.337   3.240   1.379 -2.0328  1.1615 -0.3087
 6391TIP3    H240733   2.246   3.176   1.277  0.1541 -1.3453 -0.8128
 6392TIP3   OH240734   1.270   3.191   1.648 -0.2338  0.5130  0.3429
 6392TIP3    H140735   1.211   3.183   1.573  2.1259 -0.1200 -1.5932
 6392TIP3    H240736   1.346   3.238   1.614 -0.8888  4.4661  3.6186
 6393TIP3   OH240737   4.163   2.339   6.559 -0.1072 -0.1807  0.1377
 6393TIP3    H140738   4.142   2.431   6.547 -0.6492 -0.4435 -1.0634
 6393TIP3    H240739   4.168   2.328   6.654 -0.1326  1.0539  0.2991
 6394TIP3   OH240740   3.153   0.058   2.387  0.2053  0.0128 -0.0564
 6394TIP3    H140741   3.163   0.138   2.336 -1.5862 -0.1304 -0.7060
 6394TIP3    H240742   3.186  -0.011   2.329 -2.8583 -0.2939 -1.6080
 6395TIP3   OH240743   4.046   5.493   0.696 -0.6753  0.8280 -0.3076
 6395TIP3    H140744   4.134   5.513   0.663  0.3952 -0.0906  1.7866
 6395TIP3    H240745   4.003   5.447   0.624  1.9274 -2.0756 -0.2055
 6396TIP3   OH240746   3.741   1.997   7.733  0.2106  0.0521  0.1065
 6396TIP3    H140747   3.698   1.955   7.808 -0.6484  0.2422 -0.2678
 6396TIP3    H240748   3.765   2.084   7.766  2.3846 -0.8198  1.0167
 6397TIP3   OH240749   0.287   5.505   0.831 -0.0188 -0.6571  0.2756
 6397TIP3    H140750   0.296   5.573   0.898  0.2662 -3.0671  2.8760
 6397TIP3    H240751   0.321   5.545   0.751 -1.5783  2.8328  1.1463
 6398TIP3   OH240752   2.405   0.099   8.213  0.0941  0.3604 -0.0404
 6398TIP3    H140753   2.435   0.044   8.139 -1.0493 -0.7320  0.2762
 6398TIP3    H240754   2.480   0.101   8.272  0.3942 -0.2986 -0.3790
 6399TIP3   OH240755   3.982   4.060   0.069 -0.1304 -0.1842 -0.3098
 6399TIP3    H140756   4.016   4.147   0.086  2.5970 -1.4740  1.5941
 6399TIP3    H240757   4.049   4.017   0.016 -0.5062 -1.6924  0.3593
 6400TIP3   OH240758   1.615   4.891   0.997  0.0390 -0.1389  0.0844
 6400TIP3    H140759   1.561   4.968   1.016  1.1725  0.6679  0.1466
 6400TIP3    H240760   1.623   4.890   0.901  1.3815  0.8140  0.1600
 6401TIP3   OH240761   0.220   5.794   7.806  0.1149 -0.1297 -0.4372
 6401TIP3    H140762   0.312   5.794   7.832  0.9606 -0.6333 -3.1463
 6401TIP3    H240763   0.199   5.702   7.790 -0.6442  0.0576 -0.5798
 6402TIP3   OH240764   1.503   0.564   7.861 -0.0978 -0.5534 -0.2781
 6402TIP3    H140765   1.410   0.556   7.885 -0.1152  0.2249 -0.0686
 6402TIP3    H240766   1.549   0.511   7.927 -0.3833 -0.8734 -0.3328
 6403TIP3   OH240767   0.899   2.818   1.295 -0.2760  0.0006  1.1816
 6403TIP3    H140768   0.909   2.745   1.356  0.1286  0.4953  1.7195
 6403TIP3    H240769   0.987   2.834   1.261 -0.3453  0.2910  1.1319
 6404TIP3   OH240770   0.298   3.250   6.795 -0.1117  0.0446 -0.1174
 6404TIP3    H140771   0.309   3.208   6.710 -2.0376 -0.5180 -0.1371
 6404TIP3    H240772   0.224   3.204   6.835 -0.0998  1.1867  1.3101
 6405TIP3   OH240773   5.642   1.882   7.630 -0.3140 -0.7379  0.3305
 6405TIP3    H140774   5.618   1.923   7.713 -0.1980  0.0614 -0.0204
 6405TIP3    H240775   5.638   1.788   7.648  0.1336 -0.5786  1.3610
 6406TIP3   OH240776   3.928   2.560   0.740 -0.0447  0.3877 -0.3284
 6406TIP3    H140777   3.958   2.538   0.828 -1.3528 -0.9119 -0.1617
 6406TIP3    H240778   3.838   2.589   0.752  0.3071  1.9037 -1.0697
 6407TIP3   OH240779   1.595   2.769   0.133  0.1761 -0.3911  0.1062
 6407TIP3    H140780   1.645   2.790   0.212  1.6506  0.2443 -0.9650
 6407TIP3    H240781   1.513   2.732   0.167  0.2502  0.9697  1.9528
 6408TIP3   OH240782   2.730   2.063   8.417 -0.0006 -0.2446  0.3650
 6408TIP3    H140783   2.688   1.992   8.466  0.4194 -1.1713 -0.5757
 6408TIP3    H240784   2.657   2.119   8.389 -0.2904 -0.0269  1.5325
 6409TIP3   OH240785   0.434   2.825   1.633  0.2094  0.2792  0.3463
 6409TIP3    H140786   0.512   2.818   1.579  0.2233 -1.1884  0.5277
 6409TIP3    H240787   0.369   2.869   1.577  1.0403  1.2161  0.0905
 6410TIP3   OH240788   2.876   4.078   0.151  0.0407  0.0540  0.2734
 6410TIP3    H140789   2.852   4.008   0.212 -3.0253 -0.2782 -1.1176
 6410TIP3    H240790   2.900   4.032   0.071  0.1028  0.5388  0.0128
 6411TIP3   OH240791   5.221   1.998   2.867  0.0245 -0.0717 -0.4821
 6411TIP3    H140792   5.283   1.930   2.891 -0.9600 -0.6757  0.4500
 6411TIP3    H240793   5.176   1.963   2.790 -0.2111 -0.3240 -0.2352
 6412TIP3   OH240794   6.839   5.862   1.839  0.4927  0.9174 -0.0714
 6412TIP3    H140795   6.750   5.884   1.867  0.7028  2.7299 -0.6884
 6412TIP3    H240796   6.827   5.800   1.767 -0.1494 -0.8627  1.4809
 6413TIP3   OH240797   0.283   1.365   2.351 -0.2775 -0.1204 -0.6654
 6413TIP3    H140798   0.250   1.293   2.299 -0.5248 -0.1406 -0.4831
 6413TIP3    H240799   0.208   1.394   2.404  0.3001 -1.0018  0.6958
 6414TIP3   OH240800   5.688   0.422   6.822 -0.4270 -0.1525  0.0658
 6414TIP3    H140801   5.780   0.406   6.800 -1.0300 -3.5048 -0.4786
 6414TIP3    H240802   5.654   0.337   6.849 -3.2296  1.1264  0.9664
 6415TIP3   OH240803   1.206   5.758   1.644  0.9829  0.1588  0.0792
 6415TIP3    H140804   1.139   5.699   1.611  2.0539 -0.2950 -1.4183
 6415TIP3    H240805   1.228   5.723   1.731 -3.0438  2.3252  2.2460
 6416TIP3   OH240806   3.405   4.476   1.400  0.7913 -0.3775 -0.2002
 6416TIP3    H140807   3.318   4.435   1.402  1.0767 -1.0688 -1.3456
 6416TIP3    H240808   3.409   4.526   1.482 -0.2243 -1.2763  0.4353
 6417TIP3   OH240809   1.426   1.982   1.010 -0.3387  0.1955  0.3973
 6417TIP3    H140810   1.415   2.040   0.935 -0.8927  1.3526  1.3371
 6417TIP3    H240811   1.479   2.033   1.072 -1.3855 -0.0365  1.5131
 6418TIP3   OH240812   3.346   2.097   8.516 -0.0919  0.1184 -0.0402
 6418TIP3    H140813   3.272   2.131   8.568 -0.6223  0.4640 -1.0049
 6418TIP3    H240814   3.306   2.069   8.434  0.6946 -0.7611 -0.1270
 6419TIP3   OH240815   4.621   4.453   1.869 -0.2174  0.3422  0.0992
 6419TIP3    H140816   4.602   4.360   1.857  0.8560  0.2526 -1.1795
 6419TIP3    H240817   4.536   4.494   1.874 -0.7106 -0.6283 -0.0145
 6420TIP3   OH240818   2.003   0.682   2.121  0.5255 -0.1592  0.8549
 6420TIP3    H140819   2.012   0.777   2.126 -2.1186  0.1456  1.1012
 6420TIP3    H240820   2.069   0.648   2.182  0.4065  1.5948  2.0059
 6421TIP3   OH240821   5.895   5.847   1.002 -0.4416 -0.1399 -0.2800
 6421TIP3    H140822   5.851   5.930   0.986  1.0844  0.7744  0.1144
 6421TIP3    H240823   5.920   5.816   0.915 -0.9882 -0.1858 -0.4257
 6422TIP3   OH240824   0.510   6.546   0.140  0.3958  0.7016 -0.6117
 6422TIP3    H140825   0.473   6.631   0.115 -0.4680  0.4676 -0.1932
 6422TIP3    H240826   0.593   6.567   0.183 -0.9714  1.5971  1.8364
 6423TIP3   OH240827   3.816   0.080   8.550 -0.6398 -0.5103 -0.6300
 6423TIP3    H140828   3.866  -0.000   8.565  0.2265 -0.3295 -2.3340
 6423TIP3    H240829   3.880   0.151   8.561 -1.5951  0.0729  1.7848
 6424TIP3   OH240830   0.804   6.347   2.203  0.0348  0.4790 -0.0206
 6424TIP3    H140831   0.803   6.414   2.135  0.0072  0.5408  0.0400
 6424TIP3    H240832   0.877   6.290   2.180  1.1548  1.5112  0.8667
 6425TIP3   OH240833   0.653   6.330   0.609  0.0313  0.2925  0.4522
 6425TIP3    H140834   0.645   6.242   0.645 -0.7844 -0.1407 -0.7521
 6425TIP3    H240835   0.670   6.318   0.516 -0.9042  1.3985  0.1093
 6426TIP3   OH240836   4.036   0.143   0.095  0.0513  0.7289  0.2599
 6426TIP3    H140837   3.980   0.115   0.167 -2.1381  0.9782 -1.2404
 6426TIP3    H240838   4.090   0.066   0.075 -0.4586  0.1363  1.1147
 6427TIP3   OH240839   3.306   5.281   0.404 -0.5094 -0.1361 -0.4065
 6427TIP3    H140840   3.362   5.291   0.327 -1.3177 -0.5115 -1.0550
 6427TIP3    H240841   3.328   5.195   0.439 -0.3934 -0.1128 -0.4222
 6428TIP3   OH240842   1.223   5.833   0.497 -0.0060 -0.6033 -0.6528
 6428TIP3    H140843   1.312   5.805   0.478  0.3804 -0.8162  1.2934
 6428TIP3    H240844   1.180   5.756   0.533  0.1172  0.3347  1.7158
 6429TIP3   OH240845   6.389   4.425   7.323  0.3616  0.2876  0.3033
 6429TIP3    H140846   6.478   4.430   7.287  0.8400  2.9048  1.5881
 6429TIP3    H240847   6.333   4.419   7.246  1.4866  2.6403 -0.7994
 6430TIP3   OH240848   2.584   1.841   8.512 -0.4959 -0.1771  0.2657
 6430TIP3    H140849   2.504   1.823   8.561  1.2827 -2.1989  2.7157
 6430TIP3    H240850   2.593   1.768   8.452 -0.9820  0.5868 -0.7581
 6431TIP3   OH240851   6.241   4.916   8.521  0.6750  0.1014 -0.4349
 6431TIP3    H140852   6.254   4.884   8.432 -0.0713 -0.8725 -0.2096
 6431TIP3    H240853   6.226   5.010   8.511  1.5744  0.1748 -1.2352
 6432TIP3   OH240854   2.494   1.979   8.221 -0.2363  0.7605  0.3264
 6432TIP3    H140855   2.448   2.055   8.257 -0.1534  0.8463  0.2505
 6432TIP3    H240856   2.464   1.906   8.275 -3.0174  0.2374 -1.7585
 6433TIP3   OH240857   4.575   4.866   8.339  0.5966  0.1700  0.0567
 6433TIP3    H140858   4.599   4.819   8.419  0.8224 -1.2397 -0.8170
 6433TIP3    H240859   4.484   4.893   8.354  0.6188 -0.1066  0.7676
 6434TIP3   OH240860   5.503   3.833   2.029 -0.3911  0.1215 -0.2723
 6434TIP3    H140861   5.476   3.801   2.115  0.8103 -0.6566 -0.1603
 6434TIP3    H240862   5.487   3.927   2.033 -3.6051 -0.3209 -0.4643
 6435TIP3   OH240863   1.452   0.353   0.933  0.1838  0.3807 -0.2742
 6435TIP3    H140864   1.541   0.376   0.960  0.1699 -2.4792  3.0479
 6435TIP3    H240865   1.458   0.260   0.909 -1.9571 -0.0170  0.5151
 6436TIP3   OH240866   3.227   6.013   2.259  0.0235  0.0065 -0.3913
 6436TIP3    H140867   3.302   5.978   2.211  0.3290  0.2012 -0.0549
 6436TIP3    H240868   3.265   6.073   2.323 -0.5565  1.6005 -1.5049
 6437TIP3   OH240869   3.992   0.349   7.889  0.0379  0.3848 -0.0406
 6437TIP3    H140870   3.969   0.341   7.982 -0.3885 -1.7143 -0.2684
 6437TIP3    H240871   4.086   0.367   7.890  0.3424 -1.0819  0.8077
 6438TIP3   OH240872   4.190   0.909   0.104 -0.0573 -0.5317 -0.1141
 6438TIP3    H140873   4.147   0.979   0.154  1.3682 -0.3299  0.8787
 6438TIP3    H240874   4.172   0.830   0.154 -0.8548 -0.7556 -0.7265
 6439TIP3   OH240875   6.628   3.111   7.401  0.1669  0.1021 -0.3819
 6439TIP3    H140876   6.596   3.111   7.311 -0.0898 -0.9058 -0.3119
 6439TIP3    H240877   6.567   3.166   7.449  0.6625  1.1574 -0.9254
 6440TIP3   OH240878   4.397   5.813   6.226 -0.3981 -0.3406 -0.0508
 6440TIP3    H140879   4.357   5.791   6.311  1.4841 -0.7323  0.7894
 6440TIP3    H240880   4.416   5.728   6.186 -0.8874 -0.1582 -0.6860
 6441TIP3   OH240881   1.520   1.591   7.547  0.0499  0.0531 -0.7272
 6441TIP3    H140882   1.542   1.574   7.638  0.3329  1.3686 -0.5369
 6441TIP3    H240883   1.481   1.679   7.547 -1.4046 -0.5487 -1.6505
 6442TIP3   OH240884   1.610   0.097   7.851  0.4085  0.0012  0.1082
 6442TIP3    H140885   1.689   0.061   7.812  0.7429  1.4414 -0.6071
 6442TIP3    H240886   1.613   0.070   7.942  0.5399 -1.9046 -0.4314
 6443TIP3   OH240887   4.396   6.735   8.684  0.2732 -0.1031 -0.6870
 6443TIP3    H140888   4.333   6.751   8.755  1.3789 -0.6021  0.4553
 6443TIP3    H240889   4.473   6.786   8.709  1.1580 -1.3254 -0.8342
 6444TIP3   OH240890   3.832   4.916   2.059 -0.0109 -0.0687 -0.0179
 6444TIP3    H140891   3.761   4.975   2.080 -1.5788 -1.0337 -2.1699
 6444TIP3    H240892   3.829   4.849   2.127 -0.2599  0.6387  0.6759
 6445TIP3   OH240893   2.621   3.029   7.156 -0.7764 -0.0494  0.0063
 6445TIP3    H140894   2.615   2.933   7.150  0.0360 -0.0904 -0.2804
 6445TIP3    H240895   2.712   3.046   7.177 -0.8282  0.6794 -0.3212
 6446TIP3   OH240896   2.811   5.484   7.623 -0.5042 -0.5655 -0.2535
 6446TIP3    H140897   2.758   5.405   7.634 -1.2008  0.0192  0.8881
 6446TIP3    H240898   2.775   5.527   7.546 -0.8531 -0.8045 -0.2255
 6447TIP3   OH240899   0.338   3.755   1.081 -0.3940  0.3365  0.3669
 6447TIP3    H140900   0.291   3.835   1.059  0.6656  0.3265 -2.2902
 6447TIP3    H240901   0.397   3.780   1.151 -0.7582  1.6408  0.2398
 6448TIP3   OH240902   1.922   3.796   0.847  0.0480  0.5270 -0.4347
 6448TIP3    H140903   1.909   3.750   0.764  0.3829  1.2236 -0.8782
 6448TIP3    H240904   1.833   3.803   0.884 -0.2652  1.1965 -1.2707
 6449TIP3   OH240905   0.492   2.839   2.555  0.3995  0.2144 -0.4574
 6449TIP3    H140906   0.485   2.761   2.500  0.8707 -0.0079 -0.2062
 6449TIP3    H240907   0.457   2.811   2.640 -0.7226  0.6742 -0.7419
 6450TIP3   OH240908   2.095   0.491   0.069 -0.1133 -0.7737  0.1388
 6450TIP3    H140909   2.047   0.542   0.004  0.4552 -1.2161 -0.6595
 6450TIP3    H240910   2.044   0.410   0.079  0.2898 -1.1178 -0.4909
 6451TIP3   OH240911   2.650   3.902   1.357 -0.2354 -0.2823 -0.3950
 6451TIP3    H140912   2.673   3.995   1.357 -0.4648 -0.2062  0.8846
 6451TIP3    H240913   2.578   3.895   1.295  0.1731  0.2842 -0.9488
 6452TIP3   OH240914   0.962   1.815   1.963 -0.1894  0.1971 -0.6022
 6452TIP3    H140915   1.027   1.778   2.023  0.2639  1.4060 -0.3184
 6452TIP3    H240916   0.934   1.741   1.909  2.0015 -0.2283 -1.2528
 6453TIP3   OH240917   4.036   1.262   7.638  0.4236  0.1186  0.3766
 6453TIP3    H140918   3.977   1.332   7.667  0.5229  0.7232 -0.8078
 6453TIP3    H240919   4.070   1.224   7.719  0.2246  1.3242  1.0480
 6454TIP3   OH240920   5.255   4.707   1.557 -0.0300  0.0841 -0.4291
 6454TIP3    H140921   5.324   4.643   1.541 -1.3171 -2.1552  2.2682
 6454TIP3    H240922   5.181   4.676   1.505  0.0145  0.7923 -0.9452
 6455TIP3   OH240923   4.619   2.920   8.370  0.2053 -0.1256 -0.4378
 6455TIP3    H140924   4.561   2.995   8.385 -0.9726 -1.3909  1.8635
 6455TIP3    H240925   4.690   2.955   8.317 -0.9674  2.2935 -0.5511
 6456TIP3   OH240926   4.949   0.475   7.252 -0.1140  0.7314  0.1351
 6456TIP3    H140927   4.883   0.543   7.236 -1.2510 -0.0642  1.2156
 6456TIP3    H240928   5.018   0.519   7.301  0.0752  1.5231 -0.8025
 6457TIP3   OH240929   4.375   6.096   8.362  0.3660  0.7259 -0.0953
 6457TIP3    H140930   4.338   6.177   8.396 -2.2064 -0.3710 -0.0644
 6457TIP3    H240931   4.356   6.030   8.430  1.7452 -0.0868 -0.4440
 6458TIP3   OH240932   4.800   5.811   7.752 -0.2925  0.6341 -0.0945
 6458TIP3    H140933   4.790   5.809   7.656  0.4270  1.5491 -0.2151
 6458TIP3    H240934   4.844   5.895   7.768  2.0937 -0.7178  0.7882
 6459TIP3   OH240935   6.789   3.430   1.937 -0.1218 -0.5202  0.3560
 6459TIP3    H140936   6.732   3.353   1.931  0.0225 -0.5546 -0.7273
 6459TIP3    H240937   6.778   3.475   1.853  1.8266 -0.7982 -0.0931
 6460TIP3   OH240938   4.594   2.441   6.439  0.5944  0.2683 -0.1908
 6460TIP3    H140939   4.584   2.527   6.398 -0.9335 -0.0573 -0.5482
 6460TIP3    H240940   4.688   2.433   6.455  1.0130  1.1993 -1.9237
 6461TIP3   OH240941   4.441   1.063   0.097 -0.1704  0.1989 -0.0731
 6461TIP3    H140942   4.410   1.065   0.006 -1.1087  0.4811  0.2452
 6461TIP3    H240943   4.396   0.989   0.136 -0.3262  0.5131  0.3525
 6462TIP3   OH240944   6.771   5.021   0.574  0.1808  0.9967  0.7978
 6462TIP3    H140945   6.865   5.005   0.561  0.0381 -0.8670  1.6274
 6462TIP3    H240946   6.736   5.031   0.486  0.9977  0.5667  0.4058
 6463TIP3   OH240947   2.449   4.135   2.905  0.1166  0.4677  0.2581
 6463TIP3    H140948   2.487   4.111   2.820  2.1317  0.5188  1.0844
 6463TIP3    H240949   2.472   4.063   2.963  0.2322  1.2135  1.1544
 6464TIP3   OH240950   4.348   0.172   0.318 -0.4797 -0.2961 -0.2603
 6464TIP3    H140951   4.283   0.106   0.339  0.1276 -1.0543 -0.7023
 6464TIP3    H240952   4.407   0.173   0.393 -0.8568  0.2213  0.0357
 6465TIP3   OH240953   3.924   2.094   0.448  0.2499 -0.7494  0.5871
 6465TIP3    H140954   3.845   2.129   0.490 -0.4086 -0.3670 -0.8863
 6465TIP3    H240955   3.937   2.150   0.371  0.8172 -2.0141 -0.2782
 6466TIP3   OH240956   0.734   1.829   0.063  0.6555 -0.3368  0.1577
 6466TIP3    H140957   0.799   1.782   0.115  1.9343 -0.2747 -1.3067
 6466TIP3    H240958   0.651   1.787   0.085  1.2257 -0.6903  1.7766
 6467TIP3   OH240959   2.524   5.246   2.246  0.1186 -1.2095  0.0943
 6467TIP3    H140960   2.592   5.271   2.308 -1.7976 -0.1001  1.8872
 6467TIP3    H240961   2.516   5.151   2.257  0.8062 -1.2387  0.4404
 6468TIP3   OH240962   5.171   6.830   0.958 -0.2660  0.1087  0.4818
 6468TIP3    H140963   5.230   6.783   0.899 -0.1408  0.0831  0.6262
 6468TIP3    H240964   5.228   6.886   1.010 -0.0004 -1.8574  2.4980
 6469TIP3   OH240965   0.081   1.991   0.676  0.0038 -0.0285 -0.1406
 6469TIP3    H140966   0.177   1.990   0.667  0.0240  0.2518  0.0260
 6469TIP3    H240967   0.060   1.906   0.715  0.4068  0.7410  1.8920
 6470TIP3   OH240968   1.336   3.942   0.154 -0.2525  0.2921  0.7378
 6470TIP3    H140969   1.310   3.989   0.074  2.1901  0.1384 -0.2284
 6470TIP3    H240970   1.407   3.995   0.190  0.4550 -1.0277  1.3423
 6471TIP3   OH240971   5.601   3.187   7.208 -0.2421 -0.0875 -0.2370
 6471TIP3    H140972   5.543   3.243   7.157 -0.3577  1.0156  1.0304
 6471TIP3    H240973   5.627   3.118   7.148 -0.7820  0.8550 -1.6080
 6472TIP3   OH240974   2.721   6.863   7.934  0.0444 -0.0547  0.2206
 6472TIP3    H140975   2.729   6.884   7.841  0.9688  0.9840  0.5128
 6472TIP3    H240976   2.760   6.775   7.942  2.2103  0.8161 -0.0337
 6473TIP3   OH240977   3.782   0.892   8.172 -0.1462  0.5072  0.0866
 6473TIP3    H140978   3.707   0.935   8.211 -0.1283  0.7142 -0.1053
 6473TIP3    H240979   3.849   0.960   8.167  0.4258  0.0507  1.2586
 6474TIP3   OH240980   5.494   5.999   1.656 -0.1605  0.1214 -0.2297
 6474TIP3    H140981   5.472   6.084   1.695  1.4259  0.1681  0.6608
 6474TIP3    H240982   5.544   6.022   1.577  2.6894  0.1373  1.4290
 6475TIP3   OH240983   3.637   3.364   8.505  0.3564 -0.0819 -0.0897
 6475TIP3    H140984   3.709   3.392   8.561 -0.6512  2.2025  0.2227
 6475TIP3    H240985   3.661   3.394   8.418  0.6958 -1.1616 -0.3704
 6476TIP3   OH240986   1.450   0.255   8.094 -0.1890 -0.5465  0.6659
 6476TIP3    H140987   1.492   0.339   8.078 -1.5099 -0.0931 -0.6202
 6476TIP3    H240988   1.515   0.190   8.069 -0.1179  0.1361 -1.0051
 6477TIP3   OH240989   5.245   6.388   1.311 -0.2337 -0.1420 -0.1953
 6477TIP3    H140990   5.198   6.472   1.310  1.2149  0.6986 -0.5350
 6477TIP3    H240991   5.311   6.399   1.378  2.3338  0.3910 -2.6252
 6478TIP3   OH240992   0.523   4.680   0.652 -0.6441 -0.4024  0.6058
 6478TIP3    H140993   0.444   4.711   0.697  0.2745  1.4838  1.0080
 6478TIP3    H240994   0.543   4.749   0.589 -0.5617 -1.9143 -1.1169
 6479TIP3   OH240995   2.972   4.796   0.962  0.0626 -0.5572 -0.4017
 6479TIP3    H140996   2.992   4.809   0.869 -0.4117 -0.8576 -0.5530
 6479TIP3    H240997   2.973   4.884   0.999 -1.3497 -0.2364 -1.0380
 6480TIP3   OH240998   3.419   6.142   1.509  0.8417 -0.2064  0.3136
 6480TIP3    H140999   3.355   6.211   1.488  1.4608 -0.0725 -1.2200
 6480TIP3    H241000   3.476   6.138   1.433  1.5407 -1.6237  0.8783
 6481TIP3   OH241001   5.260   5.684   7.183  0.1867 -0.6989 -0.1675
 6481TIP3    H141002   5.228   5.619   7.120  3.1361 -2.0027 -0.4826
 6481TIP3    H241003   5.328   5.638   7.232  1.7159  1.8532  0.2890
 6482TIP3   OH241004   0.196   0.751   0.686 -0.5326  0.4785 -0.0269
 6482TIP3    H141005   0.193   0.729   0.779  0.7005  2.3431  0.5047
 6482TIP3    H241006   0.269   0.701   0.651 -0.0957  0.8559  0.3371
 6483TIP3   OH241007   2.903   5.040   8.691  0.0630  0.3788  0.0382
 6483TIP3    H141008   2.952   5.035   8.773  1.2877  0.7008 -0.6487
 6483TIP3    H241009   2.866   5.128   8.691  0.3782  0.5125  0.0728
 6484TIP3   OH241010   4.019   0.572   1.511 -0.0681 -0.1171 -0.5456
 6484TIP3    H141011   3.986   0.572   1.601 -0.4965  0.6972 -0.6912
 6484TIP3    H241012   4.108   0.538   1.518 -0.5323 -1.3027  0.0082
 6485TIP3   OH241013   3.848   5.605   6.770 -0.1340  0.0308 -0.0405
 6485TIP3    H141014   3.829   5.621   6.677 -0.2312  1.6343  0.2180
 6485TIP3    H241015   3.767   5.570   6.806 -0.4787  0.5342 -0.3189
 6486TIP3   OH241016   4.893   3.147   7.927 -0.0823  0.3709 -0.0166
 6486TIP3    H141017   4.954   3.199   7.980  2.3391 -1.7764 -0.4482
 6486TIP3    H241018   4.949   3.081   7.886 -2.8831 -2.7482  0.7238
 6487TIP3   OH241019   0.204   1.467   0.512 -0.4025 -0.2266 -0.1197
 6487TIP3    H141020   0.235   1.557   0.502 -1.1451 -0.0345 -0.8112
 6487TIP3    H241021   0.175   1.442   0.424  1.8763 -1.9548 -0.4763
 6488TIP3   OH241022   1.792   0.664   7.425 -0.1511 -0.0364  0.0574
 6488TIP3    H141023   1.881   0.648   7.394  0.0656 -2.1424  1.5170
 6488TIP3    H241024   1.739   0.599   7.379 -0.9286  1.0344 -0.6143
 6489TIP3   OH241025   4.222   0.865   8.111 -0.6153  0.2982 -0.5209
 6489TIP3    H141026   4.150   0.821   8.067  0.2695 -1.1698 -0.5555
 6489TIP3    H241027   4.229   0.951   8.068 -0.3223 -0.7539 -2.6755
 6490TIP3   OH241028   4.387   3.460   1.632  0.2952 -0.3213 -0.4241
 6490TIP3    H141029   4.293   3.456   1.612  0.5658 -2.0672 -1.5279
 6490TIP3    H241030   4.391   3.445   1.726 -0.4009 -5.0815 -0.8782
 6491TIP3   OH241031   4.576   4.033   1.761  0.0749 -0.2185  0.2134
 6491TIP3    H141032   4.592   4.068   1.673  1.0660  0.9131  0.8252
 6491TIP3    H241033   4.550   4.109   1.813  1.0131 -0.5813  1.2606
 6492TIP3   OH241034   3.228   3.445   0.701  0.1684  0.3788  0.0807
 6492TIP3    H141035   3.187   3.528   0.680  2.5038  1.3718 -0.9162
 6492TIP3    H241036   3.250   3.406   0.616  3.3308  1.0707  0.4425
 6493TIP3   OH241037   4.935   6.354   0.767  0.1052  0.1143 -0.1664
 6493TIP3    H141038   4.906   6.278   0.717  1.4574 -0.8722  0.4921
 6493TIP3    H241039   4.937   6.324   0.858  2.1804  0.3956 -0.0613
 6494TIP3   OH241040   4.557   6.215   8.580 -0.4301 -0.2527  0.9905
 6494TIP3    H141041   4.624   6.274   8.546 -1.4383  0.5318  0.3037
 6494TIP3    H241042   4.518   6.175   8.502 -0.8795 -0.5593  1.3640
 6495TIP3   OH241043   2.209   3.647   0.891  0.5522 -0.6832  0.1148
 6495TIP3    H141044   2.170   3.563   0.914  1.0736 -0.9261  0.1035
 6495TIP3    H241045   2.137   3.709   0.900  0.2724 -1.0631  0.5355
 6496TIP3   OH241046   3.589   0.507   0.646  0.3452 -0.6438  0.0061
 6496TIP3    H141047   3.586   0.418   0.610 -0.6487 -0.8647  0.5853
 6496TIP3    H241048   3.681   0.519   0.672  0.7772 -0.9880 -1.2947
 6497TIP3   OH241049   1.712   0.921   1.101  0.2961  0.2105  0.4174
 6497TIP3    H141050   1.705   1.016   1.102 -0.6605  0.1423  0.9114
 6497TIP3    H241051   1.771   0.902   1.027 -1.4650  1.0584 -1.2978
 6498TIP3   OH241052   6.549   1.741   8.345 -0.2402  0.1348  0.3800
 6498TIP3    H141053   6.459   1.766   8.322 -1.0652 -1.1319  2.0479
 6498TIP3    H241054   6.550   1.646   8.335  1.1928  0.2103 -0.4192
 6499TIP3   OH241055   0.576   1.872   7.343  0.3206 -0.0184  0.0931
 6499TIP3    H141056   0.493   1.881   7.297  0.5328 -0.7363 -0.4491
 6499TIP3    H241057   0.594   1.959   7.378 -1.8703 -0.3521  2.3427
 6500TIP3   OH241058   3.604   4.806   7.957 -0.0452  0.2524 -0.2711
 6500TIP3    H141059   3.568   4.717   7.957 -1.0804  0.6617  0.2282
 6500TIP3    H241060   3.540   4.857   7.908 -0.0146  0.9485  0.4154
 6501TIP3   OH241061   3.579   1.217   7.162 -0.6281  0.1364 -0.8501
 6501TIP3    H141062   3.544   1.143   7.112 -0.2184 -0.0392 -0.8830
 6501TIP3    H241063   3.536   1.294   7.125 -0.5930 -0.0276 -1.2325
 6502TIP3   OH241064   0.416   0.842   0.065  0.1545 -0.2803  0.2084
 6502TIP3    H141065   0.418   0.753   0.031 -1.7760 -0.2092 -0.1627
 6502TIP3    H241066   0.508   0.861   0.086  0.8524 -1.7215 -1.3006
 6503TIP3   OH241067   4.514   2.879   0.456  0.1923  0.4157 -0.1136
 6503TIP3    H141068   4.568   2.802   0.474  0.1451  0.1212 -1.1721
 6503TIP3    H241069   4.448   2.879   0.525  1.2544  0.5227  0.9309
 6504TIP3   OH241070   4.912   3.519   7.950 -0.8795 -0.5096  0.0165
 6504TIP3    H141071   4.939   3.431   7.922  1.4994  0.0432  0.3751
 6504TIP3    H241072   4.994   3.563   7.972 -2.0232  1.8279 -0.1662
 6505TIP3   OH241073   4.028   0.463   0.145  0.3824  0.4244  0.7141
 6505TIP3    H141074   4.034   0.369   0.128 -2.0851 -0.0754  2.0731
 6505TIP3    H241075   4.013   0.502   0.059 -0.9053 -0.7517  0.3651
 6506TIP3   OH241076   0.660   4.164   1.728 -0.3363 -0.4434  0.5920
 6506TIP3    H141077   0.705   4.151   1.644 -1.7959  0.4277 -0.3672
 6506TIP3    H241078   0.722   4.216   1.779 -0.5757  1.6236 -1.0698
 6507TIP3   OH241079   3.269   5.531   1.386 -0.0898 -0.2469 -0.6158
 6507TIP3    H141080   3.356   5.528   1.426 -0.2263 -0.5137 -0.3332
 6507TIP3    H241081   3.221   5.594   1.439  0.2241  0.6694 -1.3819
 6508TIP3   OH241082   5.576   6.427   1.308  0.0634  0.3169  0.1418
 6508TIP3    H141083   5.590   6.522   1.309 -1.5665  0.6070  1.8243
 6508TIP3    H241084   5.506   6.413   1.371  0.0930 -2.0078 -0.2592
 6509TIP3   OH241085   3.738   0.763   7.046 -0.3207 -0.0957 -0.0703
 6509TIP3    H141086   3.748   0.761   7.141  0.7407  1.4590 -0.1056
 6509TIP3    H241087   3.644   0.760   7.032 -0.5452  0.7780  1.0895
 6510TIP3   OH241088   3.569   0.019   7.356 -0.3971  0.4064  0.1364
 6510TIP3    H141089   3.485  -0.012   7.321  0.3208 -2.5749  0.7450
 6510TIP3    H241090   3.555   0.022   7.451 -0.1217  0.9187  0.1605
 6511TIP3   OH241091   4.625   4.090   1.504  0.3766  0.1875 -0.1965
 6511TIP3    H141092   4.549   4.098   1.446 -1.3298  1.3141  2.0557
 6511TIP3    H241093   4.680   4.165   1.482 -0.2614  0.6220 -0.3266
 6512TIP3   OH241094   6.412   5.440   7.651 -0.1940  0.6120 -0.1743
 6512TIP3    H141095   6.382   5.521   7.693  0.6738  0.6970  0.2997
 6512TIP3    H241096   6.420   5.377   7.723  0.8590  0.6270 -0.2589
 6513TIP3   OH241097   4.051   0.862   2.062 -0.1986 -0.4747 -0.1953
 6513TIP3    H141098   3.980   0.874   1.998  0.0450  1.0507 -0.2294
 6513TIP3    H241099   4.006   0.844   2.144 -0.5034 -3.1142 -0.8524
 6514TIP3   OH241100   0.591   6.184   8.178  0.2477  0.1203  0.3380
 6514TIP3    H141101   0.680   6.179   8.143 -0.5037 -1.6972 -1.5141
 6514TIP3    H241102   0.557   6.267   8.145  0.4871 -0.2880 -0.9867
 6515TIP3   OH241103   6.417   2.449   2.129 -0.1196  0.2488  0.6383
 6515TIP3    H141104   6.454   2.423   2.045 -0.8087  0.1460  0.3574
 6515TIP3    H241105   6.487   2.498   2.173  1.1413 -1.8223  1.0800
 6516TIP3   OH241106   2.105   2.942   2.866 -0.0002  0.1008 -0.0266
 6516TIP3    H141107   2.047   2.873   2.834 -0.0234  0.8344 -1.6099
 6516TIP3    H241108   2.127   2.914   2.955 -1.6920 -0.8752  0.1325
 6517TIP3   OH241109   0.215   1.693   0.225 -0.4953 -0.3871  0.1337
 6517TIP3    H141110   0.194   1.749   0.299 -0.0684 -0.7400  0.5281
 6517TIP3    H241111   0.310   1.698   0.217 -0.5973  0.2793 -0.8978
 6518TIP3   OH241112   0.605   6.681   2.853 -0.4637  0.1822 -0.0924
 6518TIP3    H141113   0.693   6.646   2.838 -0.4383 -0.0517  0.5821
 6518TIP3    H241114   0.547   6.604   2.847 -0.5785  0.2701 -0.1236
 6519TIP3   OH241115   1.367   1.941   1.412  0.7543 -0.3429  0.2593
 6519TIP3    H141116   1.438   1.924   1.350  0.6077 -0.4866  0.1291
 6519TIP3    H241117   1.409   1.940   1.498  1.2834  1.6162  0.0584
 6520TIP3   OH241118   5.205   0.520   0.364  0.0183 -0.5896  0.1147
 6520TIP3    H141119   5.223   0.608   0.398 -2.6609 -0.4751  1.4687
 6520TIP3    H241120   5.137   0.533   0.299 -1.2726 -1.7327  1.1782
 6521TIP3   OH241121   6.553   6.308   7.989 -0.7644  0.3581  0.5615
 6521TIP3    H141122   6.573   6.225   7.947 -1.9896  1.2343 -1.9376
 6521TIP3    H241123   6.459   6.304   8.007 -1.2181  1.8138 -1.2198
 6522TIP3   OH241124   3.812   1.612   8.453 -0.3657  0.1349  0.0793
 6522TIP3    H141125   3.740   1.585   8.510 -0.8283 -0.2524 -0.6809
 6522TIP3    H241126   3.867   1.667   8.509 -1.6401  1.0542  0.4646
 6523TIP3   OH241127   5.002   5.667   8.221  0.6841  0.1809 -0.0721
 6523TIP3    H141128   4.956   5.630   8.297  2.1527  1.0202  1.3066
 6523TIP3    H241129   4.946   5.738   8.190  0.2865  0.1376  0.5355
 6524TIP3   OH241130   5.867   6.476   1.144 -0.7580 -0.2370  0.4759
 6524TIP3    H141131   5.785   6.517   1.169 -0.5489 -0.4455  1.5575
 6524TIP3    H241132   5.882   6.409   1.211  0.0743 -0.4863  0.0551
 6525TIP3   OH241133   3.635   6.563   0.128  0.0077  0.1479  0.0316
 6525TIP3    H141134   3.729   6.569   0.106  0.2257  2.7392  1.2236
 6525TIP3    H241135   3.603   6.489   0.077  2.3793  0.1721 -1.6818
 6526TIP3   OH241136   6.566   3.965   7.641 -0.5913 -0.0625 -0.3752
 6526TIP3    H141137   6.593   3.933   7.727 -0.0118  0.0603 -0.5083
 6526TIP3    H241138   6.570   3.889   7.584 -1.4008 -0.2433 -0.2074
 6527TIP3   OH241139   1.494   5.701   0.065 -0.3531 -0.5036 -0.4017
 6527TIP3    H141140   1.560   5.634   0.046  0.1451 -0.3160  0.5819
 6527TIP3    H241141   1.521   5.777   0.012 -0.8489 -1.0202 -1.4201
 6528TIP3   OH241142   4.843   2.971   1.649 -0.1816 -0.0752 -0.1987
 6528TIP3    H141143   4.887   2.888   1.638 -1.4176 -0.6457 -1.0375
 6528TIP3    H241144   4.892   3.016   1.718  0.7079 -1.3380  0.0061
 6529TIP3   OH241145   6.180   0.527   2.053 -0.5564 -0.0536  0.1022
 6529TIP3    H141146   6.274   0.514   2.039 -0.6419  0.0423 -0.5783
 6529TIP3    H241147   6.138   0.468   1.991 -0.9637 -1.2000  1.4131
 6530TIP3   OH241148   6.509   0.349   8.130 -0.4461 -0.0229  0.3376
 6530TIP3    H141149   6.576   0.313   8.188  1.2081  0.8062 -0.9529
 6530TIP3    H241150   6.528   0.309   8.044 -0.4238  1.6085 -0.4575
 6531TIP3   OH241151   5.546   0.570   1.351  0.3816  0.7806 -0.2924
 6531TIP3    H141152   5.591   0.654   1.336  0.1984  0.5843 -2.2696
 6531TIP3    H241153   5.454   0.593   1.353  0.1802  0.4687 -2.8272
 6532TIP3   OH241154   0.852   2.403   0.418 -0.1599 -0.4800  0.2830
 6532TIP3    H141155   0.935   2.388   0.372 -0.7932 -0.7068 -0.8177
 6532TIP3    H241156   0.849   2.498   0.431  1.1349 -0.6360  2.0380
 6533TIP3   OH241157   5.596   3.409   1.903  0.4790  0.4222  0.3788
 6533TIP3    H141158   5.626   3.447   1.986  0.4424  0.4603  0.3745
 6533TIP3    H241159   5.519   3.357   1.927  0.0143  1.0347  0.2580
 6534TIP3   OH241160   1.639   3.957   8.664  0.0845 -0.4249 -0.3752
 6534TIP3    H141161   1.708   4.014   8.629  0.0720  0.5258  1.0694
 6534TIP3    H241162   1.561   4.012   8.663 -0.2244 -0.8583 -0.1610
 6535TIP3   OH241163   1.223   4.350   2.967  0.0218  0.4831  0.2511
 6535TIP3    H141164   1.282   4.425   2.973  1.5732 -0.5483 -1.3281
 6535TIP3    H241165   1.280   4.274   2.963 -1.3843 -0.5674 -1.2753
 6536TIP3   OH241166   4.133   4.805   0.238 -0.6209 -0.5167 -0.2506
 6536TIP3    H141167   4.178   4.756   0.307 -1.1839 -2.9372 -1.4888
 6536TIP3    H241168   4.108   4.738   0.174 -2.8193  1.2199 -1.3329
 6537TIP3   OH241169   1.598   3.739   7.953  0.5621 -0.5158  0.1360
 6537TIP3    H141170   1.640   3.748   7.867  1.3721 -0.2041  0.5531
 6537TIP3    H241171   1.668   3.756   8.016 -0.0889 -0.4531  0.8608
 6538TIP3   OH241172   3.306   2.263   0.262  0.4133  0.0431  0.0509
 6538TIP3    H141173   3.322   2.311   0.181  2.1506 -0.9399 -0.2400
 6538TIP3    H241174   3.229   2.305   0.300  2.1919  3.5421  0.1732
 6539TIP3   OH241175   5.224   6.339   0.756 -0.4314  0.2846 -0.2106
 6539TIP3    H141176   5.233   6.251   0.718 -0.2907  0.2884 -0.1853
 6539TIP3    H241177   5.133   6.363   0.738 -0.2670  0.4312 -0.8560
 6540TIP3   OH241178   1.578   4.774   1.379 -0.1547  0.7234  0.1665
 6540TIP3    H141179   1.512   4.707   1.400 -0.9755  1.5883  0.4013
 6540TIP3    H241180   1.640   4.729   1.320 -1.8811  0.3679 -1.4651
 6541TIP3   OH241181   1.701   3.905   6.745 -0.4220  0.3874  0.0119
 6541TIP3    H141182   1.640   3.976   6.763 -1.5955 -0.7199  0.5879
 6541TIP3    H241183   1.747   3.931   6.666 -2.9881  0.4390 -1.5523
 6542TIP3   OH241184   0.726   5.873   2.100  0.3729 -0.0618 -0.0851
 6542TIP3    H141185   0.792   5.862   2.169  1.7412 -0.1910 -1.3587
 6542TIP3    H241186   0.777   5.880   2.019 -1.1280  1.1725 -0.9792
 6543TIP3   OH241187   2.817   6.172   1.892  0.1946 -0.1672  0.4117
 6543TIP3    H141188   2.799   6.227   1.969  0.2864  1.8064 -0.9068
 6543TIP3    H241189   2.913   6.167   1.889  0.1627 -1.6480  1.3458
 6544TIP3   OH241190   6.495   1.898   1.364  0.5899 -0.1727  0.2056
 6544TIP3    H141191   6.529   1.839   1.431  1.2104 -0.5556 -0.4249
 6544TIP3    H241192   6.405   1.867   1.349  0.1790  0.4034  1.3848
 6545TIP3   OH241193   0.349   3.025   7.724  0.3209  0.5886 -0.6762
 6545TIP3    H141194   0.367   3.076   7.645  1.9451  0.6705 -0.2973
 6545TIP3    H241195   0.434   2.987   7.747  0.0732  1.2807  1.5369
 6546TIP3   OH241196   6.203   4.431   7.071  0.4078 -0.1383  0.4602
 6546TIP3    H141197   6.132   4.429   7.007 -2.1263 -0.8692  3.0914
 6546TIP3    H241198   6.268   4.491   7.033 -1.1166 -0.2115 -2.5188
 6547TIP3   OH241199   3.782   0.200   0.780 -0.5718 -0.3437 -0.2323
 6547TIP3    H141200   3.778   0.268   0.848 -1.5319 -0.7890  0.1766
 6547TIP3    H241201   3.873   0.202   0.749 -0.8353  1.8789 -1.0207
 6548TIP3   OH241202   6.564   4.114   8.501  0.4460 -0.5529 -0.2549
 6548TIP3    H141203   6.493   4.056   8.474  0.1205  0.1267 -0.8705
 6548TIP3    H241204   6.641   4.080   8.456  1.1723 -3.0199  2.5509
 6549TIP3   OH241205   6.353   1.599   0.549 -0.5055 -1.1929  1.0164
 6549TIP3    H141206   6.409   1.648   0.608 -2.1318  0.4435  1.2835
 6549TIP3    H241207   6.264   1.626   0.572 -1.2389 -0.2853 -2.2991
 6550TIP3   OH241208   6.120   1.604   0.854 -0.2486  0.4769  0.9642
 6550TIP3    H141209   6.111   1.683   0.907  1.0025  1.2600  0.0539
 6550TIP3    H241210   6.094   1.631   0.766  0.0060 -0.1838  0.6789
 6551TIP3   OH241211   4.011   4.057   0.936  0.4620 -0.6243  0.7704
 6551TIP3    H141212   4.028   4.107   0.857 -0.5393 -1.3265  0.0966
 6551TIP3    H241213   3.992   3.968   0.906  1.9789 -1.4014  1.9276
 6552TIP3   OH241214   0.861   3.852   1.310  0.2985  0.7144 -0.3692
 6552TIP3    H141215   0.878   3.827   1.219  1.1921  1.1107 -0.3190
 6552TIP3    H241216   0.847   3.946   1.307 -1.7166  0.4485 -0.3674
 6553TIP3   OH241217   5.993   3.736   0.642 -0.1404 -0.3105 -0.4295
 6553TIP3    H141218   6.078   3.779   0.652 -0.0779 -0.9458  3.1058
 6553TIP3    H241219   5.991   3.671   0.712 -1.7404 -3.5862 -3.2336
 6554TIP3   OH241220   2.260   0.722   7.604 -0.3057  0.0283  0.2610
 6554TIP3    H141221   2.334   0.682   7.649  1.0616  2.8666  0.7595
 6554TIP3    H241222   2.292   0.742   7.516  0.6928  3.8212  1.2979
 6555TIP3   OH241223   5.058   3.786   7.336 -0.4903 -0.1997  0.0735
 6555TIP3    H141224   5.109   3.826   7.266  0.8097 -1.0266  0.4902
 6555TIP3    H241225   5.073   3.842   7.412 -1.8123  0.6382 -0.2666
 6556TIP3   OH241226   0.444   6.119   8.417  0.2958  0.9801 -0.1245
 6556TIP3    H141227   0.494   6.145   8.339 -0.7259 -1.0503 -1.5506
 6556TIP3    H241228   0.459   6.025   8.424 -2.0545  0.5827  0.3236
 6557TIP3   OH241229   6.027   2.319   8.019 -0.2058 -0.2326  0.2779
 6557TIP3    H141230   6.036   2.288   8.110  0.2522  0.2650  0.4056
 6557TIP3    H241231   6.097   2.384   8.009 -0.2129 -0.3364 -0.4563
 6558TIP3   OH241232   5.855   6.389   7.230  0.4945 -0.0423 -0.6366
 6558TIP3    H141233   5.859   6.296   7.206  0.7078 -0.6299  1.4950
 6558TIP3    H241234   5.795   6.427   7.165  1.1092 -1.4477 -2.1159
 6559TIP3   OH241235   3.472   0.223   8.508  0.0563  0.2560 -0.5384
 6559TIP3    H141236   3.511   0.194   8.425  0.3728  0.4985 -0.4764
 6559TIP3    H241237   3.380   0.238   8.487 -0.1979 -1.1058 -0.4928
 6560TIP3   OH241238   2.659   0.611   7.599 -0.1554  0.2560 -0.0255
 6560TIP3    H141239   2.637   0.544   7.534 -0.2291  0.3476 -0.0949
 6560TIP3    H241240   2.731   0.660   7.560  1.0325 -0.8325  0.7228
 6561TIP3   OH241241   1.776   3.019   0.101 -0.2984 -0.4220  0.4369
 6561TIP3    H141242   1.829   2.980   0.170  1.7614 -0.8205 -1.2599
 6561TIP3    H241243   1.716   2.949   0.075  0.0679 -0.8400  0.6843
 6562TIP3   OH241244   4.670   2.594   1.904  0.4310 -0.3364 -0.3011
 6562TIP3    H141245   4.646   2.683   1.877 -0.1525 -0.7514 -1.1827
 6562TIP3    H241246   4.588   2.554   1.932  1.0445  0.1777  2.5538
 6563TIP3   OH241247   5.210   5.468   2.669 -0.4505  0.0624  0.6913
 6563TIP3    H141248   5.232   5.548   2.717  1.8169  3.0643 -4.4208
 6563TIP3    H241249   5.291   5.416   2.671 -1.0109 -0.8065  1.6731
 6564TIP3   OH241250   4.594   1.644   7.796  0.1549 -0.4820 -0.1981
 6564TIP3    H141251   4.649   1.662   7.720  1.0304  0.3964  0.6153
 6564TIP3    H241252   4.632   1.697   7.866  0.2743 -2.3645  1.2346
 6565TIP3   OH241253   4.437   6.811   2.758  0.1421  0.7153  0.3831
 6565TIP3    H141254   4.408   6.765   2.680  1.1120 -0.8619  0.9029
 6565TIP3    H241255   4.465   6.897   2.726  1.1585 -0.1335 -1.1357
 6566TIP3   OH241256   4.447   3.109   2.246  0.2111  0.0241  0.0513
 6566TIP3    H141257   4.400   3.156   2.177  2.5618 -0.5712 -2.1076
 6566TIP3    H241258   4.407   3.140   2.327  0.0855  4.0829 -1.3049
 6567TIP3   OH241259   1.584   1.702   2.394  0.2831 -0.7313  0.0190
 6567TIP3    H141260   1.570   1.752   2.314  3.3865 -0.0820 -0.2634
 6567TIP3    H241261   1.499   1.703   2.439 -1.4298 -0.7386 -2.9864
 6568TIP3   OH241262   6.627   5.251   0.740 -0.2869  0.1229 -0.0082
 6568TIP3    H141263   6.646   5.325   0.681  1.5018  0.3718  0.8037
 6568TIP3    H241264   6.637   5.174   0.685 -0.7032  0.4204 -0.5146
 6569TIP3   OH241265   0.168   5.207   2.190  0.4847 -0.6081 -0.5192
 6569TIP3    H141266   0.204   5.295   2.202  0.5222 -0.9495  2.5884
 6569TIP3    H241267   0.086   5.207   2.240  1.2628 -2.7340  0.9103
 6570TIP3   OH241268   1.879   3.398   7.633  0.1855 -0.1531  0.3675
 6570TIP3    H141269   1.971   3.413   7.614  0.0187 -1.0442 -1.3222
 6570TIP3    H241270   1.878   3.318   7.686  0.4430  0.6664  1.6702
 6571TIP3   OH241271   1.677   1.321   8.159  0.5186  0.1805  0.0788
 6571TIP3    H141272   1.590   1.285   8.175  0.9399 -2.6699 -2.8864
 6571TIP3    H241273   1.662   1.403   8.113 -0.6007 -0.1172 -0.0955
 6572TIP3   OH241274   1.448   4.096   7.635  0.1852 -0.2636  0.0420
 6572TIP3    H141275   1.497   4.067   7.712 -0.5251  0.5676  0.8375
 6572TIP3    H241276   1.419   4.185   7.657  1.7230  0.8461 -2.0382
 6573TIP3   OH241277   6.799   3.077   7.628 -0.3283 -0.6906 -0.0283
 6573TIP3    H141278   6.868   3.075   7.562 -1.0370 -0.7507 -0.7910
 6573TIP3    H241279   6.737   3.142   7.595 -0.8197 -0.9156  0.4447
 6574TIP3   OH241280   2.864   0.467   0.913  0.0580  0.1273  0.0176
 6574TIP3    H141281   2.838   0.546   0.867  1.6154 -0.3145 -1.7587
 6574TIP3    H241282   2.787   0.441   0.964 -1.9992  0.3644 -2.7607
 6575TIP3   OH241283   2.546   1.638   1.132  0.0304 -0.1739  0.0751
 6575TIP3    H141284   2.620   1.642   1.192 -0.7072 -1.5565  1.1476
 6575TIP3    H241285   2.523   1.545   1.129 -2.9506  0.3796  1.4556
 6576TIP3   OH241286   1.510   5.572   1.244  0.3664 -0.4289  0.0622
 6576TIP3    H141287   1.535   5.663   1.261  2.0091 -0.8468  0.0608
 6576TIP3    H241288   1.426   5.578   1.199  0.3903  1.0792  0.1842
 6577TIP3   OH241289   3.598   6.292   7.753 -0.8000  0.1022  0.5262
 6577TIP3    H141290   3.613   6.383   7.778 -0.2945  0.0283  0.5061
 6577TIP3    H241291   3.524   6.264   7.807  1.1297 -0.4924  3.0677
 6578TIP3   OH241292   4.836   4.649   0.196  0.4186 -0.2331 -0.5043
 6578TIP3    H141293   4.751   4.621   0.231 -0.2268  0.4806 -1.4398
 6578TIP3    H241294   4.897   4.581   0.224 -0.6880 -1.3995 -0.8242
 6579TIP3   OH241295   2.492   5.754   7.207  0.0693 -0.0149  0.0905
 6579TIP3    H141296   2.560   5.744   7.274 -0.4894  2.2597  1.1110
 6579TIP3    H241297   2.528   5.820   7.147 -0.9997  0.8148  0.3401
 6580TIP3   OH241298   6.648   3.622   1.254 -0.5550 -0.3819  0.1826
 6580TIP3    H141299   6.583   3.563   1.291 -1.1178 -0.5444 -1.0265
 6580TIP3    H241300   6.599   3.701   1.232 -0.2210 -0.2775 -0.1940
 6581TIP3   OH241301   2.848   2.456   0.416  0.7799 -0.1552  0.2245
 6581TIP3    H141302   2.820   2.548   0.418 -1.0624 -0.6657  0.1558
 6581TIP3    H241303   2.791   2.412   0.479  0.6559 -1.4728 -0.7529
 6582TIP3   OH241304   1.330   4.106   2.875 -0.5327 -0.1830 -0.1761
 6582TIP3    H141305   1.303   4.097   2.784 -0.0298 -1.0608 -0.2461
 6582TIP3    H241306   1.256   4.073   2.926 -0.2121 -1.1449 -0.3207
 6583TIP3   OH241307   1.362   5.853   7.586 -0.1018 -0.0514 -0.0146
 6583TIP3    H141308   1.349   5.767   7.546 -0.0209 -1.0378  1.9867
 6583TIP3    H241309   1.457   5.861   7.597 -0.2030 -0.5451  1.4688
 6584TIP3   OH241310   0.059   1.800   1.522  0.2820 -0.3579 -0.5454
 6584TIP3    H141311  -0.023   1.755   1.540  0.6525 -1.4416 -1.4393
 6584TIP3    H241312   0.040   1.858   1.448 -0.7035  2.5511  1.7695
 6585TIP3   OH241313   1.683   2.188   8.457  0.8379 -0.3264  0.7944
 6585TIP3    H141314   1.770   2.148   8.459  0.9994 -0.0697 -0.4313
 6585TIP3    H241315   1.688   2.259   8.521  1.1277 -1.0847  1.6427
 6586TIP3   OH241316   4.424   0.887   0.477  0.1515 -0.5257  0.4305
 6586TIP3    H141317   4.355   0.873   0.541  0.0262 -1.0815  0.1758
 6586TIP3    H241318   4.467   0.802   0.468  0.2536 -0.4236 -0.1187
 6587TIP3   OH241319   6.737   6.821   2.547  0.0542  0.3703 -0.3869
 6587TIP3    H141320   6.700   6.733   2.542 -0.7805  0.7292 -0.7701
 6587TIP3    H241321   6.764   6.831   2.638 -0.3494 -0.0938 -0.2130
 6588TIP3   OH241322   5.985   0.641   1.040 -0.2871 -1.0626 -0.2420
 6588TIP3    H141323   6.066   0.590   1.044 -0.2277 -0.9036  0.7231
 6588TIP3    H241324   6.006   0.723   1.084 -0.2836 -0.0186 -2.0626
 6589TIP3   OH241325   1.603   0.464   7.405  0.0410  0.2538 -0.1373
 6589TIP3    H141326   1.603   0.438   7.498  1.3579 -0.4955 -0.3170
 6589TIP3    H241327   1.531   0.527   7.398 -0.0701  0.3479  1.3975
 6590TIP3   OH241328   2.571   5.999   0.378  0.5840 -0.0192 -0.1695
 6590TIP3    H141329   2.649   5.944   0.364 -0.3942 -1.4878 -0.0929
 6590TIP3    H241330   2.508   5.968   0.313  0.0190  1.0845 -0.1684
 6591TIP3   OH241331   2.307   4.377   8.011  0.1886  0.4799 -0.5240
 6591TIP3    H141332   2.351   4.395   7.928  0.0307  2.0504 -0.3004
 6591TIP3    H241333   2.214   4.389   7.993 -0.1295 -1.8246 -0.7417
 6592TIP3   OH241334   4.130   2.094   1.378 -0.5030  0.2148  0.3648
 6592TIP3    H141335   4.081   2.032   1.432 -1.0068  1.4075  1.3137
 6592TIP3    H241336   4.179   2.147   1.440 -0.6927  1.2837 -0.3637
 6593TIP3   OH241337   5.481   1.441   0.223  0.7002 -0.0116  0.4695
 6593TIP3    H141338   5.419   1.372   0.197  1.1715 -0.7009  1.1137
 6593TIP3    H241339   5.436   1.487   0.294  1.0729 -0.7750  1.2186
 6594TIP3   OH241340   3.989   3.119   7.768 -0.5305  0.3317  0.1182
 6594TIP3    H141341   4.010   3.197   7.819 -0.2314  0.6488 -0.4816
 6594TIP3    H241342   3.919   3.077   7.817 -2.5203  2.3204 -0.8464
 6595TIP3   OH241343   1.504   0.273   0.579  0.0172  0.1390 -0.0572
 6595TIP3    H141344   1.470   0.318   0.502  0.3997  1.8524  0.7290
 6595TIP3    H241345   1.563   0.337   0.620 -0.8223 -0.3971  2.1024
 6596TIP3   OH241346   2.204   3.080   1.015  0.3111 -0.3178 -0.0688
 6596TIP3    H141347   2.170   3.064   0.927 -4.6588  0.4547  1.4134
 6596TIP3    H241348   2.211   2.994   1.055  2.0119 -0.6190 -0.9082
 6597TIP3   OH241349   6.057   4.790   6.719  0.1729  0.5028 -0.1141
 6597TIP3    H141350   5.978   4.836   6.746  0.5329  1.6386 -0.9481
 6597TIP3    H241351   6.036   4.751   6.635  0.6243  1.1485 -0.5308
 6598TIP3   OH241352   0.342   5.677   8.180  0.1588  0.1096  0.0840
 6598TIP3    H141353   0.263   5.711   8.137  0.5991  0.5719 -0.3663
 6598TIP3    H241354   0.381   5.619   8.116 -1.4102 -2.5795  1.3916
 6599TIP3   OH241355   1.098   0.927   8.517 -0.0943  0.2571 -0.3641
 6599TIP3    H141356   1.050   0.978   8.583  1.5048  0.6126  0.5762
 6599TIP3    H241357   1.095   0.837   8.550  1.9735  0.6439  1.0707
 6600TIP3   OH241358   4.136   0.074   1.765  0.0108  0.5686 -0.3504
 6600TIP3    H141359   4.058   0.051   1.815 -0.6656  2.3303 -0.5279
 6600TIP3    H241360   4.198   0.003   1.783 -1.2253 -0.2806  0.6984
 6601TIP3   OH241361   2.104   1.060   7.405  0.4834 -0.0628 -0.3091
 6601TIP3    H141362   2.132   1.152   7.403 -0.8781  0.5166  2.6842
 6601TIP3    H241363   2.098   1.036   7.312  1.0404  2.8016 -1.2084
 6602TIP3   OH241364   5.520   6.284   7.326 -0.1596 -0.0637  0.0359
 6602TIP3    H141365   5.551   6.261   7.238  2.2729  0.3779  0.7037
 6602TIP3    H241366   5.472   6.366   7.313 -0.6211 -0.4705 -0.9839
 6603TIP3   OH241367   3.866   1.870   7.516 -0.1200  0.1186 -0.0684
 6603TIP3    H141368   3.869   1.777   7.540  3.4197  0.1268  0.0701
 6603TIP3    H241369   3.814   1.911   7.585  0.2853 -1.4759  1.2440
 6604TIP3   OH241370   5.027   5.454   0.458  0.7362  0.2593  0.1488
 6604TIP3    H141371   5.055   5.527   0.513 -0.3409  0.9742 -0.2234
 6604TIP3    H241372   5.061   5.376   0.502  3.2379  1.0444 -0.2568
 6605TIP3   OH241373   1.697   3.950   2.737  0.0058 -0.3853 -0.2367
 6605TIP3    H141374   1.639   3.890   2.692 -0.7234 -0.4423  0.7442
 6605TIP3    H241375   1.651   3.972   2.818  1.8688 -1.4243  1.1863
 6606TIP3   OH241376   2.161   5.044   2.313 -0.4036 -0.3089  0.0483
 6606TIP3    H141377   2.081   5.055   2.261  0.1161  1.2899 -0.4920
 6606TIP3    H241378   2.145   5.095   2.392 -0.6570 -1.6021  0.8432
 6607TIP3   OH241379   0.265   0.634   8.243  0.3942  0.1571 -0.2780
 6607TIP3    H141380   0.321   0.611   8.169  0.6912  0.0871 -0.0352
 6607TIP3    H241381   0.284   0.568   8.309  0.5332  0.5286  0.0604
 6608TIP3   OH241382   4.244   0.952   7.528 -0.4193 -0.4416 -0.0597
 6608TIP3    H141383   4.149   0.964   7.528 -0.3904 -0.1189 -1.4144
 6608TIP3    H241384   4.280   1.039   7.545 -0.3465 -0.3790 -0.5424
 6609TIP3   OH241385   1.277   2.551   7.613 -0.3353  0.3556  0.0048
 6609TIP3    H141386   1.281   2.508   7.528  2.2598 -0.2081  0.3198
 6609TIP3    H241387   1.268   2.644   7.593 -1.0538  0.1254 -0.8194
 6610TIP3   OH241388   6.546   5.250   1.618 -0.2304  0.0172 -0.4148
 6610TIP3    H141389   6.469   5.302   1.641 -1.5681 -1.1911 -1.9216
 6610TIP3    H241390   6.532   5.226   1.526  1.1498 -1.5964 -0.2457
 6611TIP3   OH241391   6.810   3.746   2.895 -0.3390  0.5504  0.1726
 6611TIP3    H141392   6.773   3.700   2.971 -2.5639  1.5847 -0.1838
 6611TIP3    H241393   6.739   3.802   2.865  1.6211  2.7802 -0.5835
 6612TIP3   OH241394   5.964   0.160   2.801 -0.1183 -0.0838 -0.0413
 6612TIP3    H141395   5.936   0.195   2.717 -0.4134  0.8062  0.4169
 6612TIP3    H241396   6.032   0.096   2.778 -0.8969 -0.5961 -1.0077
 6613TIP3   OH241397   3.438   5.310   2.361  0.4153  0.4319 -0.1954
 6613TIP3    H141398   3.489   5.384   2.394 -1.2712  1.9871 -0.9556
 6613TIP3    H241399   3.456   5.309   2.267  1.2913 -0.8663 -0.0462
 6614TIP3   OH241400   6.499   1.119   0.659 -0.2266 -0.7411  0.0610
 6614TIP3    H141401   6.514   1.155   0.572  0.5536 -0.1995  0.4090
 6614TIP3    H241402   6.404   1.120   0.669 -0.2518  1.6930  0.2177
 6615TIP3   OH241403   4.753   3.843   6.879  0.6210  0.9682  0.0974
 6615TIP3    H141404   4.837   3.820   6.838  0.7888 -0.4993  1.1561
 6615TIP3    H241405   4.693   3.854   6.805  1.2474 -0.1707 -0.6290
 6616TIP3   OH241406   3.785   5.741   1.737  0.0527  0.6675  0.4378
 6616TIP3    H141407   3.834   5.702   1.810  0.5688  0.5385  0.0315
 6616TIP3    H241408   3.842   5.727   1.661  0.4225  2.5439  0.3307
 6617TIP3   OH241409   0.050   1.395   2.461  0.0390 -0.3522 -0.2696
 6617TIP3    H141410   0.036   1.353   2.546 -0.1101 -0.3199 -0.2765
 6617TIP3    H241411  -0.038   1.400   2.423 -0.1856  1.3720  0.3885
 6618TIP3   OH241412   0.429   3.330   7.064  0.4680  0.1958  0.0622
 6618TIP3    H141413   0.355   3.378   7.102 -0.4619 -1.3789  0.3460
 6618TIP3    H241414   0.406   3.322   6.971  0.3106 -0.2129  0.1328
 6619TIP3   OH241415   6.275   0.707   0.816 -0.9678 -0.4863 -0.0153
 6619TIP3    H141416   6.269   0.626   0.867 -0.8290  0.4788  1.6223
 6619TIP3    H241417   6.325   0.683   0.738  0.9785 -1.5333  1.4609
 6620TIP3   OH241418   4.509   6.248   0.892  0.4686 -0.4989  0.5607
 6620TIP3    H141419   4.521   6.180   0.958  0.3947 -1.0998 -0.0339
 6620TIP3    H241420   4.418   6.277   0.904  0.8890  0.4290  1.6698
 6621TIP3   OH241421   5.054   4.753   1.381 -0.3327  0.8374 -0.2035
 6621TIP3    H141422   5.121   4.744   1.313  0.0290 -0.0856  0.2616
 6621TIP3    H241423   5.070   4.840   1.418 -1.5479  2.0429 -2.3403
 6622TIP3   OH241424   0.039   3.882   0.564 -0.3910  0.1074  0.3944
 6622TIP3    H141425   0.019   3.791   0.585  0.3475 -0.5916 -1.6508
 6622TIP3    H241426  -0.033   3.909   0.506 -0.9049  1.0310  1.4368
 6623TIP3   OH241427   5.041   3.298   8.090 -0.2672 -0.4346 -0.0407
 6623TIP3    H141428   5.057   3.302   8.184 -1.2235  0.0434  0.1192
 6623TIP3    H241429   5.114   3.345   8.050  0.8995 -1.8554  0.3578
 6624TIP3   OH241430   6.313   5.832   1.065  0.6466 -0.6550  0.3191
 6624TIP3    H141431   6.392   5.777   1.062  0.4061 -0.9680 -2.2080
 6624TIP3    H241432   6.270   5.817   0.981 -0.8505  1.3863  0.6472
 6625TIP3   OH241433   1.797   6.478   1.766  0.2603 -0.0088 -0.2310
 6625TIP3    H141434   1.867   6.530   1.727  0.8768 -1.5398 -1.2476
 6625TIP3    H241435   1.821   6.473   1.859  0.6592  0.7653 -0.2826
 6626TIP3   OH241436   4.098   4.862   1.012 -0.0344 -0.2443 -0.2420
 6626TIP3    H141437   4.019   4.853   0.960 -1.1269  0.7282  1.1674
 6626TIP3    H241438   4.075   4.925   1.080  1.8907 -0.0984  0.3396
 6627TIP3   OH241439   1.130   3.484   2.363  0.2996 -0.1943  0.3125
 6627TIP3    H141440   1.202   3.421   2.368  1.0318  0.5046 -0.8648
 6627TIP3    H241441   1.070   3.458   2.433  0.4618 -2.3350 -0.2561
 6628TIP3   OH241442   4.758   0.913   7.733  0.1734  0.1527 -0.1077
 6628TIP3    H141443   4.770   0.862   7.813  2.2621  1.5437  0.5659
 6628TIP3    H241444   4.721   0.996   7.763  2.7856  1.4665 -0.1654
 6629TIP3   OH241445   5.435   6.679   7.818  0.1125  0.0768  0.3250
 6629TIP3    H141446   5.388   6.673   7.734  1.3978 -0.0654 -0.4073
 6629TIP3    H241447   5.511   6.734   7.799  1.0933 -0.9767  1.0655
 6630TIP3   OH241448   0.823   4.158   1.498 -0.5829 -0.1416  0.2433
 6630TIP3    H141449   0.916   4.151   1.520 -0.4011  1.0563 -0.0871
 6630TIP3    H241450   0.822   4.196   1.411 -1.3494 -2.5065 -0.8600
 6631TIP3   OH241451   3.370   6.407   7.316 -0.3335 -0.6584  0.3063
 6631TIP3    H141452   3.324   6.490   7.332 -1.0741 -1.4146  2.3817
 6631TIP3    H241453   3.435   6.429   7.249 -0.5789  1.5814  0.7170
 6632TIP3   OH241454   1.697   5.106   7.514 -0.3585  0.4507 -0.6049
 6632TIP3    H141455   1.686   5.043   7.585  0.6333  0.7121 -0.2141
 6632TIP3    H241456   1.633   5.078   7.448 -0.2763 -0.6642 -0.2359
 6633TIP3   OH241457   4.844   1.366   0.407  0.3773  0.4193  0.0283
 6633TIP3    H141458   4.751   1.382   0.394  0.4578 -0.0790 -1.2104
 6633TIP3    H241459   4.848   1.279   0.446  0.3869 -0.2463 -1.4054
 6634TIP3   OH241460   1.957   4.762   2.436 -0.2695 -0.4018 -0.7169
 6634TIP3    H141461   1.922   4.686   2.388  1.2035 -1.3493 -0.3828
 6634TIP3    H241462   1.904   4.767   2.515 -1.4152 -0.0755 -1.4806
 6635TIP3   OH241463   2.961   1.300   7.153  0.0464  0.5411 -0.0392
 6635TIP3    H141464   2.930   1.229   7.208 -1.8927  0.9671 -0.5199
 6635TIP3    H241465   3.038   1.265   7.109 -2.9674 -2.7668 -3.2812
 6636TIP3   OH241466   4.262   4.396   0.657 -0.5298  0.3871  0.0653
 6636TIP3    H141467   4.235   4.305   0.647  3.5810 -0.9257 -0.7846
 6636TIP3    H241468   4.323   4.396   0.731  0.2187  2.2882 -0.4815
 6637TIP3   OH241469   4.873   1.224   2.604  0.4136 -0.0764  0.6331
 6637TIP3    H141470   4.797   1.264   2.645  2.1203  2.1131  1.8792
 6637TIP3    H241471   4.885   1.141   2.652  0.0132  0.5287  1.8225
 6638TIP3   OH241472   6.526   3.840   2.867  0.3497 -0.3650 -0.4744
 6638TIP3    H141473   6.437   3.820   2.838  0.3021 -0.3491 -0.3413
 6638TIP3    H241474   6.522   3.931   2.897  0.2392 -0.5821  0.1994
 6639TIP3   OH241475   6.596   2.038   1.086  0.1179 -0.6990  0.3954
 6639TIP3    H141476   6.533   2.090   1.136 -0.9194 -0.3197 -1.2180
 6639TIP3    H241477   6.548   1.959   1.061 -0.6148  0.5954 -2.7948
 6640TIP3   OH241478   3.274   1.545   0.147  0.4462  0.0225 -0.4722
 6640TIP3    H141479   3.300   1.533   0.239  1.5854  1.1049 -0.6177
 6640TIP3    H241480   3.200   1.605   0.151  1.7750  1.7529 -0.3060
 6641TIP3   OH241481   0.605   2.873   7.001  0.1120 -0.0539 -0.0608
 6641TIP3    H141482   0.606   2.969   6.997  1.7061 -0.0420 -0.3981
 6641TIP3    H241483   0.513   2.849   6.995 -0.2089  1.3744 -2.5294
 6642TIP3   OH241484   6.554   1.245   0.105  0.4123 -0.2673 -0.3158
 6642TIP3    H141485   6.587   1.323   0.060  0.1962  0.2853  0.4527
 6642TIP3    H241486   6.567   1.174   0.043  1.6153  0.1948 -0.6264
 6643TIP3   OH241487   1.278   3.144   1.946  0.1089 -0.0179  0.0029
 6643TIP3    H141488   1.234   3.153   1.862  0.2027 -0.5744 -0.1090
 6643TIP3    H241489   1.237   3.210   2.002  0.7948  1.1201 -0.7780
 6644TIP3   OH241490   0.157   3.310   7.646 -0.0979 -0.1352 -0.0361
 6644TIP3    H141491   0.145   3.249   7.573  1.1752  0.1582 -0.5319
 6644TIP3    H241492   0.202   3.385   7.607  0.6664 -0.0006  1.0584
 6645TIP3   OH241493   0.305   5.717   2.152 -0.3563  0.4162 -0.5207
 6645TIP3    H141494   0.387   5.672   2.131 -0.2521 -1.2063  2.8167
 6645TIP3    H241495   0.313   5.803   2.109  2.2288 -0.3814 -1.8142
 6646TIP3   OH241496   6.857   5.116   0.056 -0.1686  0.4651 -0.1994
 6646TIP3    H141497   6.951   5.130   0.043 -0.1648 -1.0008 -2.2644
 6646TIP3    H241498   6.821   5.111  -0.032 -1.8897 -0.7636  0.5156
 6647TIP3   OH241499   4.619   1.293   8.371 -0.8734 -0.4645 -0.2109
 6647TIP3    H141500   4.615   1.235   8.446 -1.3822 -0.8943 -0.5625
 6647TIP3    H241501   4.659   1.374   8.404 -1.3088 -0.5660  0.5633
 6648TIP3   OH241502   5.369   2.351   7.266  0.1831 -0.1852  0.7146
 6648TIP3    H141503   5.396   2.343   7.175 -1.6405 -0.1854  0.1425
 6648TIP3    H241504   5.274   2.336   7.265 -0.4645  2.9771  2.1188
 6649TIP3   OH241505   2.152   3.655   1.822  0.8384 -0.0614  0.2885
 6649TIP3    H141506   2.246   3.668   1.812  0.8486 -0.7095 -0.6462
 6649TIP3    H241507   2.121   3.637   1.733 -0.2632  0.6946  0.4851
 6650TIP3   OH241508   1.979   2.371   2.411 -0.7937 -0.0135 -0.2744
 6650TIP3    H141509   1.896   2.339   2.444 -0.2619 -1.1076  0.0669
 6650TIP3    H241510   2.043   2.305   2.438 -0.0885 -0.1482 -2.0822
 6651TIP3   OH241511   2.029   0.656   6.447  0.0573  0.0854 -0.1232
 6651TIP3    H141512   2.059   0.568   6.469  0.9766  0.7889  1.6638
 6651TIP3    H241513   1.934   0.652   6.459  0.0530 -0.7443 -0.3792
 6652TIP3   OH241514   2.194   2.743   7.684  0.9791  0.3989 -0.4048
 6652TIP3    H141515   2.254   2.741   7.610 -0.8301 -1.0282 -1.9403
 6652TIP3    H241516   2.146   2.825   7.675  1.1190  0.4688 -0.5084
 6653TIP3   OH241517   3.963   3.779   6.694 -0.0165  0.0957  0.6649
 6653TIP3    H141518   3.958   3.759   6.600 -1.9520  0.1436  0.7202
 6653TIP3    H241519   3.901   3.851   6.706  1.8830  1.6677  1.6275
 6654TIP3   OH241520   6.134   3.792   8.367  0.0545  0.3484  0.0647
 6654TIP3    H141521   6.121   3.864   8.428 -1.6894  0.7399 -0.6909
 6654TIP3    H241522   6.108   3.828   8.282 -1.8638 -1.4360 -0.1790
 6655TIP3   OH241523   2.711   4.296   0.157 -0.0631 -0.0431 -0.2542
 6655TIP3    H141524   2.757   4.215   0.136 -0.9552 -0.4238 -0.8222
 6655TIP3    H241525   2.761   4.364   0.112  1.4045 -0.0943  1.2264
 6656TIP3   OH241526   4.850   4.991   7.285  0.1996 -0.4237  0.2498
 6656TIP3    H141527   4.806   5.062   7.239 -2.8129 -3.2250 -1.6803
 6656TIP3    H241528   4.802   4.982   7.367  0.4230 -0.4211  0.3831
 6657TIP3   OH241529   1.599   2.295   1.066  0.6858  0.4700 -0.1514
 6657TIP3    H141530   1.642   2.272   1.148 -0.6711  0.8310  0.7018
 6657TIP3    H241531   1.536   2.362   1.091 -0.0625  0.2622 -1.4206
 6658TIP3   OH241532   0.790   1.304   2.209 -0.2635 -0.2992  0.0454
 6658TIP3    H141533   0.718   1.247   2.236  0.2968 -0.4692  1.2411
 6658TIP3    H241534   0.852   1.245   2.166  0.6165 -0.7794  1.8476
 6659TIP3   OH241535   4.022   2.727   1.756 -0.0148  0.2748 -0.0314
 6659TIP3    H141536   4.104   2.775   1.759  0.1041  0.1261 -0.6999
 6659TIP3    H241537   3.991   2.725   1.847 -0.0244  1.5991  0.0135
 6660TIP3   OH241538   4.237   6.363   7.389 -0.2719 -0.0093  0.1038
 6660TIP3    H141539   4.184   6.407   7.456  1.1072  2.8398 -0.5344
 6660TIP3    H241540   4.214   6.407   7.307  2.7784  1.2170 -0.2393
 6661TIP3   OH241541   3.441   1.125   8.433 -0.1444 -0.6917 -0.5431
 6661TIP3    H141542   3.356   1.097   8.399 -0.8688 -0.2457  0.8058
 6661TIP3    H241543   3.422   1.157   8.522  1.1086  1.2580 -0.9069
 6662TIP3   OH241544   1.361   1.477   0.727  0.0234 -0.2478  0.2910
 6662TIP3    H141545   1.337   1.438   0.811 -0.7046  0.1797  0.2889
 6662TIP3    H241546   1.452   1.450   0.714 -0.5211 -2.1927  0.1476
 6663TIP3   OH241547   6.036   5.399   1.066  0.2991  0.5890 -0.0757
 6663TIP3    H141548   6.114   5.453   1.084  0.0585  0.9838 -0.2155
 6663TIP3    H241549   6.040   5.381   0.972 -1.5388  3.4166 -0.7950
 6664TIP3   OH241550   6.679   1.837   0.858  0.0272  0.5648  0.1551
 6664TIP3    H141551   6.702   1.870   0.944 -0.0900  1.2552 -0.0733
 6664TIP3    H241552   6.746   1.772   0.838 -0.8276 -0.7440  1.4240
 6665TIP3   OH241553   2.577   6.867   2.227  0.6269  0.1635  0.5261
 6665TIP3    H141554   2.641   6.938   2.229  0.2053  0.5620  0.0383
 6665TIP3    H241555   2.497   6.906   2.264  0.1900  0.1503 -0.3929
 6666TIP3   OH241556   2.454   2.099   6.424  0.1474  0.1153  0.2269
 6666TIP3    H141557   2.404   2.161   6.371 -0.9667 -0.7665  0.2064
 6666TIP3    H241558   2.533   2.147   6.448  0.1591  0.9262 -1.2748
 6667TIP3   OH241559   4.839   2.045   2.294  0.1111 -0.9120  0.7143
 6667TIP3    H141560   4.822   1.975   2.358  0.2422 -0.0862  1.6771
 6667TIP3    H241561   4.826   2.126   2.343 -2.8091 -0.1491 -1.0395
 6668TIP3   OH241562   3.979   1.272   6.817 -0.2354 -0.7138 -0.0206
 6668TIP3    H141563   3.930   1.342   6.774 -0.2899 -0.1506  0.9387
 6668TIP3    H241564   3.975   1.199   6.755 -1.7627 -0.4890 -0.2176
 6669TIP3   OH241565   1.175   5.307   8.477 -0.1949 -0.0452  0.2959
 6669TIP3    H141566   1.196   5.215   8.493 -1.1751 -0.3576 -0.1044
 6669TIP3    H241567   1.224   5.355   8.543 -0.0496 -0.8997  0.8199
 6670TIP3   OH241568   1.116   2.496   0.419 -0.3243  0.0027 -0.1101
 6670TIP3    H141569   1.103   2.423   0.479 -3.5552  0.6902  0.1990
 6670TIP3    H241570   1.096   2.574   0.470  0.3018  0.8905 -1.1728
 6671TIP3   OH241571   0.702   0.995   0.019 -0.6074  0.0615  0.5243
 6671TIP3    H141572   0.764   1.057  -0.018  1.9419 -2.0368  0.9722
 6671TIP3    H241573   0.678   0.938  -0.055 -0.4650 -0.2970  0.7500
 6672TIP3   OH241574   5.959   2.695   0.240 -0.1859 -0.4346  0.1234
 6672TIP3    H141575   5.882   2.704   0.296 -0.1737 -0.1914  0.1012
 6672TIP3    H241576   6.029   2.737   0.289 -0.5866  1.5936 -0.9187
 6673TIP3   OH241577   1.890   1.135   8.185 -0.3632 -0.5794 -0.2833
 6673TIP3    H141578   1.798   1.160   8.182  0.0230  0.8947 -1.8296
 6673TIP3    H241579   1.932   1.203   8.238  0.0851 -0.1710 -1.1333
 6674TIP3   OH241580   5.034   4.690   8.317  0.6830 -0.2309  0.0226
 6674TIP3    H141581   5.099   4.698   8.247  1.2163  1.9013  0.6805
 6674TIP3    H241582   5.019   4.780   8.347 -1.1375 -0.8599  1.2114
 6675TIP3   OH241583   1.818   4.606   7.188 -0.4654 -0.8359  0.2717
 6675TIP3    H141584   1.812   4.696   7.155 -1.1013 -0.2240  1.9507
 6675TIP3    H241585   1.736   4.565   7.159  0.0534 -1.0486 -0.9352
 6676TIP3   OH241586   5.941   6.759   0.615  0.3865 -0.2294  0.2073
 6676TIP3    H141587   5.950   6.723   0.703 -0.7821 -2.9296 -0.6477
 6676TIP3    H241588   5.998   6.836   0.614 -0.2393  0.4458  3.5494
 6677TIP3   OH241589   0.557   4.234   0.985 -0.5470  0.0744 -0.1515
 6677TIP3    H141590   0.506   4.217   0.906 -0.1758 -1.5288 -0.0898
 6677TIP3    H241591   0.647   4.210   0.961  0.0162  1.8624  0.0560
 6678TIP3   OH241592   0.733   0.268   1.259  0.4707  0.4829 -0.3853
 6678TIP3    H141593   0.773   0.328   1.322  3.0316  0.0614 -1.4736
 6678TIP3    H241594   0.753   0.181   1.293  1.4087  0.2543 -1.4722
 6679TIP3   OH241595   0.195   3.634   7.557  0.4646  0.5826 -0.2045
 6679TIP3    H141596   0.152   3.719   7.554  1.1554  1.0527  1.6045
 6679TIP3    H241597   0.272   3.648   7.612  0.1606 -1.3876  0.8131
 6680TIP3   OH241598   5.112   1.934   6.872 -0.3491 -0.3430  0.0868
 6680TIP3    H141599   5.113   1.856   6.816 -0.0703  0.7931 -1.5730
 6680TIP3    H241600   5.204   1.962   6.875 -0.4060 -0.2277  0.8991
 6681TIP3   OH241601   2.991   4.669   2.976 -0.0610 -0.2641  0.7322
 6681TIP3    H141602   2.911   4.711   3.008 -1.1215 -0.6596 -1.2494
 6681TIP3    H241603   3.050   4.741   2.957 -0.7175  0.1682  0.2924
 6682TIP3   OH241604   0.574   3.896   0.480 -0.5164 -0.1713 -0.1863
 6682TIP3    H141605   0.485   3.881   0.447 -1.3037  1.7072  0.9502
 6682TIP3    H241606   0.565   3.898   0.575  1.0869 -1.6918  0.0668
 6683TIP3   OH241607   3.779   6.068   7.736 -0.1298  0.5740 -0.3290
 6683TIP3    H141608   3.713   6.138   7.739 -1.8807 -1.0152  1.2988
 6683TIP3    H241609   3.814   6.065   7.825 -0.8878 -1.2634 -0.0441
 6684TIP3   OH241610   5.554   5.670   2.117 -0.4302 -0.4721  0.3134
 6684TIP3    H141611   5.607   5.738   2.075  0.1521 -0.3902  1.1591
 6684TIP3    H241612   5.596   5.655   2.201 -1.6193 -0.5904  0.9084
 6685TIP3   OH241613   0.139   5.734   1.003 -0.2359 -0.5958 -0.0413
 6685TIP3    H141614   0.203   5.683   1.054  0.1732 -1.1023 -1.0277
 6685TIP3    H241615   0.185   5.754   0.921  0.4108  3.2041  1.0485
 6686TIP3   OH241616   0.489   3.012   2.335  0.3771 -0.4105 -0.0969
 6686TIP3    H141617   0.481   2.955   2.412  0.6449  0.0177  0.2597
 6686TIP3    H241618   0.557   3.075   2.360  0.2151 -0.0525 -0.5532
 6687TIP3   OH241619   3.788   6.518   7.540 -0.1811 -0.5057 -0.1054
 6687TIP3    H141620   3.713   6.547   7.489  0.7809 -0.6279 -1.6438
 6687TIP3    H241621   3.805   6.429   7.511  0.0852 -0.7676  0.8104
 6688TIP3   OH241622   4.757   5.705   1.054 -0.4009  0.1536 -0.1809
 6688TIP3    H141623   4.841   5.740   1.024  0.7525 -1.1745  1.3428
 6688TIP3    H241624   4.719   5.665   0.975 -0.0886  1.6170 -1.1145
 6689TIP3   OH241625   5.635   3.524   0.339 -0.3628 -0.4442 -0.4427
 6689TIP3    H141626   5.681   3.603   0.364 -0.6679 -0.1983 -0.6479
 6689TIP3    H241627   5.564   3.516   0.403  1.3978 -2.2012  1.4786
 6690TIP3   OH241628   1.401   6.777   0.103 -0.4863  0.2592 -0.2215
 6690TIP3    H141629   1.456   6.820   0.038 -0.0156 -0.0781 -0.0570
 6690TIP3    H241630   1.437   6.804   0.187  0.3254 -1.0607 -0.1111
 6691TIP3   OH241631   6.794   4.358   1.466 -0.3575  0.1403  0.3133
 6691TIP3    H141632   6.786   4.336   1.373  1.8162 -0.8394  0.3003
 6691TIP3    H241633   6.836   4.281   1.505  0.9129  1.4510  1.6469
 6692TIP3   OH241634   0.605   5.944   7.218  0.4356  0.4541 -0.3556
 6692TIP3    H141635   0.673   5.964   7.154  0.2782  0.1193 -0.6335
 6692TIP3    H241636   0.569   5.860   7.189  1.2187 -0.3355  0.8985
 6693TIP3   OH241637   3.884   1.606   0.327 -0.0561 -0.5630 -0.0468
 6693TIP3    H141638   3.972   1.629   0.357  0.4947 -0.3027 -1.7730
 6693TIP3    H241639   3.856   1.536   0.386  1.0808 -0.2880  0.8547
 6694TIP3   OH241640   1.969   6.716   7.018 -0.5373  0.7732 -0.7323
 6694TIP3    H141641   2.062   6.730   7.035 -0.5740 -0.6223  0.9312
 6694TIP3    H241642   1.960   6.724   6.924  1.3611  0.5081 -0.9739
 6695TIP3   OH241643   0.958   3.399   2.556 -0.0700 -0.1974 -0.1964
 6695TIP3    H141644   0.944   3.443   2.640  0.8195  1.2456 -0.7589
 6695TIP3    H241645   0.929   3.309   2.571 -4.7061  1.0865  0.2634
 6696TIP3   OH241646   0.158   2.128   7.980 -0.0416  0.4549 -0.3494
 6696TIP3    H141647   0.199   2.211   7.957 -1.0138  1.2916  0.8666
 6696TIP3    H241648   0.064   2.146   7.980 -0.4034 -1.1193 -1.8553
 6697TIP3   OH241649   0.070   3.240   0.675  0.2717  0.1156 -0.6753
 6697TIP3    H141650   0.114   3.226   0.759  0.5045  0.6892 -0.6956
 6697TIP3    H241651   0.126   3.302   0.629  0.9132 -1.2814 -1.8642
 6698TIP3   OH241652   6.581   0.167   8.606 -0.0575  0.1683  0.3706
 6698TIP3    H141653   6.523   0.101   8.644  0.4478  0.5512  1.8712
 6698TIP3    H241654   6.662   0.161   8.657  0.5930  0.8217 -0.5501
 6699TIP3   OH241655   0.354   2.965   6.670 -0.0007  0.0937  1.0228
 6699TIP3    H141656   0.371   2.880   6.631  1.2260 -0.3330  2.3983
 6699TIP3    H241657   0.398   3.027   6.612 -1.9871 -0.0029 -0.7121
 6700TIP3   OH241658   2.421   1.648   1.872  0.0518 -0.0430  0.3929
 6700TIP3    H141659   2.326   1.652   1.875  0.0576  0.9248 -0.3108
 6700TIP3    H241660   2.444   1.581   1.937 -1.0259  0.7135  1.6014
 6701TIP3   OH241661   0.031   1.744   7.868  0.0344  0.1258 -0.0288
 6701TIP3    H141662  -0.022   1.764   7.945 -0.1166  1.5505 -0.4722
 6701TIP3    H241663   0.104   1.692   7.901 -1.0246 -0.8755  0.7650
 6702TIP3   OH241664   2.191   6.336   2.441  0.1795  0.1955  0.4096
 6702TIP3    H141665   2.206   6.374   2.528 -1.4475 -0.0587  0.8317
 6702TIP3    H241666   2.256   6.267   2.433  0.2447  0.1193  1.4968
 6703TIP3   OH241667   3.762   3.197   8.180 -0.1900 -0.8078  0.1321
 6703TIP3    H141668   3.799   3.164   8.262  1.0227 -2.6274 -1.0835
 6703TIP3    H241669   3.770   3.293   8.187  3.6539 -0.9812  0.5558
 6704TIP3   OH241670   5.771   3.964   6.791 -0.5081  0.1899 -0.3461
 6704TIP3    H141671   5.837   4.000   6.733  0.6476 -0.7111  0.3667
 6704TIP3    H241672   5.725   4.040   6.826  0.1938  0.8304 -0.7950
 6705TIP3   OH241673   1.865   1.418   1.224  0.1847 -0.0420  0.0261
 6705TIP3    H141674   1.813   1.346   1.258  1.3012 -0.7720  0.2434
 6705TIP3    H241675   1.803   1.472   1.176 -0.5236 -1.6140 -0.8942
 6706TIP3   OH241676   4.699   1.538   8.505  0.3006  0.0625 -0.2483
 6706TIP3    H141677   4.642   1.591   8.561  0.0198 -0.5879  0.0866
 6706TIP3    H241678   4.755   1.602   8.461  1.0500  0.5391  1.3432
 6707TIP3   OH241679   2.633   4.943   8.593  0.5145  0.6360  0.2284
 6707TIP3    H141680   2.577   4.987   8.657  1.2218 -0.0572  1.3811
 6707TIP3    H241681   2.716   4.990   8.598  0.7097  0.3045  0.1326
 6708TIP3   OH241682   6.198   2.693   0.682 -0.2249  1.0115  0.2607
 6708TIP3    H141683   6.249   2.767   0.716  1.7781 -0.4558  0.6678
 6708TIP3    H241684   6.219   2.621   0.741  1.4442 -1.0010 -2.5394
 6709TIP3   OH241685   2.794   3.372   2.778  0.6564 -0.1116 -0.4744
 6709TIP3    H141686   2.704   3.375   2.744 -0.0701 -0.8497  1.2942
 6709TIP3    H241687   2.832   3.295   2.737 -0.4898 -1.4970  0.9152
 6710TIP3   OH241688   1.708   5.794   7.873 -0.2528 -0.2606 -0.1181
 6710TIP3    H141689   1.796   5.830   7.863 -0.4227 -0.0983 -1.1581
 6710TIP3    H241690   1.693   5.746   7.792 -1.4710  0.4769 -0.3473
 6711TIP3   OH241691   1.575   0.534   1.219 -0.4764  0.9455 -0.7816
 6711TIP3    H141692   1.653   0.557   1.270  0.4270 -1.5320 -0.9125
 6711TIP3    H241693   1.609   0.498   1.137 -1.4900 -2.8350  0.2596
 6712TIP3   OH241694   1.783   5.303   0.426 -0.0860 -0.1526  0.7590
 6712TIP3    H141695   1.859   5.247   0.413 -0.1872 -0.0603 -0.3498
 6712TIP3    H241696   1.819   5.388   0.449  0.3932  0.8049 -2.8928
 6713TIP3   OH241697   2.340   5.655   8.288  0.1997  0.1735  0.3644
 6713TIP3    H141698   2.256   5.686   8.322 -0.2967 -0.2072 -0.4914
 6713TIP3    H241699   2.336   5.560   8.296  0.8461  0.1933  0.9862
 6714TIP3   OH241700   6.422   5.017   0.941  0.3731  0.1989  0.2292
 6714TIP3    H141701   6.488   4.994   0.877  1.0825  2.5798  0.0177
 6714TIP3    H241702   6.351   5.057   0.890 -0.7247 -1.1969  0.5837
 6715TIP3   OH241703   3.104   5.473   1.777  0.5213 -0.5915 -0.0125
 6715TIP3    H141704   3.023   5.475   1.828  0.3684  0.7478 -0.2694
 6715TIP3    H241705   3.162   5.415   1.826  0.2074  0.2629  1.4312
 6716TIP3   OH241706   6.516   0.535   8.348 -0.1930 -0.5909 -0.5002
 6716TIP3    H141707   6.450   0.468   8.369  0.7150 -1.4049 -0.2044
 6716TIP3    H241708   6.515   0.539   8.252 -3.0107  1.8030 -0.5267
 6717TIP3   OH241709   5.621   3.341   1.156 -0.3127  0.0119  0.0074
 6717TIP3    H141710   5.571   3.359   1.076 -0.3141 -1.0983 -0.2597
 6717TIP3    H241711   5.562   3.290   1.210 -0.7496  1.7539  1.2726
 6718TIP3   OH241712   0.976   6.040   1.480 -0.1755 -0.2615  0.1605
 6718TIP3    H141713   0.969   6.048   1.575 -1.2183 -2.8178  0.3875
 6718TIP3    H241714   1.069   6.022   1.465  0.0605  0.5001  0.6406
 6719TIP3   OH241715   2.384   0.701   6.280  0.0483 -0.8981 -0.2942
 6719TIP3    H141716   2.323   0.716   6.352 -0.2645 -1.5027 -0.4273
 6719TIP3    H241717   2.343   0.744   6.205 -0.0227 -0.9567 -0.2900
 6720TIP3   OH241718   1.097   0.212   0.745 -0.1798  0.0695  0.1026
 6720TIP3    H141719   1.015   0.206   0.697 -0.2265 -1.5469  0.3429
 6720TIP3    H241720   1.157   0.257   0.685 -1.2613  1.4644  0.0114
 6721TIP3   OH241721   4.082   1.047   2.382 -0.0464 -0.4081  0.1038
 6721TIP3    H141722   4.074   1.019   2.473  0.7849 -0.7299  0.0902
 6721TIP3    H241723   4.039   0.979   2.331  2.1679 -1.8642  0.0493
 6722TIP3   OH241724   3.171   4.712   7.999 -0.5250  0.0322 -0.2742
 6722TIP3    H141725   3.204   4.796   8.031 -0.2888  0.1323 -0.7580
 6722TIP3    H241726   3.098   4.735   7.942 -0.5412 -0.0970 -0.3070
 6723TIP3   OH241727   6.672   6.717   8.611 -0.1739  0.1775  0.2280
 6723TIP3    H141728   6.586   6.724   8.652  0.3233  0.7916  1.2132
 6723TIP3    H241729   6.733   6.709   8.684  0.7346  1.1185 -0.3883
 6724TIP3   OH241730   6.278   3.927   1.955 -0.1282 -0.2020  0.3391
 6724TIP3    H141731   6.263   3.995   2.021  0.7678  1.1536 -0.7973
 6724TIP3    H241732   6.373   3.919   1.950 -0.1788 -0.2405 -0.8161
 6725TIP3   OH241733   6.016   6.315   0.536  0.3804 -0.2693  0.4081
 6725TIP3    H141734   5.964   6.240   0.564 -0.5070  0.6294  1.2453
 6725TIP3    H241735   5.968   6.350   0.461 -0.3187  0.6238  1.2469
 6726TIP3   OH241736   3.236   2.642   7.463 -0.1055  0.6970  0.5531
 6726TIP3    H141737   3.163   2.698   7.486 -2.0349 -0.1318 -2.8919
 6726TIP3    H241738   3.304   2.702   7.433 -0.1337  1.3613  1.7521
 6727TIP3   OH241739   3.093   4.919   1.869  0.5984  0.3627 -0.2790
 6727TIP3    H141740   3.046   4.997   1.841 -0.0222  0.7496  1.6278
 6727TIP3    H241741   3.023   4.856   1.890  1.0608 -0.3255 -0.7435
 6728TIP3   OH241742   0.180   6.091   8.376  0.1831 -0.3987 -0.4894
 6728TIP3    H141743   0.168   6.168   8.431  1.1377 -1.4999  1.3580
 6728TIP3    H241744   0.274   6.088   8.359  0.2904 -1.5784  0.1767
 6729TIP3   OH241745   6.166   0.474   0.601  0.0805 -0.6737  0.3495
 6729TIP3    H141746   6.261   0.483   0.600 -0.0985  1.8911 -0.0030
 6729TIP3    H241747   6.140   0.509   0.686 -0.6960  1.7805 -0.7998
 6730TIP3   OH241748   2.903   0.410   7.109 -0.0821  0.2705 -0.5809
 6730TIP3    H141749   2.827   0.361   7.139 -0.7684  0.9173 -1.2011
 6730TIP3    H241750   2.898   0.405   7.013  0.5159  0.5163 -0.6254
 6731TIP3   OH241751   1.423   2.717   2.687  0.0504  0.1683 -0.1158
 6731TIP3    H141752   1.413   2.724   2.782 -0.6460  1.7279 -0.2713
 6731TIP3    H241753   1.431   2.623   2.670 -1.7957 -0.2860  1.2862
 6732TIP3   OH241754   1.212   3.159   6.463 -1.3191  0.1559  0.1890
 6732TIP3    H141755   1.200   3.199   6.377 -0.2519  0.1945  0.0420
 6732TIP3    H241756   1.296   3.195   6.494 -0.8285 -1.1915  0.4832
 6733TIP3   OH241757   5.732   2.304   8.012  0.1848  0.6524  0.2506
 6733TIP3    H141758   5.704   2.332   8.099 -0.4038 -0.2702  0.3789
 6733TIP3    H241759   5.827   2.318   8.011  0.2094  0.5668  1.0866
 6734TIP3   OH241760   4.362   4.980   7.282  0.6406  0.1394  0.0293
 6734TIP3    H141761   4.317   4.925   7.347  0.7028  4.2187  4.0739
 6734TIP3    H241762   4.451   4.945   7.279 -0.4104 -2.7223 -1.3263
 6735TIP3   OH241763   3.531   5.802   7.543  0.1422  0.3459  0.3474
 6735TIP3    H141764   3.623   5.777   7.550 -0.0626 -0.8749 -0.9436
 6735TIP3    H241765   3.513   5.850   7.623  2.0134  0.9679  0.4358
 6736TIP3   OH241766   3.798   4.808   1.653  0.0960 -0.0887  0.3655
 6736TIP3    H141767   3.846   4.850   1.724 -0.9546  1.4349  0.2023
 6736TIP3    H241768   3.726   4.763   1.696 -0.3754  0.5963  0.2993
 6737TIP3   OH241769   6.484   4.801   0.253 -0.0526  0.3764 -0.3784
 6737TIP3    H141770   6.439   4.812   0.337 -0.3632  2.0616 -0.7376
 6737TIP3    H241771   6.539   4.723   0.266  0.0936  0.7313  1.4674
 6738TIP3   OH241772   4.920   2.312   0.061  0.2826 -0.5167  0.3179
 6738TIP3    H141773   4.987   2.380   0.068  1.5475 -1.5639 -1.0067
 6738TIP3    H241774   4.838   2.360   0.056  1.0043  0.8425  1.0358
 6739TIP3   OH241775   6.786   5.466   0.471  0.9705  0.7292  0.1901
 6739TIP3    H141776   6.856   5.401   0.479  1.6911  1.1848 -1.8185
 6739TIP3    H241777   6.795   5.520   0.550  1.2652 -0.7248  1.1879
 6740TIP3   OH241778   3.007   3.079   2.170  0.7773 -0.1170 -0.2197
 6740TIP3    H141779   2.976   3.012   2.109 -0.1190  0.3762 -0.3307
 6740TIP3    H241780   2.930   3.134   2.185  1.3034  0.4441  0.4521
 6741TIP3   OH241781   5.920   3.993   2.008  0.1280  0.7152 -0.5172
 6741TIP3    H141782   5.921   4.054   2.081  0.7951  2.0065 -1.5560
 6741TIP3    H241783   5.988   4.025   1.948 -0.7770  0.0477 -1.9707
 6742TIP3   OH241784   5.311   3.491   2.365 -0.3008  0.0228 -0.3105
 6742TIP3    H141785   5.314   3.517   2.457 -0.7796  0.3568 -0.3924
 6742TIP3    H241786   5.314   3.395   2.368  2.4695  0.0304 -0.0477
 6743TIP3   OH241787   6.116   0.148   7.967  0.0158 -0.1933  0.2185
 6743TIP3    H141788   6.151   0.214   7.906  0.6213 -0.4862  0.2416
 6743TIP3    H241789   6.106   0.195   8.050 -0.4729  0.1145 -0.0063
 6744TIP3   OH241790   3.404   1.074   7.733  0.2194 -0.1666  0.3284
 6744TIP3    H141791   3.477   1.045   7.787 -0.5233 -1.2577  0.7855
 6744TIP3    H241792   3.328   1.026   7.767 -0.4180 -0.2812 -1.1567
 6745TIP3   OH241793   1.154   6.328   2.861 -0.0233  0.5480 -0.0580
 6745TIP3    H141794   1.074   6.285   2.892  0.3876  0.0284  0.2863
 6745TIP3    H241795   1.183   6.382   2.935  0.6153 -0.2121  0.2533
 6746TIP3   OH241796   5.013   6.395   2.618 -0.3778  0.0732 -0.5730
 6746TIP3    H141797   5.091   6.343   2.638 -0.8607  0.1552  1.7961
 6746TIP3    H241798   5.047   6.480   2.590  0.3748 -0.3630 -1.0066
 6747TIP3   OH241799   5.486   6.390   6.811  0.5545  0.2775  0.1099
 6747TIP3    H141800   5.533   6.466   6.776  0.8469  0.5240  1.0208
 6747TIP3    H241801   5.554   6.325   6.826  0.3955  0.0832 -0.0034
 6748TIP3   OH241802   1.243   4.214   6.756 -0.4204 -0.1926  0.4821
 6748TIP3    H141803   1.297   4.215   6.835  2.7070 -2.3864 -1.4177
 6748TIP3    H241804   1.294   4.260   6.691 -1.6094 -0.8857 -1.0108
 6749TIP3   OH241805   3.188   1.067   8.338  0.2201  0.3895 -0.4154
 6749TIP3    H141806   3.150   0.986   8.373  1.0191  0.1270 -0.1425
 6749TIP3    H241807   3.120   1.132   8.352 -0.7070 -0.3556 -1.2511
 6750TIP3   OH241808   2.694   0.627   8.231  0.0444 -0.0793 -0.2281
 6750TIP3    H141809   2.702   0.551   8.174 -0.2282  0.2185 -0.6688
 6750TIP3    H241810   2.702   0.591   8.320 -0.5129 -0.6888 -0.4138
 6751TIP3   OH241811   3.884   1.460   7.961  0.4952  0.6114 -0.3152
 6751TIP3    H141812   3.835   1.413   8.029 -0.6968  1.4104 -0.5744
 6751TIP3    H241813   3.896   1.396   7.891  1.2523 -0.0601  0.4032
 6752TIP3   OH241814   1.622   3.797   1.447  0.2914 -0.3367 -0.0448
 6752TIP3    H141815   1.621   3.704   1.472 -1.0088  0.2197  2.1973
 6752TIP3    H241816   1.537   3.810   1.404  0.4631 -0.1560 -0.3324
 6753TIP3   OH241817   1.714   0.185   0.931 -0.0944  0.0050  0.2750
 6753TIP3    H141818   1.680   0.127   0.862  2.2586 -0.5631 -0.4828
 6753TIP3    H241819   1.785   0.135   0.971  2.1289  2.3881 -0.4790
 6754TIP3   OH241820   3.223   1.971   8.308 -0.2651 -0.2548 -0.0204
 6754TIP3    H141821   3.148   1.994   8.253 -0.5468 -2.1152 -0.4883
 6754TIP3    H241822   3.266   1.900   8.261  0.9948 -0.1639  0.9419
 6755TIP3   OH241823   0.066   2.291   1.246 -0.0179 -0.4351  0.0865
 6755TIP3    H141824   0.073   2.201   1.215 -0.5936  0.2851 -2.3757
 6755TIP3    H241825   0.143   2.335   1.210 -0.0452  0.1916  0.7681
 6756TIP3   OH241826   0.128   5.123   8.060  0.4567 -0.4387 -0.4922
 6756TIP3    H141827   0.181   5.044   8.065  0.3666 -0.7993 -3.2396
 6756TIP3    H241828   0.056   5.099   8.001 -1.5684  0.6953  1.3529
 6757TIP3   OH241829   1.717   2.489   0.366  0.5955  0.0372 -0.1037
 6757TIP3    H141830   1.650   2.475   0.433  0.9339 -0.9652  0.0453
 6757TIP3    H241831   1.730   2.584   0.364 -0.8676  0.2599 -0.1889
 6758TIP3   OH241832   1.126   5.797   7.260 -0.4695  0.2117 -0.3727
 6758TIP3    H141833   1.150   5.830   7.173 -2.5713 -1.1441 -1.5487
 6758TIP3    H241834   1.183   5.722   7.274  0.7109  1.1499 -0.0034
 6759TIP3   OH241835   0.978   0.993   7.969  0.8972 -0.0334 -0.8027
 6759TIP3    H141836   1.021   1.075   7.946  1.1905 -0.3707 -1.5145
 6759TIP3    H241837   0.905   0.987   7.908  0.4139  0.0641 -0.2417
 6760TIP3   OH241838   1.667   1.702   8.677  0.2725 -0.4772 -0.1716
 6760TIP3    H141839   1.735   1.634   8.678  0.1217 -0.6221 -0.0055
 6760TIP3    H241840   1.610   1.678   8.604  0.0363 -0.7032  0.0897
 6761TIP3   OH241841   3.842   2.997   7.544  0.3098 -0.5646  0.4168
 6761TIP3    H141842   3.910   2.937   7.576  0.3316  0.0469  1.6069
 6761TIP3    H241843   3.778   2.999   7.615 -0.2150  0.0002 -0.0674
 6762TIP3   OH241844   6.204   5.703   1.850 -0.8199 -0.3906  0.6269
 6762TIP3    H141845   6.221   5.784   1.898 -1.0215  0.2541 -0.3682
 6762TIP3    H241846   6.159   5.731   1.771 -0.9809 -1.4919  0.3146
 6763TIP3   OH241847   4.191   1.565   0.737  0.1891 -0.2993  0.8714
 6763TIP3    H141848   4.148   1.491   0.694  0.5153  0.6816 -1.3092
 6763TIP3    H241849   4.199   1.538   0.828 -2.6910 -1.5538  0.8625
 6764TIP3   OH241850   0.481   1.695   0.088 -0.2850  0.5541  0.0282
 6764TIP3    H141851   0.532   1.652   0.156 -0.2660  0.2777 -0.1584
 6764TIP3    H241852   0.424   1.627   0.053 -0.3129  0.6976 -0.2139
 6765TIP3   OH241853   2.195   5.551   1.528  0.5895  0.1761 -0.5750
 6765TIP3    H141854   2.141   5.500   1.588  1.1718  0.2063 -0.0179
 6765TIP3    H241855   2.159   5.531   1.441 -1.1842  1.2295 -0.1358
 6766TIP3   OH241856   3.659   5.891   6.777  0.2584 -0.0125 -0.8043
 6766TIP3    H141857   3.657   5.835   6.700 -1.2181 -0.5244 -0.4129
 6766TIP3    H241858   3.611   5.842   6.844  2.1412  0.0696  0.6996
 6767TIP3   OH241859   1.189   6.067   7.556 -0.3038  0.5278  0.0107
 6767TIP3    H141860   1.200   6.123   7.633  1.2279 -0.4311  0.5371
 6767TIP3    H241861   1.237   5.987   7.577  1.7479  0.9198 -2.5965
 6768TIP3   OH241862   1.420   5.013   8.301  0.9335 -0.3396 -0.3676
 6768TIP3    H141863   1.360   5.083   8.275 -0.3371 -1.3824 -0.3745
 6768TIP3    H241864   1.446   4.973   8.218  0.2014 -1.0147 -0.2823
 6769TIP3   OH241865   1.475   3.699   0.156 -0.0761  0.1887 -0.1768
 6769TIP3    H141866   1.560   3.702   0.111  0.4970  0.2469  0.8938
 6769TIP3    H241867   1.428   3.776   0.122 -0.6211 -1.0549 -2.4904
 6770TIP3   OH241868   4.454   4.955   1.192  0.0754 -0.2294  0.8473
 6770TIP3    H141869   4.385   4.969   1.258  1.0914 -0.7313  2.0522
 6770TIP3    H241870   4.408   4.914   1.119 -0.8781 -0.7436  1.6995
 6771TIP3   OH241871   1.831   5.423   2.164  0.0343  0.2380  0.0890
 6771TIP3    H141872   1.867   5.356   2.223  0.3439  0.6204  0.3364
 6771TIP3    H241873   1.781   5.373   2.100  0.8665 -0.2885 -0.1671
 6772TIP3   OH241874   6.600   4.827   7.711 -0.1285  0.0359  0.1449
 6772TIP3    H141875   6.602   4.766   7.637  0.3698 -0.0896  0.2564
 6772TIP3    H241876   6.646   4.781   7.781  0.9441  0.8213 -0.0017
 6773TIP3   OH241877   5.320   2.487   6.672  0.4947  0.0257  0.0565
 6773TIP3    H141878   5.359   2.411   6.628 -0.2266 -0.6548  0.5721
 6773TIP3    H241879   5.335   2.559   6.611  4.8315  0.4207  1.2296
 6774TIP3   OH241880   5.877   1.106   1.607  0.1418 -0.4442  0.5088
 6774TIP3    H141881   5.866   1.171   1.677 -0.8520  0.4225 -0.4167
 6774TIP3    H241882   5.794   1.060   1.604 -0.5470  0.8128 -1.3285
 6775TIP3   OH241883   2.107   3.588   2.816  0.1133 -0.6931  0.2716
 6775TIP3    H141884   2.189   3.538   2.815  0.4654 -0.3073  2.8616
 6775TIP3    H241885   2.130   3.671   2.858 -0.6891  1.3701 -3.0217
 6776TIP3   OH241886   0.750   5.324   1.155 -0.1765 -0.0645  0.6731
 6776TIP3    H141887   0.759   5.285   1.242  0.5436  0.0631  0.6619
 6776TIP3    H241888   0.686   5.268   1.110 -1.0231  0.2234  1.4773
 6777TIP3   OH241889   2.685   1.853   1.703  0.2827  0.0949  0.3040
 6777TIP3    H141890   2.644   1.854   1.789  0.8979 -2.2342  0.7023
 6777TIP3    H241891   2.632   1.791   1.652  0.0292  1.3095 -0.9760
 6778TIP3   OH241892   0.125   4.562   1.294 -0.2391 -0.3468  0.3807
 6778TIP3    H141893   0.108   4.483   1.242 -0.0997 -0.5467  0.6377
 6778TIP3    H241894   0.053   4.621   1.272 -0.6661 -0.7670  0.6259
 6779TIP3   OH241895   4.435   0.178   8.468  0.2697 -0.0387  0.3962
 6779TIP3    H141896   4.402   0.161   8.556 -0.7077  1.3460  0.3334
 6779TIP3    H241897   4.527   0.152   8.471  0.3723  0.4132  1.9743
 6780TIP3   OH241898   6.541   3.403   1.055 -0.4139  0.0608  0.4790
 6780TIP3    H141899   6.611   3.468   1.063 -0.1900  0.0388 -1.1063
 6780TIP3    H241900   6.460   3.455   1.050 -0.0995  0.4109 -2.7622
 6781TIP3   OH241901   1.211   3.541   1.857  0.3706  0.4786 -0.1085
 6781TIP3    H141902   1.236   3.453   1.831  4.3620  1.2600  0.4178
 6781TIP3    H241903   1.178   3.582   1.778 -0.6924 -1.1904 -0.5596
 6782TIP3   OH241904   2.928   6.792   1.226  0.0952 -0.0695 -0.4655
 6782TIP3    H141905   3.018   6.820   1.210  0.2809  0.1975  0.9178
 6782TIP3    H241906   2.892   6.774   1.139  2.0919 -2.1244 -0.9341
 6783TIP3   OH241907   1.757   2.279   8.204 -0.2249 -0.2480 -0.2725
 6783TIP3    H141908   1.744   2.247   8.293 -0.6259 -0.3053 -0.3481
 6783TIP3    H241909   1.847   2.312   8.203 -0.1046 -0.5575  0.0544
 6784TIP3   OH241910   2.297   1.801   7.585  0.2340 -0.1108 -0.6305
 6784TIP3    H141911   2.266   1.802   7.494  0.1151  0.2894 -0.5876
 6784TIP3    H241912   2.248   1.729   7.626  0.6129 -0.5822 -0.9918
 6785TIP3   OH241913   3.450   0.294   7.324  0.4889 -0.2629  0.2491
 6785TIP3    H141914   3.532   0.250   7.302  1.5130  0.6836  1.9545
 6785TIP3    H241915   3.444   0.366   7.262 -0.7621 -2.1600 -1.9927
 6786TIP3   OH241916   6.043   2.503   7.678 -0.2293  0.0956  0.0463
 6786TIP3    H141917   6.018   2.512   7.586  0.6290 -1.4003 -0.3683
 6786TIP3    H241918   5.961   2.485   7.724 -0.5216 -0.2539 -0.6049
 6787TIP3   OH241919   1.969   4.648   1.576  0.0076  0.1652  0.2390
 6787TIP3    H141920   1.928   4.565   1.552  0.4765 -0.6037  1.9857
 6787TIP3    H241921   2.058   4.642   1.540  0.1117 -0.1800  0.5530
 6788TIP3   OH241922   4.753   0.841   8.230  0.7444  0.3935  0.4626
 6788TIP3    H141923   4.691   0.769   8.239 -1.3555  2.2566  2.1957
 6788TIP3    H241924   4.782   0.836   8.139 -0.8308 -1.4510 -0.0140
 6789TIP3   OH241925   2.270   3.849   1.545  0.0222 -0.1342 -0.3037
 6789TIP3    H141926   2.274   3.753   1.556  0.6603 -0.0945 -0.1184
 6789TIP3    H241927   2.344   3.881   1.596  1.1824  0.2998 -2.1381
 6790TIP3   OH241928   5.958   2.036   7.905  0.0296  0.1535 -0.1839
 6790TIP3    H141929   6.027   1.977   7.876 -1.0251 -1.4573  0.3880
 6790TIP3    H241930   6.004   2.110   7.945  1.4117 -0.4751 -0.5587
 6791TIP3   OH241931   5.962   6.777   8.423  0.2116 -0.0799  0.2890
 6791TIP3    H141932   5.922   6.841   8.365  0.7026  0.3932  0.4629
 6791TIP3    H241933   5.893   6.752   8.484 -0.3295 -0.6271 -0.5271
 6792TIP3   OH241934   0.389   4.012   2.286 -0.7367  0.3480 -0.2238
 6792TIP3    H141935   0.428   3.960   2.216 -1.1880 -1.0274  0.5139
 6792TIP3    H241936   0.384   4.101   2.250  1.3582  0.2156 -1.0133
 6793TIP3   OH241937   1.983   3.684   2.245 -0.7716  0.6520 -0.3766
 6793TIP3    H141938   2.020   3.769   2.223 -1.8322  1.3803  0.5373
 6793TIP3    H241939   1.990   3.679   2.341 -0.4461 -0.4318 -0.4385
 6794TIP3   OH241940   1.438   1.252   1.438 -0.1098 -0.0207  0.0015
 6794TIP3    H141941   1.472   1.280   1.522  1.4614  1.4924 -1.0591
 6794TIP3    H241942   1.479   1.167   1.422  1.9493  1.0028 -0.4826
 6795TIP3   OH241943   6.109   1.918   6.652 -0.0044 -0.1970 -0.1471
 6795TIP3    H141944   6.151   1.846   6.699  0.4883 -0.5465 -1.0938
 6795TIP3    H241945   6.032   1.877   6.611 -0.3859  0.0845  0.2872
 6796TIP3   OH241946   0.545   0.887   2.577  0.3050  0.1764  0.1554
 6796TIP3    H141947   0.626   0.895   2.528  0.3329 -1.7043 -0.1573
 6796TIP3    H241948   0.519   0.795   2.567 -0.8286  0.2637  1.8605
 6797TIP3   OH241949   1.563   6.819   1.195  0.2366  0.0119 -0.2811
 6797TIP3    H141950   1.649   6.807   1.236  0.3938  0.7858 -0.3788
 6797TIP3    H241951   1.550   6.914   1.193  0.9657  0.1786 -3.4639
 6798TIP3   OH241952   1.036   3.600   8.391  0.1831  0.5089  0.3180
 6798TIP3    H141953   1.059   3.582   8.300  0.9149 -0.9978  0.7608
 6798TIP3    H241954   1.079   3.683   8.411  1.7812 -0.1725 -0.1319
 6799TIP3   OH241955   2.043   0.628   1.346 -0.6567  0.1595 -0.2702
 6799TIP3    H141956   2.043   0.563   1.416 -1.0906 -1.3041 -1.5686
 6799TIP3    H241957   2.127   0.616   1.302 -1.0107  0.0204 -0.9179
 6800TIP3   OH241958   2.661   6.142   1.394  0.7987 -0.2170 -0.3640
 6800TIP3    H141959   2.705   6.081   1.453  0.6246 -0.3774 -0.4009
 6800TIP3    H241960   2.703   6.227   1.412 -0.5362  0.1352  1.3475
 6801TIP3   OH241961   6.258   1.037   1.225  0.1095  0.0404 -0.0967
 6801TIP3    H141962   6.185   1.054   1.165 -0.7935 -0.0739  0.9383
 6801TIP3    H241963   6.219   1.042   1.312  0.7848 -2.4846  0.4433
 6802TIP3   OH241964   1.388   3.646   8.216 -0.0288 -0.1206  0.1645
 6802TIP3    H141965   1.437   3.586   8.272  0.6101 -1.1709 -1.4508
 6802TIP3    H241966   1.455   3.695   8.169 -0.5165 -0.2604 -0.7052
 6803TIP3   OH241967   0.083   3.923   8.648  0.1467 -0.2874 -0.0561
 6803TIP3    H141968   0.097   3.960   8.735  0.1291 -0.2326 -0.0765
 6803TIP3    H241969   0.166   3.880   8.627  0.5043  0.5834 -0.4435
 6804TIP3   OH241970   4.021   0.167   7.172 -0.2563 -0.1574  0.5494
 6804TIP3    H141971   4.079   0.093   7.189  2.0251  1.4168  0.0566
 6804TIP3    H241972   4.063   0.214   7.100 -2.8068  0.4512 -0.6795
 6805TIP3   OH241973   0.622   2.641   0.394  0.2567  0.1223 -0.3696
 6805TIP3    H141974   0.708   2.678   0.372  0.1778  0.6157  0.1516
 6805TIP3    H241975   0.632   2.609   0.483 -0.6009  1.7619  0.3583
 6806TIP3   OH241976   1.760   2.593   2.524  0.4980 -0.1351  0.4713
 6806TIP3    H141977   1.676   2.572   2.566 -0.2536 -0.6548 -1.2006
 6806TIP3    H241978   1.821   2.529   2.559 -0.3961 -1.3372 -0.0749
 6807TIP3   OH241979   0.419   0.229   8.241 -0.4507  0.0355 -0.5747
 6807TIP3    H141980   0.441   0.208   8.332  0.2353  1.3098 -0.4230
 6807TIP3    H241981   0.488   0.187   8.190  0.3134  0.9752 -0.3481
 6808TIP3   OH241982   1.057   2.496   0.133  0.0696 -0.3789  0.3828
 6808TIP3    H141983   1.100   2.525   0.213  1.6022 -0.2367 -0.4583
 6808TIP3    H241984   1.073   2.402   0.130  1.2075 -0.1739 -0.4256
 6809TIP3   OH241985   2.085   2.448   7.869  0.4080 -0.3734 -0.3913
 6809TIP3    H141986   2.161   2.505   7.870  0.2029 -0.0719 -1.4231
 6809TIP3    H241987   2.025   2.486   7.934  1.2805 -0.8497  0.7284
 6810TIP3   OH241988   6.073   2.914   6.444 -0.0641  0.0001  0.2003
 6810TIP3    H141989   6.160   2.878   6.463 -0.0867  0.1114  0.5158
 6810TIP3    H241990   6.052   2.968   6.520  0.0480  0.8315 -0.3429
 6811TIP3   OH241991   4.644   1.471   1.627 -0.1380  0.6361 -0.4282
 6811TIP3    H141992   4.695   1.419   1.565  0.0333  0.9162 -0.5268
 6811TIP3    H241993   4.630   1.554   1.583  1.6339  1.5710  0.6077
 6812TIP3   OH241994   6.182   1.592   7.618  0.7020  0.2437 -1.1273
 6812TIP3    H141995   6.188   1.555   7.531 -0.7956 -0.8106 -0.8240
 6812TIP3    H241996   6.115   1.660   7.611  0.0976 -0.2959 -0.6651
 6813TIP3   OH241997   3.432   3.398   6.495  0.1123 -0.3086 -0.2193
 6813TIP3    H141998   3.523   3.369   6.505  0.9742  2.1645 -0.3114
 6813TIP3    H241999   3.437   3.477   6.442 -2.1291 -0.2089 -0.3746
 6814TIP3   OH242000   0.431   3.183   1.491  0.4811 -0.0597  0.3457
 6814TIP3    H142001   0.364   3.246   1.517  0.7537  0.2090  0.4014
 6814TIP3    H242002   0.384   3.100   1.485  0.1209  0.1433  0.2839
 6815TIP3   OH242003   2.883   2.951   0.068  0.1543 -0.2795  0.1274
 6815TIP3    H142004   2.856   3.023   0.010 -0.2055 -0.9446 -0.5521
 6815TIP3    H242005   2.976   2.967   0.084 -0.0010  0.5287  0.2710
 6816TIP3   OH242006   4.352   3.372   8.453 -0.3059  0.0930 -0.5285
 6816TIP3    H142007   4.420   3.410   8.508 -0.4833  1.1198 -0.9949
 6816TIP3    H242008   4.314   3.446   8.406 -0.0370 -0.7525 -2.1865
 6817TIP3   OH242009   6.234   6.053   1.595  0.2406  0.5476  0.2824
 6817TIP3    H142010   6.174   5.982   1.572  1.2076 -0.8547  1.8652
 6817TIP3    H242011   6.300   6.052   1.525 -1.1598  1.7057 -1.1392
 6818TIP3   OH242012   5.947   3.229   8.322  0.4163 -0.2797  0.0019
 6818TIP3    H142013   5.945   3.152   8.378  2.0192 -0.1550  0.2821
 6818TIP3    H242014   5.980   3.197   8.237  0.5841 -0.0023 -0.0392
 6819TIP3   OH242015   1.980   0.377   1.184  0.4031 -0.4519 -0.1656
 6819TIP3    H142016   1.890   0.406   1.197 -0.1574 -1.5009 -1.4538
 6819TIP3    H242017   1.984   0.290   1.226  0.5468 -0.7896 -0.8586
 6820TIP3   OH242018   5.843   0.640   7.415 -0.0079  0.3793  0.0440
 6820TIP3    H142019   5.879   0.617   7.330  2.6844  2.1152  0.6050
 6820TIP3    H242020   5.872   0.571   7.474 -0.2239  0.1812 -0.0812
 6821TIP3   OH242021   5.786   2.340   1.804  0.5538 -0.5803  0.7256
 6821TIP3    H142022   5.822   2.428   1.818  0.8747 -0.4897 -0.5624
 6821TIP3    H242023   5.698   2.344   1.842 -0.0457  0.8011 -0.6941
 6822TIP3   OH242024   5.387   2.375   8.023  0.1143 -0.2175 -0.4883
 6822TIP3    H142025   5.412   2.466   8.036  0.7797 -0.6004  1.2721
 6822TIP3    H242026   5.367   2.343   8.111  1.1140 -2.0999 -0.8854
 6823TIP3   OH242027   5.947   2.809   2.144 -0.6417 -0.1356  0.1581
 6823TIP3    H142028   6.033   2.842   2.119 -0.2871 -1.7264 -0.9131
 6823TIP3    H242029   5.921   2.863   2.218  0.4562  1.5742 -0.6375
 6824TIP3   OH242030   1.269   2.783   1.467 -0.6869  0.0137  0.2638
 6824TIP3    H142031   1.348   2.830   1.493 -1.1775  0.4457  1.0065
 6824TIP3    H242032   1.283   2.694   1.500  0.0545 -0.2708 -0.7684
 6825TIP3   OH242033   2.485   0.993   6.432  0.2388 -0.0527 -0.2833
 6825TIP3    H142034   2.408   1.049   6.427  0.7864  0.6248 -1.2791
 6825TIP3    H242035   2.450   0.904   6.425 -0.6598  0.1064  1.6234
 6826TIP3   OH242036   6.231   4.668   2.497 -0.6847 -0.2073 -0.4191
 6826TIP3    H142037   6.246   4.679   2.591  2.4609  0.6388 -0.9237
 6826TIP3    H242038   6.294   4.726   2.455 -0.1719 -2.4852 -3.1030
 6827TIP3   OH242039   4.758   2.966   7.011 -0.1027  0.3950  0.1790
 6827TIP3    H142040   4.794   2.946   6.924 -0.6525 -0.2048  0.0766
 6827TIP3    H242041   4.759   3.062   7.016  0.2153  0.4249 -0.3700
 6828TIP3   OH242042   1.628   2.192   0.792  0.3393 -1.0472 -0.2433
 6828TIP3    H142043   1.534   2.174   0.781 -0.3488  2.0532 -0.4681
 6828TIP3    H242044   1.636   2.223   0.882  0.2388  2.6440 -1.3407
 6829TIP3   OH242045   2.358   6.185   8.189 -0.1134  0.0668 -0.2577
 6829TIP3    H142046   2.276   6.234   8.178  0.5023  0.8104 -2.0049
 6829TIP3    H242047   2.333   6.094   8.178 -0.5636  0.3658 -2.2013
 6830TIP3   OH242048   3.663   2.605   2.296 -0.3123  0.0573  0.0214
 6830TIP3    H142049   3.608   2.630   2.222 -0.3793  0.3395  0.1655
 6830TIP3    H242050   3.612   2.537   2.341 -1.1186  1.1750  0.8570
 6831TIP3   OH242051   6.008   5.284   2.889 -0.3825 -0.3731  0.5560
 6831TIP3    H142052   5.920   5.289   2.928 -0.5989 -1.5869  0.2384
 6831TIP3    H242053   5.995   5.243   2.804  0.2035  1.5371 -0.5181
 6832TIP3   OH242054   0.298   5.435   8.632  0.6468  0.1091  0.2177
 6832TIP3    H142055   0.298   5.420   8.538  0.2771  0.2119  0.2009
 6832TIP3    H242056   0.266   5.525   8.643 -0.7919 -0.4101  0.5143
 6833TIP3   OH242057   6.563   4.316   2.120  0.0109 -0.3912 -0.3761
 6833TIP3    H142058   6.554   4.328   2.215 -0.4788  1.3051 -0.5911
 6833TIP3    H242059   6.658   4.321   2.105  0.1796 -1.7715  0.1228
 6834TIP3   OH242060   5.352   1.837   7.890 -0.3272 -0.2771 -0.1013
 6834TIP3    H142061   5.395   1.919   7.914 -0.8495  0.0443 -0.2365
 6834TIP3    H242062   5.385   1.773   7.952 -0.2694  0.1383  0.3005
 6835TIP3   OH242063   5.645   2.391   8.266 -0.0665 -0.1704  0.0664
 6835TIP3    H142064   5.571   2.331   8.261 -0.2164  0.0513 -0.3654
 6835TIP3    H242065   5.671   2.388   8.358  0.0924 -1.0933  0.0019
 6836TIP3   OH242066   2.023   0.740   7.253 -0.3424  0.8552  0.2876
 6836TIP3    H142067   2.006   0.828   7.287  0.6661  1.2511 -0.1816
 6836TIP3    H242068   2.111   0.719   7.284 -0.0393  0.5686 -0.7166
 6837TIP3   OH242069   6.568   6.654   7.446 -0.1096 -0.1815 -0.3325
 6837TIP3    H142070   6.478   6.652   7.479  0.2500 -1.7408  0.6584
 6837TIP3    H242071   6.562   6.609   7.362 -0.4761  1.0059 -0.9717
 6838TIP3   OH242072   3.208   4.124   1.743  0.0876  0.6552  0.2740
 6838TIP3    H142073   3.230   4.198   1.685 -2.1015  0.5368 -0.8201
 6838TIP3    H242074   3.204   4.048   1.684 -1.9359  0.4880  0.5437
 6839TIP3   OH242075   6.671   3.011   0.340 -0.3418  0.0240 -0.1744
 6839TIP3    H142076   6.743   3.011   0.277 -0.3090  0.4270 -0.1395
 6839TIP3    H242077   6.592   3.020   0.286 -0.3479 -0.1374 -0.1929
 6840TIP3   OH242078   5.660   0.539   7.068 -0.4939 -0.6781 -0.2851
 6840TIP3    H142079   5.748   0.569   7.090 -0.4455  0.1695 -1.4946
 6840TIP3    H242080   5.669   0.499   6.981 -0.9011 -2.6948  0.5464
 6841TIP3   OH242081   5.482   1.682   1.597 -0.0278 -0.2227 -0.5392
 6841TIP3    H142082   5.456   1.626   1.670 -1.6197 -0.7206 -1.4374
 6841TIP3    H242083   5.404   1.734   1.577  0.7586  0.7781 -1.1107
 6842TIP3   OH242084   5.472   2.268   1.417 -0.3186 -0.1433 -0.2113
 6842TIP3    H142085   5.508   2.186   1.383  0.6833  0.7330 -1.3747
 6842TIP3    H242086   5.547   2.328   1.419 -0.7193  0.3749  1.9625
 6843TIP3   OH242087   0.946   6.299   7.753  0.7252 -0.3818  0.0180
 6843TIP3    H142088   1.001   6.339   7.686 -0.9328  0.3166 -0.9940
 6843TIP3    H242089   0.961   6.205   7.743 -0.2637 -0.3772 -2.1247
 6844TIP3   OH242090   1.233   2.093   7.887  0.4868  0.0346  0.1288
 6844TIP3    H142091   1.256   2.184   7.870 -2.0685  0.5308 -1.0777
 6844TIP3    H242092   1.163   2.098   7.952 -0.7850 -0.9351 -1.1132
 6845TIP3   OH242093   6.212   3.890   1.333 -0.0509 -0.0635 -0.4193
 6845TIP3    H142094   6.289   3.871   1.279 -0.7236 -2.0869 -0.7448
 6845TIP3    H242095   6.155   3.940   1.276  0.5945  0.5822 -0.5108
 6846TIP3   OH242096   5.358   0.762   1.155 -0.2347 -0.3112  0.2649
 6846TIP3    H142097   5.287   0.775   1.092 -0.2194 -0.4995  0.2073
 6846TIP3    H242098   5.366   0.846   1.200  0.5029  0.1898 -0.7580
 6847TIP3   OH242099   3.390   0.009   0.218  0.2361  0.1962  0.0259
 6847TIP3    H142100   3.461   0.011   0.154 -0.4648  1.6408 -0.7769
 6847TIP3    H242101   3.319   0.059   0.176 -2.0524 -2.8744 -0.0816
 6848TIP3   OH242102   6.495   2.781   8.445  0.8429  0.0282 -0.3536
 6848TIP3    H142103   6.559   2.748   8.381  1.5760 -0.7848  0.7634
 6848TIP3    H242104   6.513   2.731   8.525 -1.6003 -0.6610 -0.1657
 6849TIP3   OH242105   1.304   3.706   2.388  0.6407  0.0057  0.6880
 6849TIP3    H142106   1.221   3.679   2.428 -0.3998  0.4781 -1.0361
 6849TIP3    H242107   1.331   3.631   2.335 -0.5671  1.0357 -1.5250
 6850TIP3   OH242108   2.456   4.974   2.279 -0.2422 -0.4541  0.7826
 6850TIP3    H142109   2.362   4.976   2.295 -0.1107 -0.9597  1.6587
 6850TIP3    H242110   2.483   4.885   2.300  0.5794 -0.0695  1.4322
 6851TIP3   OH242111   3.547   3.693   1.157 -0.4087 -0.2251  0.3081
 6851TIP3    H142112   3.509   3.647   1.082  2.0150  1.3972 -2.1022
 6851TIP3    H242113   3.497   3.774   1.163 -0.1617 -0.0468 -0.0187
 6852TIP3   OH242114   5.998   0.976   1.026  0.4371  0.1414 -0.2051
 6852TIP3    H142115   5.908   0.942   1.027  1.1815 -1.9939  0.7602
 6852TIP3    H242116   6.033   0.948   0.942  0.1618  1.1702 -0.6780
 6853TIP3   OH242117   1.433   3.440   0.094 -0.3112  0.2531 -0.9605
 6853TIP3    H142118   1.443   3.533   0.115 -0.3215  0.3861 -1.5421
 6853TIP3    H242119   1.522   3.404   0.104 -0.8994 -0.5146  3.1150
 6854TIP3   OH242120   4.377   5.091   1.841 -0.3752  0.4108 -0.0283
 6854TIP3    H142121   4.399   5.068   1.931  0.2815  1.9607  0.2259
 6854TIP3    H242122   4.439   5.160   1.817 -1.0552  0.5885 -1.4031
 6855TIP3   OH242123   5.439   5.253   6.878 -0.3802 -0.5381  0.1909
 6855TIP3    H142124   5.531   5.229   6.872 -0.6703 -1.8869  0.8418
 6855TIP3    H242125   5.429   5.324   6.815  1.2321  0.0600  0.5695
 6856TIP3   OH242126   2.934   0.595   2.000 -0.1694  0.6517  0.2997
 6856TIP3    H142127   2.935   0.663   2.067 -0.7768  0.1811  0.8063
 6856TIP3    H242128   2.876   0.629   1.932 -1.7256  0.0355  1.2489
 6857TIP3   OH242129   5.941   0.344   0.939  0.1803 -0.1514  0.0757
 6857TIP3    H142130   5.957   0.327   1.032 -0.2240 -0.9040  0.0155
 6857TIP3    H242131   5.922   0.258   0.902 -0.1415  0.2070 -0.6063
 6858TIP3   OH242132   1.644   4.439   2.222 -1.1074 -1.0480  0.1189
 6858TIP3    H142133   1.567   4.466   2.172 -0.4851 -2.5878 -1.7956
 6858TIP3    H242134   1.718   4.477   2.174 -0.6012 -0.3055  1.4421
 6859TIP3   OH242135   6.417   3.719   0.362 -0.2694  0.7439  0.0541
 6859TIP3    H142136   6.377   3.732   0.276 -0.5572 -0.8885 -0.0957
 6859TIP3    H242137   6.511   3.723   0.346 -0.3270  0.7764 -0.2871
 6860TIP3   OH242138   3.395   1.891   1.918  0.1945  0.1148 -0.4885
 6860TIP3    H142139   3.485   1.869   1.895 -0.2303 -1.1135 -1.0630
 6860TIP3    H242140   3.356   1.918   1.835  0.2189  1.3560 -0.1083
 6861TIP3   OH242141   5.223   5.610   2.177  0.8456 -0.2370  0.3962
 6861TIP3    H142142   5.308   5.582   2.212  0.1245 -1.8682  0.9284
 6861TIP3    H242143   5.164   5.606   2.252  0.1825  0.4093 -0.0814
 6862TIP3   OH242144   4.050   1.361   1.945 -0.2390 -0.3158  0.0892
 6862TIP3    H142145   4.126   1.326   1.992  0.5161  0.5932 -0.4210
 6862TIP3    H242146   3.979   1.300   1.966  0.6064 -1.1451  0.6371
 6863TIP3   OH242147   3.477   0.263   6.944  0.1952  0.2655  0.2418
 6863TIP3    H142148   3.515   0.350   6.933  0.4096 -0.0276 -1.7260
 6863TIP3    H242149   3.385   0.273   6.919  0.7145 -0.4442 -2.3394
 6864TIP3   OH242150   6.413   2.176   1.936 -0.4221  0.6002  0.0940
 6864TIP3    H142151   6.504   2.203   1.929 -1.0867  2.7817 -0.8497
 6864TIP3    H242152   6.417   2.085   1.965  2.0460  0.5143 -0.3420
 6865TIP3   OH242153   5.734   4.614   1.038  0.1911  0.0814  0.0481
 6865TIP3    H142154   5.819   4.618   1.081  0.1035  0.9527  0.1543
 6865TIP3    H242155   5.694   4.699   1.056 -0.3559 -0.0091 -0.7155
 6866TIP3   OH242156   5.850   0.156   7.817  0.5263  0.0782  0.2326
 6866TIP3    H142157   5.895   0.171   7.733 -0.4203  0.1640 -0.2661
 6866TIP3    H242158   5.921   0.131   7.877  1.1175 -0.8264 -0.7933
 6867TIP3   OH242159   2.349   0.236   1.085  0.2687 -0.2838  0.0520
 6867TIP3    H142160   2.284   0.306   1.085  1.5287  0.9298  0.0904
 6867TIP3    H242161   2.400   0.250   1.165  0.3036 -1.4877  0.2641
 6868TIP3   OH242162   0.558   0.726   7.147  0.2733 -0.1195  0.7645
 6868TIP3    H142163   0.537   0.727   7.240 -0.6357  1.2461  0.5741
 6868TIP3    H242164   0.499   0.790   7.108 -0.9658 -2.2547 -1.1261
 6869TIP3   OH242165   5.022   2.454   1.099 -0.2932  0.0972  0.3045
 6869TIP3    H142166   4.957   2.501   1.046  1.4647  2.7663  0.3065
 6869TIP3    H242167   4.992   2.466   1.190 -1.4371 -1.4727  0.1768
 6870TIP3   OH242168   5.397   5.948   0.676 -0.2932 -0.6666  0.0483
 6870TIP3    H142169   5.440   5.885   0.734  4.4870  2.8415  0.9926
 6870TIP3    H242170   5.341   5.999   0.734  1.0853  0.0547  0.8145
 6871TIP3   OH242171   0.649   1.522   1.564 -0.2026  0.1793  0.8275
 6871TIP3    H142172   0.673   1.607   1.600  1.1314 -0.1577  0.7787
 6871TIP3    H242173   0.696   1.458   1.619 -1.2913 -0.5386  0.9510
 6872TIP3   OH242174   0.224   1.312   8.194 -0.2979  0.3018  0.8227
 6872TIP3    H142175   0.267   1.228   8.211  0.4513  0.9988  2.5863
 6872TIP3    H242176   0.164   1.324   8.268 -2.3764  0.1352 -0.7462
 6873TIP3   OH242177   0.128   5.744   0.583  0.0701 -0.4358 -0.3089
 6873TIP3    H142178   0.143   5.769   0.492  0.1129  1.8800  0.2727
 6873TIP3    H242179   0.205   5.692   0.607  1.4194  1.2037 -0.8512
 6874TIP3   OH242180   3.539   4.995   0.781 -0.1808  0.2743  0.2107
 6874TIP3    H142181   3.450   4.985   0.747 -1.0240 -0.3601  2.4770
 6874TIP3    H242182   3.575   4.906   0.782  1.4055  0.7384 -2.7969
 6875TIP3   OH242183   1.716   3.504   7.141 -0.2094  0.2528  0.0118
 6875TIP3    H142184   1.792   3.537   7.093 -1.1989  1.3306 -0.8749
 6875TIP3    H242185   1.641   3.532   7.089 -1.3076  0.7610  1.7948
 6876TIP3   OH242186   1.540   4.147   2.132  0.0570 -0.3967 -0.4944
 6876TIP3    H142187   1.591   4.081   2.179  0.1830 -1.1240 -1.6143
 6876TIP3    H242188   1.457   4.151   2.179  0.8652  0.3124  0.9514
 6877TIP3   OH242189   4.236   5.308   8.511  0.1031  0.5217 -0.4906
 6877TIP3    H142190   4.186   5.284   8.433 -0.6296 -1.7238  0.5759
 6877TIP3    H242191   4.327   5.288   8.490 -0.3400 -2.3224 -0.0851
 6878TIP3   OH242192   6.481   1.382   7.534  0.0446 -0.1358  0.2366
 6878TIP3    H142193   6.461   1.445   7.603  0.1442  0.7055 -0.4847
 6878TIP3    H242194   6.493   1.299   7.580  1.6194  0.6948  1.4068
 6879TIP3   OH242195   6.192   5.039   7.716  0.0845  0.1679 -0.1519
 6879TIP3    H142196   6.199   5.099   7.642  0.6650 -1.3782 -1.4030
 6879TIP3    H242197   6.138   4.967   7.684 -1.9017  0.6708  1.8106
 6880TIP3   OH242198   2.519   3.842   2.586 -0.2741 -0.3731 -0.0657
 6880TIP3    H142199   2.432   3.823   2.551 -1.1882  0.3066  1.7425
 6880TIP3    H242200   2.543   3.763   2.634  0.3043 -0.7065 -0.8724
 6881TIP3   OH242201   2.324   0.027   2.310  0.3129 -0.2460 -0.2219
 6881TIP3    H142202   2.305   0.053   2.220  1.5943  1.0405 -0.1698
 6881TIP3    H242203   2.239   0.029   2.354 -0.4455 -1.5729 -1.5254
 6882TIP3   OH242204   5.659   1.139   8.403 -0.0725 -0.0430  0.1531
 6882TIP3    H142205   5.744   1.143   8.360  0.0048  0.8182  0.3635
 6882TIP3    H242206   5.677   1.164   8.494 -0.5992  0.5352  0.1082
 6883TIP3   OH242207   3.438   3.258   7.999 -0.7325  0.2402 -0.3859
 6883TIP3    H142208   3.488   3.335   7.973 -1.4722  0.3318 -1.6080
 6883TIP3    H242209   3.382   3.288   8.070  0.8116  0.1657  0.9141
 6884TIP3   OH242210   0.512   3.429   0.398 -0.0287 -0.0993 -0.3762
 6884TIP3    H142211   0.466   3.493   0.345 -1.0409 -3.0843 -3.4614
 6884TIP3    H242212   0.605   3.446   0.382 -0.2493  1.1044 -0.3996
 6885TIP3   OH242213   6.080   6.390   7.733  0.0645 -0.2361  0.0132
 6885TIP3    H142214   5.988   6.416   7.724 -0.2746 -0.8588  1.4086
 6885TIP3    H242215   6.118   6.456   7.791  0.0075 -1.0349  0.9744
 6886TIP3   OH242216   0.622   3.472   7.850 -0.6159  0.4004 -0.0899
 6886TIP3    H142217   0.649   3.402   7.909 -1.4650  0.8231  0.8308
 6886TIP3    H242218   0.703   3.500   7.807  0.0917  0.3110  1.1356
 6887TIP3   OH242219   5.395   3.383   7.167  0.0079 -0.0050 -0.4825
 6887TIP3    H142220   5.355   3.376   7.080  1.1067 -0.4168 -0.9690
 6887TIP3    H242221   5.333   3.435   7.217 -0.2158  1.0246 -1.7700
 6888TIP3   OH242222   1.459   0.806   8.365  0.7311  0.2723 -0.1115
 6888TIP3    H142223   1.471   0.885   8.416 -0.2372  0.5673 -0.3275
 6888TIP3    H242224   1.385   0.825   8.307 -1.0956 -1.5735  1.4435
 6889TIP3   OH242225   1.990   6.633   1.192 -0.1926 -0.1125 -0.0916
 6889TIP3    H142226   1.999   6.723   1.161 -1.0906 -0.1415 -0.4381
 6889TIP3    H242227   2.077   6.594   1.178  0.1159  0.6039 -0.2104
 6890TIP3   OH242228   5.810   4.938   8.595 -0.2507 -0.3329  0.2806
 6890TIP3    H142229   5.783   4.850   8.621  0.1284 -1.5985 -3.0861
 6890TIP3    H242230   5.729   4.983   8.572 -0.2847 -0.5979 -0.1258
 6891TIP3   OH242231   6.061   1.860   0.026 -0.3971 -0.1629 -0.0571
 6891TIP3    H142232   6.145   1.844  -0.016 -0.2871 -0.3496  0.2298
 6891TIP3    H242233   6.013   1.916  -0.035  0.1938  0.5139  0.0924
 6892TIP3   OH242234   4.411   4.809   0.535  0.5566 -0.2957  0.2749
 6892TIP3    H142235   4.421   4.732   0.479 -0.6132  0.4650 -1.0470
 6892TIP3    H242236   4.449   4.881   0.484  1.6534  0.0309  1.4992
 6893TIP3   OH242237   5.719   2.090   0.369 -0.2587 -0.0369 -0.4224
 6893TIP3    H142238   5.692   2.025   0.434  0.0521  0.3722  0.1241
 6893TIP3    H242239   5.775   2.041   0.308  2.0949  0.1753  1.3970
 6894TIP3   OH242240   0.119   2.740   0.746 -0.0114 -0.6357  0.0585
 6894TIP3    H142241   0.073   2.687   0.811  0.6383 -0.2545  0.8550
 6894TIP3    H242242   0.051   2.795   0.708 -0.2794 -0.2726  1.0280
 6895TIP3   OH242243   1.098   4.170   7.727 -0.2406  0.0268 -0.0327
 6895TIP3    H142244   1.169   4.231   7.745  1.1012 -1.9518  1.9475
 6895TIP3    H242245   1.134   4.108   7.663 -1.4726  1.0229 -1.7814
 6896TIP3   OH242246   2.323   5.205   7.921 -0.6479  0.5389  0.1697
 6896TIP3    H142247   2.299   5.293   7.947 -1.1811  1.2621 -2.5016
 6896TIP3    H242248   2.412   5.213   7.886 -0.1907 -0.2714  1.0788
 6897TIP3   OH242249   6.059   1.161   7.074  0.0153  0.2188  0.0930
 6897TIP3    H142250   6.007   1.228   7.118 -2.2839 -1.0862 -0.4690
 6897TIP3    H242251   5.999   1.122   7.010  1.6684 -1.4673 -0.5304
 6898TIP3   OH242252   6.810   2.357   7.580 -0.1501 -0.4951  0.1529
 6898TIP3    H142253   6.799   2.343   7.486 -0.8206 -1.5054  0.3676
 6898TIP3    H242254   6.751   2.294   7.621  2.2719 -2.2188  1.2807
 6899TIP3   OH242255   4.313   3.042   1.816  0.3276 -0.7295 -0.5270
 6899TIP3    H142256   4.327   3.014   1.726  0.7016 -0.4636 -0.5558
 6899TIP3    H242257   4.401   3.057   1.850  0.2008 -1.0957 -0.0307
 6900TIP3   OH242258   2.271   3.772   8.481  0.6201  0.6848  0.8850
 6900TIP3    H142259   2.264   3.781   8.386 -1.2394 -0.6178  0.8544
 6900TIP3    H242260   2.186   3.800   8.513  1.1671  0.9223  2.1802
 6901TIP3   OH242261   3.103   1.087   6.635  0.1901 -0.1217  0.2908
 6901TIP3    H142262   3.186   1.125   6.607  0.6088  0.3605  2.0914
 6901TIP3    H242263   3.113   0.993   6.619  0.4724  0.0951 -0.9241
 6902TIP3   OH242264   2.884   4.179   8.246 -0.2431 -0.5733  0.3515
 6902TIP3    H142265   2.914   4.109   8.189  0.6914 -0.0686  0.2070
 6902TIP3    H242266   2.800   4.148   8.280 -0.5472 -1.1242 -0.8477
 6903TIP3   OH242267   5.980   1.664   8.109 -0.0061 -0.5364 -0.1843
 6903TIP3    H142268   5.890   1.648   8.080 -0.5878 -1.8204  2.0663
 6903TIP3    H242269   5.984   1.625   8.196  2.8511 -0.7976 -0.3477
 6904TIP3   OH242270   6.177   4.076   8.175 -0.4859  0.0012 -0.2564
 6904TIP3    H142271   6.247   4.099   8.236 -1.0259  0.1526  0.3268
 6904TIP3    H242272   6.213   4.006   8.122 -0.3566 -0.9036  0.9693
 6905TIP3   OH242273   0.012   6.604   0.147 -0.0167  0.1592  0.0922
 6905TIP3    H142274   0.030   6.522   0.101 -2.0074  0.3620 -1.1711
 6905TIP3    H242275  -0.079   6.597   0.175  0.1492  1.4366  1.0612
 6906TIP3   OH242276   3.807   5.081   7.661 -0.1277  0.0760 -0.1457
 6906TIP3    H142277   3.808   5.154   7.723  0.6524  0.3003 -0.4113
 6906TIP3    H242278   3.899   5.067   7.640 -0.2262 -1.2835  0.2452
 6907TIP3   OH242279   6.335   4.895   0.511 -0.2444 -0.1390  0.1381
 6907TIP3    H142280   6.269   4.905   0.579 -0.6652 -3.3302  0.3464
 6907TIP3    H242281   6.393   4.826   0.543  0.5115 -0.5941 -2.0041
 6908TIP3   OH242282   2.909   0.953   7.760 -0.1032  0.3708  0.2347
 6908TIP3    H142283   2.961   0.930   7.837 -0.1848 -0.3142  0.0997
 6908TIP3    H242284   2.819   0.935   7.786 -0.1852  0.6966  0.1723
 6909TIP3   OH242285   2.853   6.482   6.010 -0.3796  0.1853  0.3743
 6909TIP3    H142286   2.936   6.530   6.007 -0.7176  0.7570 -0.9583
 6909TIP3    H242287   2.792   6.542   6.052 -0.6491  0.6999 -0.7174
 6910TIP3   OH242288   4.785   1.286   1.117 -0.1136  0.0336  0.2588
 6910TIP3    H142289   4.716   1.246   1.171  0.1266  1.1636  1.4515
 6910TIP3    H242290   4.751   1.373   1.097  0.8222  0.4844  0.5937
 6911TIP3   OH242291   5.472   1.283   1.823  0.3034 -0.2895 -0.2334
 6911TIP3    H142292   5.453   1.212   1.885  3.2742 -0.6384  0.4102
 6911TIP3    H242293   5.532   1.244   1.759 -0.4930  0.8430 -1.7420
 6912TIP3   OH242294   0.416   0.557   0.064 -0.0781 -0.2100  0.8661
 6912TIP3    H142295   0.384   0.472   0.094  0.4890  0.0531  2.3208
 6912TIP3    H242296   0.510   0.554   0.080 -0.3081  1.4400  3.0037
 6913TIP3   OH242297   2.407   6.052   1.388  0.1425 -0.0243 -0.3593
 6913TIP3    H142298   2.386   5.992   1.459  1.6341  0.2101  0.3067
 6913TIP3    H242299   2.497   6.079   1.405  0.1723  0.8455 -1.7660
 6914TIP3   OH242300   4.961   5.129   7.658  0.2682  0.1561  0.4056
 6914TIP3    H142301   5.008   5.209   7.638 -0.8029  0.2964 -1.8488
 6914TIP3    H242302   5.018   5.059   7.627 -0.2588  0.2378 -0.7665
 6915TIP3   OH242303   2.482   5.196   1.570  0.1527  0.0306 -0.4468
 6915TIP3    H142304   2.455   5.213   1.479 -2.9313  2.8311  0.7900
 6915TIP3    H242305   2.477   5.281   1.613  1.3850 -1.2282  2.4453
 6916TIP3   OH242306   4.163   4.395   1.321 -0.1811  0.5588 -0.2445
 6916TIP3    H142307   4.117   4.473   1.354  1.3377  1.8927 -1.1403
 6916TIP3    H242308   4.170   4.410   1.226 -1.6451 -1.6794 -0.7898
 6917TIP3   OH242309   2.900   2.651   7.428  0.3397  0.3531  0.0822
 6917TIP3    H142310   2.913   2.557   7.442  3.7005  0.1275 -2.9721
 6917TIP3    H242311   2.916   2.691   7.513  2.5937 -1.6850  0.7428
 6918TIP3   OH242312   5.407   2.290   6.551  0.5496 -0.1757  0.0298
 6918TIP3    H142313   5.444   2.255   6.632 -1.2233 -0.9679  0.5401
 6918TIP3    H242314   5.410   2.216   6.490 -0.3873 -0.3299  0.1579
 6919TIP3   OH242315   4.465   6.710   0.730 -0.2949 -0.3867 -1.4036
 6919TIP3    H142316   4.502   6.622   0.720  1.8637  0.3125 -0.2338
 6919TIP3    H242317   4.499   6.740   0.815  0.7396  2.3252 -2.6769
 6920TIP3   OH242318   6.661   6.107   2.206  0.0644  0.4108 -1.0598
 6920TIP3    H142319   6.660   6.137   2.115 -0.7280  0.2898 -1.0934
 6920TIP3    H242320   6.742   6.056   2.213  0.4257  0.9065 -1.5327
 6921TIP3   OH242321   2.327   3.438   1.173  0.4244 -0.6937 -0.4132
 6921TIP3    H142322   2.352   3.383   1.098 -1.6766  0.0998 -1.8082
 6921TIP3    H242323   2.351   3.526   1.147  1.3493 -0.6085  0.6752
 6922TIP3   OH242324   6.475   1.304   8.317 -0.9881  0.1950  0.0063
 6922TIP3    H142325   6.427   1.365   8.261 -0.8504 -0.7142 -1.1508
 6922TIP3    H242326   6.515   1.359   8.384 -1.8354  1.2245 -0.2997
 6923TIP3   OH242327   4.430   4.682   1.621 -0.1722 -0.3594 -0.0325
 6923TIP3    H142328   4.435   4.587   1.610  0.0484 -0.3465 -0.0520
 6923TIP3    H242329   4.343   4.697   1.657 -1.2037 -0.3577 -2.3471
 6924TIP3   OH242330   5.380   0.755   0.443 -0.2088  0.0569 -0.1488
 6924TIP3    H142331   5.319   0.823   0.473 -0.2778 -1.1280  2.7199
 6924TIP3    H242332   5.466   0.785   0.472  0.5909  1.2196 -3.2873
 6925TIP3   OH242333   3.689   0.123   1.811  0.2955 -0.3240  0.1568
 6925TIP3    H142334   3.610   0.071   1.822  0.1784 -0.2965 -0.4761
 6925TIP3    H242335   3.680   0.195   1.874  0.3566 -0.9445  0.8785
 6926TIP3   OH242336   6.038   0.250   2.164 -0.3889  0.7083 -0.2733
 6926TIP3    H142337   5.956   0.298   2.175 -0.1111  1.5985 -1.8635
 6926TIP3    H242338   6.097   0.288   2.228 -1.8352 -1.6292  2.7167
 6927TIP3   OH242339   2.650   2.840   0.449 -0.9582 -0.3648  0.1742
 6927TIP3    H142340   2.644   2.912   0.386 -0.8187  1.6204  2.2667
 6927TIP3    H242341   2.729   2.793   0.425 -0.4517  0.8517 -0.6483
 6928TIP3   OH242342   0.768   1.375   6.696 -0.0285 -0.1457 -0.0997
 6928TIP3    H142343   0.840   1.315   6.678  1.0088  0.6253  1.3144
 6928TIP3    H242344   0.717   1.331   6.764  0.4882  0.3820  0.6304
 6929TIP3   OH242345   2.501   3.939   8.561 -0.2386 -0.1133  0.0490
 6929TIP3    H142346   2.429   3.898   8.512  0.5910 -0.6230 -0.7636
 6929TIP3    H242347   2.538   3.868   8.613  0.0491  0.0190  0.0246
 6930TIP3   OH242348   6.416   6.093   1.147  0.2165  0.3986  0.2621
 6930TIP3    H142349   6.342   6.147   1.118 -1.4594 -0.6657  2.2628
 6930TIP3    H242350   6.389   6.003   1.128  2.2731  0.0707 -1.5435
 6931TIP3   OH242351   4.732   1.133   8.571  0.1906  0.1575 -0.2457
 6931TIP3    H142352   4.714   1.040   8.556  2.2309 -0.2181 -0.6897
 6931TIP3    H242353   4.790   1.158   8.499 -0.8814  2.0007 -0.5416
 6932TIP3   OH242354   3.648   4.349   1.405  0.0688  0.0941  0.2133
 6932TIP3    H142355   3.569   4.404   1.408  1.0104  1.5771 -0.6331
 6932TIP3    H242356   3.714   4.399   1.454 -0.2213 -2.5143  3.6339
 6933TIP3   OH242357   4.463   1.952   7.973  0.2545  0.3625 -0.3275
 6933TIP3    H142358   4.376   1.924   8.001  0.9258 -1.4931  0.0465
 6933TIP3    H242359   4.473   1.916   7.885  1.0717 -0.4452  0.0827
 6934TIP3   OH242360   5.796   4.670   6.730  0.2438  1.0429  0.3223
 6934TIP3    H142361   5.728   4.665   6.663  1.2349 -0.7210 -0.6013
 6934TIP3    H242362   5.767   4.741   6.788 -1.9068  0.9290 -0.5403
 6935TIP3   OH242363   3.772   0.407   0.978  0.6275 -0.2431  0.6120
 6935TIP3    H142364   3.694   0.385   1.029 -0.4331  0.1821 -0.7872
 6935TIP3    H242365   3.832   0.447   1.042 -0.1370 -0.8949  1.7735
 6936TIP3   OH242366   1.821   1.348   8.689  0.2896  0.3845  0.0267
 6936TIP3    H142367   1.761   1.362   8.615  0.7843  0.5349 -0.3531
 6936TIP3    H242368   1.899   1.398   8.666  0.5172  0.2869  0.5739
 6937TIP3   OH242369   3.204   5.738   0.607  0.1602 -0.1498  0.3714
 6937TIP3    H142370   3.111   5.741   0.632  0.2871  0.2756  0.7988
 6937TIP3    H242371   3.225   5.644   0.605  0.1093 -0.2130  1.7424
 6938TIP3   OH242372   2.931   1.931   1.442  0.1489  0.0583  0.0074
 6938TIP3    H142373   3.006   1.904   1.391 -0.2476  0.1731 -0.6431
 6938TIP3    H242374   2.863   1.952   1.378 -0.6078 -0.5228  0.5797
 6939TIP3   OH242375   5.948   5.559   2.348  0.1532  0.5858  0.5026
 6939TIP3    H142376   6.017   5.597   2.293  0.2820  1.5522  1.3095
 6939TIP3    H242377   5.868   5.600   2.316 -0.0804 -0.5516 -0.4483
 6940TIP3   OH242378   0.125   5.401   1.252  0.5914  0.4412  0.3399
 6940TIP3    H142379   0.118   5.494   1.231  1.3181  0.6307  0.8547
 6940TIP3    H242380   0.213   5.376   1.222  0.2617 -0.1778 -0.1393
 6941TIP3   OH242381   1.525   6.482   0.862  0.5374  0.7410  0.0749
 6941TIP3    H142382   1.540   6.567   0.902  2.3419 -0.1655  1.5064
 6941TIP3    H242383   1.478   6.432   0.929  0.0746  0.4098 -0.4927
 6942TIP3   OH242384   0.699   5.201   7.522 -0.4003  0.2967 -0.2907
 6942TIP3    H142385   0.636   5.216   7.592  0.9498  3.3644  0.4374
 6942TIP3    H242386   0.781   5.181   7.567 -0.0700 -0.1535 -1.0807
 6943TIP3   OH242387   6.670   5.488   7.527 -0.1761 -0.1435 -0.0245
 6943TIP3    H142388   6.664   5.583   7.513 -0.8782 -0.0717  0.6683
 6943TIP3    H242389   6.581   5.463   7.553 -0.0539 -1.0388 -0.4419
 6944TIP3   OH242390   3.932   3.083   1.549 -0.3496  0.1706 -0.4038
 6944TIP3    H142391   3.856   3.142   1.550  1.8696  3.3028 -1.5861
 6944TIP3    H242392   3.993   3.121   1.611  1.0241 -1.1785 -0.8685
 6945TIP3   OH242393   5.717   0.855   0.244  0.1411 -0.1892  0.3153
 6945TIP3    H142394   5.723   0.762   0.266  1.7987  0.0859  1.1432
 6945TIP3    H242395   5.791   0.870   0.185  0.5277  0.8128  1.0258
 6946TIP3   OH242396   1.233   2.672   0.852 -0.6767  0.1723  0.3528
 6946TIP3    H142397   1.315   2.624   0.863 -1.3462 -1.2942 -0.6235
 6946TIP3    H242398   1.211   2.704   0.939  1.0463  0.8042  0.5796
 6947TIP3   OH242399   6.821   3.221   7.987 -0.3114 -0.5372  0.5533
 6947TIP3    H142400   6.758   3.169   8.037  0.7727 -1.3387  1.1109
 6947TIP3    H242401   6.904   3.176   7.999  0.1310 -0.2851 -1.3039
 6948TIP3   OH242402   4.045   2.702   1.377 -0.4687  0.4780 -0.1323
 6948TIP3    H142403   3.961   2.739   1.353 -0.9825 -0.0369  0.8151
 6948TIP3    H242404   4.026   2.612   1.403  0.3947  0.3007 -0.0589
 6949TIP3   OH242405   0.813   2.790   8.133  0.6244 -0.1305  0.6255
 6949TIP3    H142406   0.758   2.847   8.079  0.6090 -0.1545  0.6159
 6949TIP3    H242407   0.822   2.710   8.081  1.2909  0.1556  0.2861
 6950TIP3   OH242408   6.082   2.271   8.306 -0.2100 -0.1858  0.3921
 6950TIP3    H142409   6.164   2.289   8.353  0.6010  2.4962 -1.8262
 6950TIP3    H242410   6.027   2.346   8.324 -0.4543  0.1708 -1.6281
 6951TIP3   OH242411   3.373   4.601   8.169 -0.6155  0.0108 -0.5277
 6951TIP3    H142412   3.350   4.508   8.170  1.1503 -0.5765 -3.0202
 6951TIP3    H242413   3.315   4.639   8.103 -0.2228  0.3099 -0.7045
 6952TIP3   OH242414   1.981   1.290   7.667 -0.9127  0.2273 -0.0479
 6952TIP3    H142415   1.983   1.300   7.572 -0.1388  2.2864  0.1123
 6952TIP3    H242416   2.068   1.318   7.695 -0.9137 -0.9611  1.2423
 6953TIP3   OH242417   4.871   4.042   1.692 -0.0634 -0.9085 -0.1457
 6953TIP3    H142418   4.776   4.050   1.697  0.1489  2.5733  0.6139
 6953TIP3    H242419   4.897   3.999   1.773 -0.8162  1.0573  1.1833
 6954TIP3   OH242420   2.179   1.420   0.780 -0.2396  0.5251 -0.7122
 6954TIP3    H142421   2.148   1.465   0.858  0.1474  0.0341 -0.2697
 6954TIP3    H242422   2.190   1.490   0.715  3.1479  1.6132  0.7935
 6955TIP3   OH242423   5.654   1.593   7.684 -0.1107  0.4273 -0.3080
 6955TIP3    H142424   5.625   1.601   7.775  2.1621  1.6857  0.3730
 6955TIP3    H242425   5.683   1.502   7.676 -2.8916 -0.5245 -0.6768
 6956TIP3   OH242426   5.150   2.085   1.336  0.1576 -0.7037 -0.4110
 6956TIP3    H142427   5.214   2.146   1.300 -0.1408 -0.1499 -0.0170
 6956TIP3    H242428   5.144   2.015   1.271 -0.3591  0.2668 -1.4259
 6957TIP3   OH242429   5.206   0.092   2.153 -0.1833  0.4910 -0.0599
 6957TIP3    H142430   5.249   0.017   2.112  0.5911  0.8982 -0.0228
 6957TIP3    H242431   5.276   0.136   2.202 -0.6904  1.0620  0.1704
 6958TIP3   OH242432   0.754   0.527   8.389  0.5825 -0.0308  0.2355
 6958TIP3    H142433   0.783   0.456   8.332 -0.1223  0.6374 -1.0289
 6958TIP3    H242434   0.664   0.504   8.413  1.3863 -1.1060  2.4735
 6959TIP3   OH242435   6.171   0.712   2.391  0.2164 -0.8254 -0.2136
 6959TIP3    H142436   6.179   0.666   2.475 -0.1316 -1.9701 -0.7918
 6959TIP3    H242437   6.131   0.796   2.414 -0.2875 -1.3006  0.7137
 6960TIP3   OH242438   4.461   6.169   0.646 -0.0949 -0.4007  0.1815
 6960TIP3    H142439   4.486   6.198   0.734 -1.1324  0.3893  0.2449
 6960TIP3    H242440   4.532   6.199   0.589  0.3377 -0.4628  0.6824
 6961TIP3   OH242441   1.525   3.039   1.900 -0.5295  0.4837 -0.2047
 6961TIP3    H142442   1.439   3.061   1.936  0.1009 -1.3782  2.8283
 6961TIP3    H242443   1.517   2.948   1.872  0.2648  0.5222 -0.5795
 6962TIP3   OH242444   4.220   2.870   8.066 -0.2646 -0.4228 -0.4836
 6962TIP3    H142445   4.180   2.954   8.085  0.8665  0.2369 -0.8944
 6962TIP3    H242446   4.162   2.829   8.001 -0.7216  0.1134 -0.4176
 6963TIP3   OH242447   3.961   0.985   8.511  0.2207 -0.7338 -0.1781
 6963TIP3    H142448   3.895   0.928   8.473  0.2683 -0.7341 -0.2630
 6963TIP3    H242449   4.036   0.928   8.526  0.2028 -0.7323 -0.0880
 6964TIP3   OH242450   3.799   4.632   7.319 -0.6238  0.7567 -0.1208
 6964TIP3    H142451   3.716   4.662   7.354 -0.2550  1.5037  0.1213
 6964TIP3    H242452   3.796   4.656   7.226 -1.4140 -0.8259 -0.5348
 6965TIP3   OH242453   6.464   1.163   7.089 -0.2655  0.0376 -0.2265
 6965TIP3    H142454   6.504   1.078   7.109 -1.2400  0.2708  3.3618
 6965TIP3    H242455   6.511   1.225   7.144 -1.3545  1.3991 -0.7601
 6966TIP3   OH242456   0.663   1.039   1.606 -0.1545 -0.2044  0.3897
 6966TIP3    H142457   0.662   1.065   1.698  2.7805  0.2486  0.3806
 6966TIP3    H242458   0.645   0.945   1.608 -0.6845 -0.1044  1.3538
 6967TIP3   OH242459   0.047   3.597   0.605 -0.1273  0.1752  0.4168
 6967TIP3    H142460  -0.009   3.549   0.666  0.8712  0.0591  1.2891
 6967TIP3    H242461   0.084   3.530   0.548 -2.2022  0.4295 -1.3622
 6968TIP3   OH242462   5.830   2.993   1.664 -0.2761 -0.1085  0.6259
 6968TIP3    H142463   5.909   2.951   1.698 -0.4117 -0.3527  0.6462
 6968TIP3    H242464   5.774   2.920   1.636 -0.8087  0.0199  1.3008
 6969TIP3   OH242465   2.020   6.492   0.115 -0.3200  0.5219 -0.3494
 6969TIP3    H142466   2.100   6.526   0.075  0.4590 -2.6555 -1.7978
 6969TIP3    H242467   2.037   6.495   0.209  0.1355  2.8359 -0.4409
 6970TIP3   OH242468   5.392   0.644   1.633  0.2319 -0.0095 -0.0120
 6970TIP3    H142469   5.348   0.712   1.582  1.9167 -0.3128 -2.0222
 6970TIP3    H242470   5.454   0.693   1.688 -0.7561  0.2458  0.8992
 6971TIP3   OH242471   6.359   1.120   7.666 -0.0296  0.4357  0.0093
 6971TIP3    H142472   6.290   1.054   7.677  0.8491 -0.2755  1.6391
 6971TIP3    H242473   6.395   1.132   7.754  1.3667  1.4094 -0.6594
 6972TIP3   OH242474   3.806   0.893   1.887  0.4970 -0.3116 -0.0607
 6972TIP3    H142475   3.727   0.905   1.940  0.0962  2.8541 -1.1361
 6972TIP3    H242476   3.775   0.860   1.803 -0.0129  2.1646 -0.9500
 6973TIP3   OH242477   1.623   5.686   7.588 -0.6840  0.3484  0.4899
 6973TIP3    H142478   1.635   5.780   7.571  0.3272  0.3355  1.0854
 6973TIP3    H242479   1.679   5.643   7.524  0.4605  0.2195  1.5351
 6974TIP3   OH242480   0.841   3.451   0.097  0.1327  0.5118  0.0127
 6974TIP3    H142481   0.860   3.441   0.004  2.1493  2.1015  0.1734
 6974TIP3    H242482   0.851   3.545   0.114 -1.1962  0.4084  1.6538
 6975TIP3   OH242483   1.627   1.355   1.934  0.6020 -0.3713  0.5508
 6975TIP3    H142484   1.650   1.298   2.007 -0.7240 -1.9761 -0.2333
 6975TIP3    H242485   1.706   1.409   1.921  0.8649  0.0352  3.1523
 6976TIP3   OH242486   3.021   6.475   1.610  0.3144  0.0349  0.6946
 6976TIP3    H142487   3.019   6.495   1.703 -2.5232 -1.0950  0.9785
 6976TIP3    H242488   2.956   6.405   1.599  0.9673 -0.2566 -2.0476
 6977TIP3   OH242489   4.018   3.449   7.043 -0.0560  0.0002  0.0106
 6977TIP3    H142490   3.964   3.371   7.057  1.6365 -0.9452  1.6656
 6977TIP3    H242491   4.010   3.467   6.949  0.7628 -3.1550 -0.7725
 6978TIP3   OH242492   2.159   5.946   7.942 -0.1343  0.0426 -0.5624
 6978TIP3    H142493   2.082   5.922   7.994 -0.4528  2.2033  0.0609
 6978TIP3    H242494   2.216   5.869   7.946 -0.7789 -0.3882  1.8209
 6979TIP3   OH242495   6.039   4.275   8.509 -0.6113 -0.1049 -0.5691
 6979TIP3    H142496   5.950   4.292   8.477 -1.2133  0.5725  1.3266
 6979TIP3    H242497   6.052   4.181   8.495 -2.0747 -0.4472  0.1260
 6980TIP3   OH242498   1.637   3.694   1.954  0.2432 -0.2308 -0.2368
 6980TIP3    H142499   1.677   3.631   2.014  1.4471 -0.3426 -1.1187
 6980TIP3    H242500   1.695   3.695   1.877 -1.0676  0.1512 -1.2673
 6981TIP3   OH242501   1.843   6.447   7.032  0.1918  0.7088 -0.0514
 6981TIP3    H142502   1.899   6.414   6.962 -1.2782  2.6826 -2.3357
 6981TIP3    H242503   1.878   6.534   7.052  1.1186 -0.1489  2.3994
 6982TIP3   OH242504   5.779   0.344   2.145 -0.3351  0.5235 -0.0249
 6982TIP3    H142505   5.710   0.337   2.079 -0.1217 -2.8795 -0.1087
 6982TIP3    H242506   5.733   0.329   2.228  0.0257  0.0689  0.0979
 6983TIP3   OH242507   5.610   1.141   0.220 -0.1932 -0.7724  0.0719
 6983TIP3    H142508   5.625   1.077   0.290  1.7988  0.2313  0.6272
 6983TIP3    H242509   5.578   1.218   0.266 -0.5142 -0.6632 -0.3362
 6984TIP3   OH242510   2.846   2.364   1.317 -0.1071  0.1202 -0.2249
 6984TIP3    H142511   2.823   2.447   1.359  1.4946  0.3382  0.3009
 6984TIP3    H242512   2.778   2.350   1.251  0.2733  2.5274 -1.2362
 6985TIP3   OH242513   3.154   3.041   1.199 -0.1495 -0.0874 -0.2933
 6985TIP3    H142514   3.077   3.086   1.234 -1.0802  0.0791 -2.4122
 6985TIP3    H242515   3.225   3.067   1.258 -1.3964  1.0626  0.7803
 6986TIP3   OH242516   2.683   4.884   0.907 -0.8900  0.0212  0.1724
 6986TIP3    H142517   2.721   4.887   0.820 -1.9431  1.9475 -0.2761
 6986TIP3    H242518   2.754   4.910   0.966 -0.8770  1.4239 -0.4220
 6987TIP3   OH242519   3.152   6.098   8.373 -0.2074  0.4201 -0.3476
 6987TIP3    H142520   3.133   6.122   8.282 -2.9784  0.9579  0.2756
 6987TIP3    H242521   3.175   6.005   8.369 -0.5082  0.3756 -1.5811
 6988TIP3   OH242522   0.643   6.188   1.866  0.6144  0.3987  0.1436
 6988TIP3    H142523   0.693   6.242   1.928  2.1558 -0.2400 -0.4878
 6988TIP3    H242524   0.556   6.226   1.866  0.5033  0.3408  2.8191
 6989TIP3   OH242525   1.828   1.022   1.485 -0.0846  0.2175  0.2088
 6989TIP3    H142526   1.893   1.079   1.525 -0.1343  1.3427 -1.2432
 6989TIP3    H242527   1.872   0.983   1.410 -0.1245 -1.5196  1.0326
 6990TIP3   OH242528   5.164   1.583   7.646 -0.4746  0.4950  0.0493
 6990TIP3    H142529   5.115   1.649   7.597  0.8745  0.8736 -0.8431
 6990TIP3    H242530   5.233   1.555   7.585  0.8461  0.4889  1.4943
 6991TIP3   OH242531   4.701   6.685   6.990 -1.1619 -0.5799 -0.2056
 6991TIP3    H142532   4.654   6.636   6.923  0.7532 -2.1470 -0.5096
 6991TIP3    H242533   4.760   6.742   6.941 -0.4411 -1.0304  0.1168
 6992TIP3   OH242534   2.332   5.049   1.997  0.3406 -0.1720 -0.1218
 6992TIP3    H142535   2.242   5.079   1.990  0.5937  0.9856  1.1853
 6992TIP3    H242536   2.347   5.036   2.090  1.7128  0.3499 -0.2362
 6993TIP3   OH242537   2.073   3.533   7.877 -0.7075  0.2267  0.2036
 6993TIP3    H142538   2.099   3.606   7.822 -0.8427  0.2176  0.1261
 6993TIP3    H242539   1.977   3.540   7.882 -0.7868 -0.3609 -0.3869
 6994TIP3   OH242540   3.426   6.632   8.376  0.7573  0.3759 -0.1357
 6994TIP3    H142541   3.445   6.671   8.290  0.5391  1.6436  0.3722
 6994TIP3    H242542   3.499   6.659   8.431  0.7876 -0.2550  0.1314
 6995TIP3   OH242543   1.252   0.393   0.026  0.2105  0.8269  0.1598
 6995TIP3    H142544   1.324   0.393   0.089  2.1555  1.0429 -1.9440
 6995TIP3    H242545   1.234   0.300   0.010 -0.0578  0.7732  0.7460
 6996TIP3   OH242546   5.595   2.017   1.444 -0.1631  0.3654  0.2108
 6996TIP3    H142547   5.687   2.040   1.427 -0.0867 -0.9000 -1.3721
 6996TIP3    H242548   5.581   2.040   1.536  1.7616  0.4977  0.5203
 6997TIP3   OH242549   4.320   3.102   0.328  0.3848 -0.7079  0.3242
 6997TIP3    H142550   4.327   3.067   0.416  2.2056 -1.1040  0.0596
 6997TIP3    H242551   4.384   3.173   0.325  0.1153 -0.4903 -0.5766
 6998TIP3   OH242552   4.243   6.175   1.968  0.3709 -0.7706 -0.0580
 6998TIP3    H142553   4.284   6.088   1.973  0.8537 -0.5238  0.4614
 6998TIP3    H242554   4.180   6.176   2.041 -1.7366 -1.7136 -1.7661
 6999TIP3   OH242555   3.419   5.125   7.371 -0.1760 -0.6213 -0.0854
 6999TIP3    H142556   3.475   5.181   7.424 -1.2456 -0.7542  1.2640
 6999TIP3    H242557   3.433   5.037   7.405 -0.9970 -0.6875  0.1220
 7000TIP3   OH242558   6.524   3.623   7.691 -0.3020  0.1321 -0.4030
 7000TIP3    H142559   6.559   3.538   7.662 -2.4019 -1.7195  2.0897
 7000TIP3    H242560   6.598   3.664   7.737 -0.2728 -2.2277  1.8952
 7001TIP3   OH242561   2.907   5.426   1.535 -0.5603  0.4355 -0.4061
 7001TIP3    H142562   2.910   5.437   1.630  3.2767  1.9548 -0.5318
 7001TIP3    H242563   2.953   5.343   1.518 -2.8919 -0.8377 -0.9566
 7002TIP3   OH242564   2.684   3.160   0.562  0.4724 -0.2965 -0.6482
 7002TIP3    H142565   2.595   3.170   0.528  0.1213  3.1552  0.8497
 7002TIP3    H242566   2.672   3.121   0.649  0.5112 -0.5648 -0.7619
 7003TIP3   OH242567   5.143   0.585   7.004  0.4115 -0.0182  0.6921
 7003TIP3    H142568   5.123   0.510   7.061 -1.4453  0.5739  0.8823
 7003TIP3    H242569   5.200   0.549   6.936 -0.5577 -1.6346  0.6921
 7004TIP3   OH242570   3.676   4.086   1.576  0.0487  0.1948 -0.2891
 7004TIP3    H142571   3.719   4.044   1.501 -1.9125 -1.8787 -0.3736
 7004TIP3    H242572   3.641   4.167   1.541  0.1683 -0.1765 -1.3241
 7005TIP3   OH242573   4.795   0.387   7.683 -0.3197 -0.4096 -0.3589
 7005TIP3    H142574   4.852   0.463   7.670  1.1302 -1.3893 -0.1014
 7005TIP3    H242575   4.772   0.389   7.776 -0.4306 -0.1827 -0.3917
 7006TIP3   OH242576   6.551   3.655   8.181  0.4270  0.0624  0.4859
 7006TIP3    H142577   6.585   3.587   8.123  0.1779  0.6883 -0.4189
 7006TIP3    H242578   6.623   3.674   8.241  0.8572 -0.2469  0.0719
 7007TIP3   OH242579   2.721   2.414   0.650  0.0510  0.1691 -0.1058
 7007TIP3    H142580   2.778   2.366   0.710  1.2757  0.4591 -0.9791
 7007TIP3    H242581   2.674   2.347   0.601  2.0324 -0.2404 -1.5917
 7008TIP3   OH242582   0.471   3.624   1.371  0.1433 -0.0812 -0.4527
 7008TIP3    H142583   0.542   3.568   1.405  1.8816  0.5659 -2.7640
 7008TIP3    H242584   0.403   3.563   1.345  0.1081 -0.7778  1.1602
 7009TIP3   OH242585   2.533   6.629   1.244  0.4448  0.0745 -0.1656
 7009TIP3    H142586   2.532   6.708   1.297 -0.1848 -0.7078  1.0315
 7009TIP3    H242587   2.485   6.652   1.165  0.3477  0.9180  0.1345
 7010TIP3   OH242588   6.390   5.627   8.360  0.2072  0.1006 -0.1629
 7010TIP3    H142589   6.314   5.652   8.412  1.9274  1.9853  1.6146
 7010TIP3    H242590   6.379   5.533   8.346 -1.0754 -0.2395  2.4544
 7011TIP3   OH242591   2.501   0.287   6.256  0.0411  0.5590  0.6210
 7011TIP3    H142592   2.486   0.245   6.341 -0.5509 -0.6595 -0.0611
 7011TIP3    H242593   2.414   0.292   6.216  0.5840 -1.0930 -0.9027
 7012TIP3   OH242594   1.733   1.905   0.921 -0.4123  0.0620 -0.3724
 7012TIP3    H142595   1.684   1.971   0.970 -1.5989 -1.1094  0.0551
 7012TIP3    H242596   1.721   1.824   0.970  1.5040 -0.3957 -0.5695
 7013TIP3   OH242597   0.931   4.645   1.854  0.0109 -0.3226  0.7178
 7013TIP3    H142598   0.859   4.637   1.791  0.0375 -1.7207  0.8551
 7013TIP3    H242599   0.898   4.706   1.920 -1.6541 -2.0428  1.5713
 7014TIP3   OH242600   1.693   6.820   0.781 -1.1496  0.0919 -0.0930
 7014TIP3    H142601   1.774   6.777   0.807 -1.2606  0.4820  0.9642
 7014TIP3    H242602   1.703   6.837   0.687 -1.0631 -2.0734 -0.5266
 7015TIP3   OH242603   3.624   3.440   1.685  1.0076 -0.1584 -0.0107
 7015TIP3    H142604   3.556   3.401   1.630 -0.1678  1.1914  0.4182
 7015TIP3    H242605   3.582   3.454   1.770  2.2912 -0.6736  0.7322
 7016TIP3   OH242606   4.074   1.245   8.336 -0.3887  0.4056  0.1085
 7016TIP3    H142607   4.006   1.308   8.313 -0.2629 -0.5729 -3.5115
 7016TIP3    H242608   4.030   1.181   8.392 -1.9087  0.8395 -0.5514
 7017TIP3   OH242609   5.400   5.159   7.613  0.6514  0.8139 -0.2675
 7017TIP3    H142610   5.385   5.141   7.520 -0.5095 -0.6538  0.1581
 7017TIP3    H242611   5.446   5.243   7.615 -0.0240  1.2609 -2.1336
 7018TIP3   OH242612   0.311   0.599   6.945 -0.2483 -0.4175  0.0939
 7018TIP3    H142613   0.259   0.519   6.935 -1.0373  0.2195 -1.1745
 7018TIP3    H242614   0.381   0.591   6.880 -0.2532 -0.1453  0.0519
 7019TIP3   OH242615   6.657   5.234   7.887  0.8509 -0.5741  0.6591
 7019TIP3    H142616   6.667   5.317   7.933 -1.0630  0.5746 -0.8160
 7019TIP3    H242617   6.724   5.236   7.818  1.8542 -1.0220  1.5918
 7020TIP3   OH242618   4.497   1.622   1.345 -0.4157  0.1855  0.3422
 7020TIP3    H142619   4.419   1.664   1.308 -3.1413 -1.1135  3.9916
 7020TIP3    H242620   4.521   1.679   1.419  0.9993 -0.4114  0.3662
 7021TIP3   OH242621   4.292   4.157   1.789  0.8572 -0.1131  0.1583
 7021TIP3    H142622   4.216   4.180   1.843  1.2743 -0.7733  1.0556
 7021TIP3    H242623   4.255   4.116   1.711  0.2924 -1.1925  0.9586
 7022TIP3   OH242624   2.778   4.196   2.495 -0.1284  0.3375 -0.5658
 7022TIP3    H142625   2.860   4.208   2.448 -0.0928  1.1282 -0.3134
 7022TIP3    H242626   2.710   4.215   2.431 -0.0878  0.8305 -0.4708
 7023TIP3   OH242627   3.872   2.294   2.362 -0.4610  0.4671  0.0261
 7023TIP3    H142628   3.930   2.222   2.336 -1.0071 -0.2129  0.6794
 7023TIP3    H242629   3.789   2.252   2.382 -0.6121  1.2146  1.0045
 7024TIP3   OH242630   3.691   1.174   1.477  0.1338  0.0094  0.4717
 7024TIP3    H142631   3.702   1.262   1.440  2.9773 -0.2772  0.4254
 7024TIP3    H242632   3.676   1.118   1.401  3.4635 -0.2023 -0.2032
 7025TIP3   OH242633   2.896   5.126   1.895 -0.5655  0.4605  0.0155
 7025TIP3    H142634   2.872   5.167   1.812  0.1875  0.9568  0.0222
 7025TIP3    H242635   2.933   5.198   1.947 -1.7281  0.3193  1.0800
 7026TIP3   OH242636   5.124   6.851   7.869 -0.3660  0.5627  0.0860
 7026TIP3    H142637   5.104   6.918   7.934  1.6343  0.7523  0.5616
 7026TIP3    H242638   5.131   6.770   7.919  0.7955  0.6434  0.0839
 7027TIP3   OH242639   0.108   5.189   8.346 -0.3680  0.0054  0.2243
 7027TIP3    H142640   0.087   5.132   8.271 -2.3753  0.6049  0.2705
 7027TIP3    H242641   0.196   5.163   8.371 -0.9967 -2.7532 -0.0649
 7028TIP3   OH242642   6.835   1.591   8.301 -0.0450  0.5919 -0.4733
 7028TIP3    H142643   6.771   1.658   8.323 -0.5984 -0.2687  0.7068
 7028TIP3    H242644   6.818   1.569   8.209 -1.5027  0.3397 -0.1652
 7029TIP3   OH242645   0.657   1.007   0.910 -0.3717 -0.0436  0.0674
 7029TIP3    H142646   0.585   0.945   0.918  0.0317 -0.3875  1.2317
 7029TIP3    H242647   0.616   1.093   0.913 -0.9955 -0.2089 -2.0896
 7030TIP3   OH242648   5.428   2.833   2.157 -0.2976 -0.3726  0.1260
 7030TIP3    H142649   5.351   2.804   2.107 -1.4333 -1.0628  2.1475
 7030TIP3    H242650   5.438   2.767   2.225 -0.5376  1.8751  2.5076
 7031TIP3   OH242651   2.460   0.211   6.534  0.3194  0.5421 -0.3735
 7031TIP3    H142652   2.411   0.142   6.578  2.0522  0.1240  1.0039
 7031TIP3    H242653   2.452   0.287   6.592 -0.4951  1.1491 -1.2434
 7032TIP3   OH242654   2.142   3.397   7.465 -0.1000 -0.0626 -0.1400
 7032TIP3    H142655   2.202   3.440   7.405 -1.8849  0.9563 -1.3053
 7032TIP3    H242656   2.123   3.313   7.423 -0.0813 -0.0389 -0.1971
 7033TIP3   OH242657   1.537   2.234   7.935  0.6340  0.4197  0.1181
 7033TIP3    H142658   1.524   2.266   8.024 -0.7051  0.5559 -0.1125
 7033TIP3    H242659   1.454   2.250   7.890 -0.1859 -3.2391 -0.0373
 7034TIP3   OH242660   4.173   1.254   8.626 -0.1795  0.1470 -0.5339
 7034TIP3    H142661   4.232   1.216   8.562 -1.5218  0.1174 -1.8079
 7034TIP3    H242662   4.220   1.329   8.662  1.4317 -1.0931  0.0309
 7035TIP3   OH242663   5.841   3.645   1.453  0.2345  0.0293 -0.1239
 7035TIP3    H142664   5.901   3.626   1.381 -1.1957 -3.1416 -0.6629
 7035TIP3    H242665   5.886   3.613   1.531 -0.3363 -1.5656 -0.4141
 7036TIP3   OH242666   6.376   2.172   1.205  0.1011 -0.0250  0.1047
 7036TIP3    H142667   6.338   2.259   1.193 -0.5140 -0.2819  0.1689
 7036TIP3    H242668   6.331   2.136   1.281  1.4300  0.1885  1.0424
 7037TIP3   OH242669   5.930   1.230   1.878  0.2040 -0.1584  0.6664
 7037TIP3    H142670   5.862   1.274   1.826  0.4249  0.0428  0.5476
 7037TIP3    H242671   5.999   1.295   1.889  0.5417 -0.4742  0.4725
 7038TIP3   OH242672   1.163   3.335   2.094  0.2598  0.0472 -0.0114
 7038TIP3    H142673   1.157   3.361   2.186  3.5822  0.6294  0.1840
 7038TIP3    H242674   1.072   3.329   2.064 -0.9964 -1.1727  3.5408
 7039TIP3   OH242675   5.233   5.305   8.534  0.4670 -0.1870 -0.1172
 7039TIP3    H142676   5.216   5.282   8.442  2.1627 -0.2035 -0.4556
 7039TIP3    H242677   5.291   5.381   8.529  0.8193 -0.3751  0.9574
 7040TIP3   OH242678   5.563   1.142   8.137  0.3231  0.0780  0.5350
 7040TIP3    H142679   5.473   1.171   8.154  0.0181 -0.7795  0.4292
 7040TIP3    H242680   5.614   1.179   8.209 -0.2520 -0.0659  1.0305
 7041TIP3   OH242681   6.388   5.942   8.260  0.3107 -0.4722  0.0048
 7041TIP3    H142682   6.418   5.967   8.348 -1.6083 -1.8284  1.1064
 7041TIP3    H242683   6.433   5.859   8.242  0.9540 -0.0349 -0.4711
 7042TIP3   OH242684   0.133   1.402   7.467 -0.3438  0.3996 -0.3734
 7042TIP3    H142685   0.122   1.380   7.374 -0.1588  2.4280 -0.9120
 7042TIP3    H242686   0.204   1.465   7.468 -0.9926  1.1373  1.0515
 7043TIP3   OH242687   2.217   6.083   2.102  0.0993 -0.1403  0.1187
 7043TIP3    H142688   2.192   6.158   2.048  2.0676 -0.5409 -1.5149
 7043TIP3    H242689   2.204   6.007   2.044 -0.5109 -0.9308  1.2536
 7044TIP3   OH242690   3.450   3.260   0.049 -0.2074 -0.4956  1.1696
 7044TIP3    H142691   3.469   3.322   0.119 -0.6058  1.2164 -0.1644
 7044TIP3    H242692   3.521   3.272  -0.014 -1.8063  0.8439 -0.5080
 7045TIP3   OH242693   0.075   2.612   0.186 -0.5962  0.2632  0.1637
 7045TIP3    H142694   0.136   2.686   0.182 -0.6451  0.3105  0.2935
 7045TIP3    H242695   0.126   2.538   0.152  0.3493 -0.2452  2.4914
 7046TIP3   OH242696   5.263   6.667   0.211  0.1297 -0.3905  0.3098
 7046TIP3    H142697   5.289   6.757   0.229 -1.4998  0.9328 -3.0195
 7046TIP3    H242698   5.167   6.668   0.217 -0.0317 -1.4216 -1.3733
 7047TIP3   OH242699   3.150   1.229   0.904 -1.1942  0.6289 -0.7269
 7047TIP3    H142700   3.141   1.134   0.911 -1.1541  0.5999 -1.0345
 7047TIP3    H242701   3.229   1.241   0.851  0.5541  0.8829  1.7909
 7048TIP3   OH242702   0.583   5.664   2.010 -0.0706  0.2697 -0.0399
 7048TIP3    H142703   0.667   5.627   1.981  1.4316 -0.4762  4.5030
 7048TIP3    H242704   0.607   5.745   2.055 -1.4593 -0.6815  2.6137
 7049TIP3   OH242705   0.846   2.594   8.657  0.0170  0.3657  0.3926
 7049TIP3    H142706   0.898   2.570   8.734  0.8951 -1.0233 -0.5928
 7049TIP3    H242707   0.847   2.516   8.602 -1.4747  0.9834 -0.5726
 7050TIP3   OH242708   5.585   2.504   0.492 -0.3652 -0.3551 -0.2282
 7050TIP3    H142709   5.622   2.462   0.414 -1.5422 -1.0640 -0.4288
 7050TIP3    H242710   5.617   2.594   0.488  0.9421 -0.8026 -0.6251
 7051TIP3   OH242711   5.857   6.144   7.135  0.4798  0.3587 -0.5631
 7051TIP3    H142712   5.878   6.096   7.055 -2.1759  0.2034 -1.2454
 7051TIP3    H242713   5.763   6.131   7.148  1.0584 -1.4630  3.8100
 7052TIP3   OH242714   2.116   2.094   1.506 -0.1284 -0.1605  0.5756
 7052TIP3    H142715   2.120   2.149   1.585  2.2913 -1.0206  1.1342
 7052TIP3    H242716   2.132   2.155   1.434 -1.3371  0.4640  0.7991
 7053TIP3   OH242717   6.461   2.470   1.479 -0.1832  0.1459  0.6359
 7053TIP3    H142718   6.551   2.465   1.511 -0.6997  0.5749  2.2699
 7053TIP3    H242719   6.408   2.480   1.559 -1.3933  3.9485 -0.4330
 7054TIP3   OH242720   3.244   6.594   7.664  0.0810  0.1902  0.6405
 7054TIP3    H142721   3.267   6.514   7.617 -0.7320  1.0275 -1.2454
 7054TIP3    H242722   3.328   6.627   7.696  0.6729 -0.3652 -0.2916
 7055TIP3   OH242723   4.717   3.378   1.308  0.7894  0.4836  0.0208
 7055TIP3    H142724   4.735   3.451   1.367  0.7877  0.4823  0.0228
 7055TIP3    H242725   4.700   3.304   1.366 -0.9942  0.8922  0.0756
 7056TIP3   OH242726   6.371   6.669   1.449  0.4558  0.3165 -0.5438
 7056TIP3    H142727   6.423   6.697   1.374 -1.2313  2.2816 -1.0739
 7056TIP3    H242728   6.284   6.653   1.413  0.0041 -0.2761  0.7450
 7057LIG     O142729   5.050   5.035   2.043  0.3374  0.6288 -0.1759
 7057LIG     O242730   5.058   5.284   2.025 -0.0303  0.1288 -0.0627
 7057LIG     O342731   4.884   5.274   1.878 -0.1202  0.5123  0.2252
 7057LIG     O442732   5.339   5.104   2.172 -0.7245  0.0987  0.3707
 7057LIG     O542733   5.381   5.034   1.901 -0.1038  0.8565  0.0943
 7057LIG     O642734   4.940   5.489   2.184  0.0927 -0.2628 -0.2919
 7057LIG     O742735   5.108   5.537   1.934  0.1219  0.5212  0.1425
 7057LIG     O842736   4.959   5.585   1.691 -0.1627  0.0260  0.0058
 7057LIG     O942737   5.115   5.304   2.303  0.1684  0.0820 -0.0903
 7057LIG    O1042738   5.003   4.990   1.766 -1.0512  0.6533  0.4251
 7057LIG    O1142739   4.998   5.316   1.535 -0.2634 -0.0162 -0.0900
 7057LIG     C142740   5.097   5.162   2.098 -0.1896 -0.3829  0.1266
 7057LIG     C242741   5.252   5.165   2.069 -0.2091  0.3295 -0.1235
 7057LIG     C342742   5.251   5.080   1.934 -0.9793  0.0626 -0.5607
 7057LIG     C442743   5.150   4.974   1.961 -0.5639  0.3907 -0.3519
 7057LIG     C542744   4.923   5.309   2.012  0.4186 -0.4208 -0.1205
 7057LIG     C642745   4.900   5.450   2.048 -0.0645 -0.0886  0.0776
 7057LIG     C742746   4.965   5.539   1.944 -0.1736 -0.6131  0.0519
 7057LIG     C842747   4.912   5.498   1.797 -1.1799 -0.0370  0.8046
 7057LIG     C942748   4.947   5.351   1.775  0.7233 -0.3038  0.0973
 7057LIG    C1042749   5.066   5.185   2.249  0.2800  0.5248  0.3407
 7057LIG    C1142750   5.090   4.904   1.839  0.4370 -0.4475 -0.6316
 7057LIG    C1242751   4.902   5.290   1.638 -0.1043 -0.1620  0.4841
 7057LIG     H142752   5.289   5.267   2.051  2.2833 -0.8092 -2.0729
 7057LIG     H242753   5.215   5.144   1.852  1.9251  2.3924 -0.1577
 7057LIG     H342754   5.197   4.894   2.022 -1.2734  1.6720  1.9895
 7057LIG     H442755   4.859   5.244   2.076 -1.6463  0.4081 -1.2448
 7057LIG     H542756   4.792   5.470   2.032  0.0880  1.3335  0.6746
 7057LIG     H642757   4.937   5.646   1.953 -0.0492 -0.4544 -1.2189
 7057LIG     H742758   4.803   5.506   1.814 -1.4270 -0.0191 -0.6874
 7057LIG     H842759   5.056   5.330   1.784  0.3911 -1.5702  1.6762
 7057LIG     H942760   4.956   5.171   2.261  0.2239  1.3975  0.9331
 7057LIG    H1042761   5.102   5.101   2.312 -1.7329 -0.6214  0.0424
 7057LIG    H1142762   5.170   4.873   1.768  1.6893 -3.0213  1.7201
 7057LIG    H1242763   5.049   4.807   1.873 -0.2759  0.6749  1.9630
 7057LIG    H1342764   4.897   5.179   1.645 -1.3350 -0.0904  1.0409
 7057LIG    H1442765   4.798   5.316   1.610  0.5508  1.3133 -0.7044
 7057LIG    H1542766   5.417   5.156   2.193  0.4440 -1.6197  0.4154
 7057LIG    H1642767   5.441   5.087   1.954 -0.0737 -1.8835  3.1197
 7057LIG    H1742768   4.875   5.553   2.213 -0.7270 -1.1478 -0.1150
 7057LIG    H1842769   5.140   5.570   2.019  2.3820 -0.6685 -0.1726
 7057LIG    H1942770   4.953   5.530   1.612 -0.9576  0.2274 -0.0747
 7057LIG    H2042771   5.077   5.373   2.248 -1.1013 -2.2642 -2.3842
 7057LIG    H2142772   4.949   5.022   1.839  0.3986  2.0734  0.9257
 7057LIG    H2242773   4.958   5.271   1.460  1.8956 -1.3902 -0.5142
   6.87071   6.87071   8.69745
