Title
42773
    1SAPS     N    1   3.671   2.317   6.385 -0.0689  1.0001 -0.0330
    1SAPS   HN1    2   3.765   2.273   6.387 -1.0867 -1.2810  2.5890
    1SAPS   HN2    3   3.655   2.318   6.487  1.9092  4.9977  0.4823
    1SAPS   HN3    4   3.596   2.260   6.342 -2.4834  2.6245  1.7467
    1SAPS   C12    5   3.668   2.456   6.333 -0.4315 -0.1917 -0.2893
    1SAPS  H12A    6   3.647   2.444   6.228  1.4807 -1.9299 -0.5304
    1SAPS   C13    7   3.548   2.542   6.381  0.4887 -0.0471  0.8305
    1SAPS  O13A    8   3.466   2.494   6.459  0.4586  0.2824 -0.0360
    1SAPS  O13B    9   3.558   2.670   6.368 -0.0853 -0.0276  0.4176
    1SAPS   C11   10   3.802   2.530   6.367 -0.0242  0.2946  0.1080
    1SAPS  H11A   11   3.822   2.530   6.476  0.6874  1.2699 -0.0160
    1SAPS  H11B   12   3.790   2.634   6.330 -0.2430  0.8741  1.7587
    1SAPS     P   13   4.063   2.490   6.348  0.0450 -0.0342  0.1863
    1SAPS   O13   14   4.074   2.518   6.496 -0.6179 -0.2483  1.0337
    1SAPS   O14   15   4.142   2.373   6.298 -0.4141  0.2244 -0.4529
    1SAPS   O12   16   3.916   2.469   6.299  0.1783  0.1453 -0.2835
    1SAPS   O11   17   4.106   2.623   6.275  0.1235  0.6448  0.0317
    1SAPS    C1   18   4.032   2.668   6.159 -0.1694 -0.2892  0.6463
    1SAPS    HA   19   3.922   2.656   6.168 -0.1981 -0.2840  0.3260
    1SAPS    HB   20   4.060   2.775   6.157  1.1179 -0.6007 -1.1595
    1SAPS    C2   21   4.082   2.611   6.028 -0.4191  0.3040  0.5730
    1SAPS    HS   22   4.035   2.656   5.938  0.3991 -1.9434 -1.0411
    1SAPS   O21   23   4.060   2.470   6.023 -0.1783 -0.2419  0.0830
    1SAPS   C21   24   3.935   2.428   5.984 -0.6458 -0.0754  0.4493
    1SAPS   O22   25   3.852   2.505   5.950  0.2196  0.3497 -0.1240
    1SAPS   C22   26   3.916   2.276   6.007 -0.2019 -0.4965 -0.3900
    1SAPS   H2R   27   3.982   2.255   6.095  1.5291  2.3652 -0.8749
    1SAPS   H2S   28   3.810   2.264   6.038  0.3154  0.0825  1.8052
    1SAPS    C3   29   4.238   2.636   6.014  0.0511 -0.1011 -0.7191
    1SAPS    HX   30   4.282   2.593   6.107 -0.9440  0.7837  0.1888
    1SAPS    HY   31   4.249   2.746   6.024  0.6445 -0.2906  1.0688
    1SAPS   O31   32   4.303   2.591   5.892 -0.1384  0.2385 -0.3024
    1SAPS   C31   33   4.374   2.479   5.894  0.1125 -0.9799 -0.1769
    1SAPS   O32   34   4.393   2.420   5.997  0.1795  0.0801 -0.5851
    1SAPS   C32   35   4.433   2.443   5.757  0.0976  0.3502  0.0059
    1SAPS   H2X   36   4.459   2.335   5.761 -0.3272  0.0850 -2.6380
    1SAPS   H2Y   37   4.527   2.501   5.747 -0.6384  1.7522  0.7907
    1SAPS   C23   38   3.945   2.200   5.876 -0.5531  0.0089  0.0628
    1SAPS   H3R   39   3.885   2.238   5.791  0.2351 -1.0331 -1.0154
    1SAPS   H3S   40   3.922   2.092   5.888  0.6463 -0.3717 -0.7888
    1SAPS   C24   41   4.089   2.213   5.832  0.0233 -0.2220  0.0442
    1SAPS   H4R   42   4.116   2.321   5.838  0.2333 -0.2513 -0.3244
    1SAPS   H4S   43   4.108   2.188   5.725  1.8439 -0.4853  0.3826
    1SAPS   C25   44   4.181   2.137   5.928 -0.2175 -0.4349  0.0937
    1SAPS   H5R   45   4.174   2.161   6.035 -0.9785 -2.3833  0.5241
    1SAPS   C26   46   4.253   2.034   5.886  0.3397  0.2698 -0.4890
    1SAPS   H6R   47   4.322   1.993   5.961 -0.6046  1.5711  1.1470
    1SAPS   C27   48   4.267   1.978   5.745  0.6328  0.0253  0.0564
    1SAPS   H7R   49   4.325   2.049   5.682 -1.0264 -0.0686 -1.6994
    1SAPS   H7S   50   4.172   1.964   5.689  0.5205  2.4883 -0.4822
    1SAPS   C28   51   4.341   1.844   5.757 -0.8083  0.0210 -0.4898
    1SAPS   H8R   52   4.344   1.798   5.857  0.5187 -1.7704 -1.3123
    1SAPS   C29   53   4.406   1.787   5.658 -0.5950  0.3048  0.0358
    1SAPS   H9R   54   4.448   1.686   5.670  2.3945  1.6578  2.0861
    1SAPS  C210   55   4.392   1.830   5.511 -1.1246  0.0219 -0.1343
    1SAPS  H10R   56   4.282   1.839   5.496 -1.1373  1.2418  0.6239
    1SAPS  H10S   57   4.414   1.747   5.440 -2.1526 -0.0552 -0.3812
    1SAPS  C211   58   4.482   1.947   5.478  0.7297 -0.4988  0.2978
    1SAPS  H11R   59   4.505   2.031   5.545  2.4757  1.1858 -2.2209
    1SAPS  C212   60   4.524   1.975   5.358  0.8460 -0.0552  0.2533
    1SAPS  H12R   61   4.590   2.063   5.356  0.2547  0.6773  4.3570
    1SAPS  C213   62   4.484   1.906   5.226  0.2384 -0.4459  0.0114
    1SAPS  H13R   63   4.380   1.867   5.234  0.2676 -0.5202  0.0298
    1SAPS  H13S   64   4.555   1.824   5.205 -0.3972 -0.2721 -3.3392
    1SAPS  C214   65   4.488   2.011   5.116 -0.5288  0.1532  0.2726
    1SAPS  H14R   66   4.476   2.117   5.142 -1.1509  0.1347  0.0812
    1SAPS  C215   67   4.534   1.988   4.990  0.5886  0.0413  0.8757
    1SAPS  H15R   68   4.523   2.062   4.909 -0.8620 -1.8602 -0.7989
    1SAPS  C216   69   4.561   1.858   4.931  0.2524  0.1410  0.2118
    1SAPS  H16R   70   4.515   1.774   4.989  0.3561 -0.4722 -0.5748
    1SAPS  H16S   71   4.670   1.837   4.919  0.6087  1.6085  0.6970
    1SAPS  C217   72   4.495   1.866   4.792 -0.0036  0.5262 -0.0044
    1SAPS  H17R   73   4.555   1.938   4.731 -0.1795  0.4449 -0.2724
    1SAPS  H17S   74   4.395   1.913   4.794  0.5739  1.8215 -0.2262
    1SAPS  C218   75   4.485   1.733   4.722  0.0236  0.2548 -0.4279
    1SAPS  H18R   76   4.426   1.668   4.790 -0.4930  1.7348  0.5930
    1SAPS  H18S   77   4.588   1.705   4.691 -0.3776  0.9379 -2.4825
    1SAPS  C219   78   4.401   1.749   4.590 -0.7483  0.0418  0.0767
    1SAPS  H19R   79   4.316   1.820   4.601 -0.6335 -0.1218  2.6667
    1SAPS  H19S   80   4.352   1.651   4.567  0.0813  0.4709 -4.3606
    1SAPS  C220   81   4.479   1.788   4.473 -0.8630 -0.4198  0.0380
    1SAPS  H20R   82   4.403   1.803   4.393 -1.7079 -0.8173  0.7547
    1SAPS  H20S   83   4.539   1.698   4.445 -0.6252 -0.9047  1.9520
    1SAPS  H20T   84   4.544   1.877   4.489 -0.6981 -0.8988  2.3416
    1SAPS   C33   85   4.338   2.474   5.646 -0.5147 -0.4264  0.4163
    1SAPS   H3X   86   4.325   2.583   5.629 -0.8688 -0.7459 -1.7535
    1SAPS   H3Y   87   4.240   2.427   5.668 -1.1582  1.5802  2.1605
    1SAPS   C34   88   4.391   2.411   5.518  1.2437  0.2154  0.6429
    1SAPS   H4X   89   4.301   2.391   5.456  0.4927  2.9031  0.7536
    1SAPS   H4Y   90   4.440   2.313   5.535  1.2675  0.2436  0.7321
    1SAPS   C35   91   4.485   2.486   5.424  0.1493  0.6140 -0.1834
    1SAPS   H5X   92   4.588   2.502   5.461  0.6005  2.2452 -2.0171
    1SAPS   H5Y   93   4.430   2.583   5.412 -0.9805  0.0541  0.2914
    1SAPS   C36   94   4.497   2.421   5.286 -0.6918 -0.4967  0.1910
    1SAPS   H6X   95   4.398   2.398   5.243 -0.5556  1.5810 -1.3845
    1SAPS   H6Y   96   4.549   2.323   5.297  0.6978  0.1324 -0.5157
    1SAPS   C37   97   4.584   2.493   5.175 -0.1378 -0.3723 -0.0631
    1SAPS   H7X   98   4.678   2.526   5.224  0.3708 -1.2976 -0.3926
    1SAPS   H7Y   99   4.532   2.576   5.123  1.0812 -1.1290 -2.6409
    1SAPS   C38  100   4.640   2.406   5.058 -0.0841  0.6258  0.3644
    1SAPS   H8X  101   4.556   2.358   5.003 -0.0616  1.8168 -0.7571
    1SAPS   H8Y  102   4.711   2.336   5.106  1.1252  3.2670  2.7359
    1SAPS   C39  103   4.731   2.493   4.961  0.2125  0.0687 -0.5041
    1SAPS   H9X  104   4.809   2.539   5.025 -0.7126  1.1222 -0.0941
    1SAPS   H9Y  105   4.669   2.580   4.930 -1.0901 -0.0034  1.7384
    1SAPS  C310  106   4.793   2.404   4.854 -0.5266  0.3023 -0.2607
    1SAPS  H10X  107   4.719   2.342   4.800 -0.3724  1.4517 -1.8455
    1SAPS  H10Y  108   4.869   2.333   4.893 -0.6363 -0.3917 -1.2887
    1SAPS  C311  109   4.873   2.481   4.745 -0.0650  0.6481 -0.6626
    1SAPS  H11X  110   4.964   2.519   4.796 -0.3914  0.1340  0.3242
    1SAPS  H11Y  111   4.819   2.574   4.719  0.3557  1.2398  0.5111
    1SAPS  C312  112   4.892   2.381   4.625 -0.0765 -0.1745  0.9790
    1SAPS  H12X  113   4.798   2.337   4.586  0.2874 -0.2182  0.1046
    1SAPS  H12Y  114   4.960   2.299   4.654  0.4722 -1.1557 -2.5276
    1SAPS  C313  115   4.960   2.460   4.510 -1.0689  0.2057 -0.2751
    1SAPS  H13X  116   5.065   2.474   4.544  0.6134 -0.3724 -4.6268
    1SAPS  H13Y  117   4.914   2.561   4.497  0.0965  0.4226 -3.6110
    1SAPS  C314  118   4.989   2.375   4.383 -0.6913 -0.3459  0.3426
    1SAPS  H14X  119   4.892   2.348   4.336 -1.3118  1.2686  0.6122
    1SAPS  H14Y  120   5.051   2.288   4.411  0.4681  0.0309 -0.8937
    1SAPS  C315  121   5.073   2.443   4.274 -0.1238  0.1045  0.8385
    1SAPS  H15X  122   5.135   2.517   4.328  2.8964 -2.1062  0.6802
    1SAPS  H15Y  123   5.002   2.494   4.207  0.0624  0.5605  0.9856
    1SAPS  C316  124   5.169   2.355   4.194  0.9423  0.6673 -0.5005
    1SAPS  H16X  125   5.117   2.258   4.182  0.5101  0.4483  2.3053
    1SAPS  H16Y  126   5.238   2.320   4.273 -1.3777  2.2178  2.4605
    1SAPS  C317  127   5.227   2.413   4.068 -0.2717 -0.5966  0.2815
    1SAPS  H17X  128   5.144   2.421   3.995 -0.6259 -0.5789  0.6789
    1SAPS  H17Y  129   5.281   2.334   4.012 -1.0773  0.6077 -2.3733
    1SAPS  C318  130   5.306   2.543   4.089  1.1040  0.1506  0.2605
    1SAPS  H18X  131   5.393   2.527   4.156 -0.5258 -0.3282  2.3367
    1SAPS  H18Y  132   5.231   2.612   4.133 -0.9531  0.4467 -3.2757
    1SAPS  H18Z  133   5.334   2.591   3.992  0.6632  1.1169  0.6004
    2SAPS     N  134   4.715   4.018   6.407  0.1557  0.5449  0.4320
    2SAPS   HN1  135   4.624   3.969   6.408 -0.0330  0.8883  0.1800
    2SAPS   HN2  136   4.770   3.994   6.322  0.0694 -1.0842  0.8084
    2SAPS   HN3  137   4.766   3.982   6.490 -1.4030  1.4581  1.8461
    2SAPS   C12  138   4.705   4.160   6.425 -0.2422 -0.3425  0.1886
    2SAPS  H12A  139   4.644   4.167   6.513 -0.6408 -0.1320 -0.0989
    2SAPS   C13  140   4.851   4.232   6.449  1.0298  0.0776 -0.4511
    2SAPS  O13A  141   4.952   4.161   6.459 -0.2311 -0.3052  0.1522
    2SAPS  O13B  142   4.842   4.355   6.469  0.5613 -0.1364  0.6311
    2SAPS   C11  143   4.639   4.232   6.300 -0.0672 -0.5217  0.5159
    2SAPS  H11A  144   4.709   4.223   6.214 -1.9380  1.6116 -1.3534
    2SAPS  H11B  145   4.632   4.338   6.332  0.3248 -0.6114  0.9062
    2SAPS     P  146   4.378   4.234   6.290 -0.0720  0.8790 -0.3142
    2SAPS   O13  147   4.286   4.120   6.319  0.0476 -0.0565  0.1290
    2SAPS   O14  148   4.386   4.341   6.392  0.1845 -0.3075  0.2232
    2SAPS   O12  149   4.514   4.165   6.263  0.4594  0.2143 -0.0497
    2SAPS   O11  150   4.342   4.290   6.152 -0.7412  0.2871 -0.0488
    2SAPS    C1  151   4.304   4.202   6.047  0.2932  0.0185 -0.0704
    2SAPS    HA  152   4.226   4.129   6.080 -1.0629  0.8349 -1.3769
    2SAPS    HB  153   4.260   4.268   5.969 -0.4467 -0.2926  0.0698
    2SAPS    C2  154   4.423   4.131   5.963  0.2044 -0.5286 -0.0730
    2SAPS    HS  155   4.462   4.056   6.035 -0.7162 -1.3032 -0.3760
    2SAPS   O21  156   4.513   4.239   5.919  0.2038 -0.1524 -0.2379
    2SAPS   C21  157   4.643   4.210   5.905 -0.4471  0.0749 -0.2716
    2SAPS   O22  158   4.697   4.105   5.935  0.4492 -0.3984 -0.1012
    2SAPS   C22  159   4.725   4.325   5.850 -0.5467  0.8005  0.4794
    2SAPS   H2R  160   4.681   4.420   5.885 -0.9199  1.0008 -0.5090
    2SAPS   H2S  161   4.828   4.317   5.891 -0.4580  1.1904  0.3395
    2SAPS    C3  162   4.367   4.059   5.839  0.2653  0.5208 -0.3432
    2SAPS    HX  163   4.315   4.141   5.785  1.6752  0.5719 -1.6747
    2SAPS    HY  164   4.289   3.984   5.863  1.1436 -0.5615 -0.8300
    2SAPS   O31  165   4.476   4.006   5.761  0.1604 -0.1240 -0.2497
    2SAPS   C31  166   4.517   3.885   5.795 -1.2235  0.6914  0.6370
    2SAPS   O32  167   4.464   3.815   5.877  0.0456  0.0018 -0.3806
    2SAPS   C32  168   4.649   3.846   5.722  0.7055 -0.8110  0.2131
    2SAPS   H2X  169   4.649   3.736   5.733 -2.0237 -1.0283 -0.9066
    2SAPS   H2Y  170   4.736   3.888   5.776  0.9521 -1.4015  0.2787
    2SAPS   C23  171   4.729   4.328   5.695 -0.1265 -1.0609 -0.3340
    2SAPS   H3R  172   4.760   4.232   5.649 -1.2404 -1.6012  0.0103
    2SAPS   H3S  173   4.815   4.393   5.666 -0.0199 -1.2858 -0.5279
    2SAPS   C24  174   4.589   4.370   5.638  0.0870 -0.1093 -0.1023
    2SAPS   H4R  175   4.571   4.479   5.647  2.3157  0.3265 -0.3712
    2SAPS   H4S  176   4.509   4.315   5.691 -0.3141 -0.9310 -1.4912
    2SAPS   C25  177   4.561   4.331   5.493 -0.2638 -0.2124 -0.3412
    2SAPS   H5R  178   4.548   4.222   5.487  0.0820 -0.3217  0.7084
    2SAPS   C26  179   4.540   4.412   5.386 -0.7521  0.0866 -0.9557
    2SAPS   H6R  180   4.499   4.361   5.297  0.1347 -1.1094 -0.6930
    2SAPS   C27  181   4.555   4.562   5.381  0.3087 -0.5286 -0.0806
    2SAPS   H7R  182   4.521   4.607   5.476  0.0499 -3.4337  1.2980
    2SAPS   H7S  183   4.476   4.597   5.311 -0.4098 -2.2746 -0.1856
    2SAPS   C28  184   4.685   4.622   5.339  0.0972 -0.3653  0.5866
    2SAPS   H8R  185   4.727   4.697   5.409 -2.4525  1.6969  0.0598
    2SAPS   C29  186   4.761   4.591   5.230  0.6616 -0.3117  0.2148
    2SAPS   H9R  187   4.864   4.628   5.224  0.3068  0.4447 -2.3410
    2SAPS  C210  188   4.711   4.492   5.134 -0.7170  0.0550  0.6252
    2SAPS  H10R  189   4.605   4.521   5.119 -0.5465  0.0251 -0.7496
    2SAPS  H10S  190   4.723   4.386   5.162  2.7409  0.1778  0.0472
    2SAPS  C211  191   4.765   4.503   4.993 -0.3531  0.2224  0.5882
    2SAPS  H11R  192   4.747   4.597   4.938  0.6664 -0.0478 -0.2273
    2SAPS  C212  193   4.854   4.422   4.936 -0.1537  0.0181 -0.4584
    2SAPS  H12R  194   4.884   4.445   4.832 -1.3947  0.7145 -0.6823
    2SAPS  C213  195   4.914   4.294   4.990 -0.1671 -0.1513  0.1358
    2SAPS  H13R  196   4.906   4.206   4.923 -0.3127 -1.2534  1.5436
    2SAPS  H13S  197   4.860   4.255   5.079 -2.8296 -1.0112 -1.7302
    2SAPS  C214  198   5.059   4.310   5.025  0.0188  0.3413  0.3934
    2SAPS  H14R  199   5.129   4.301   4.941 -2.0823  1.6572 -1.6452
    2SAPS  C215  200   5.119   4.320   5.152  0.4456  0.3398  1.3778
    2SAPS  H15R  201   5.225   4.315   5.181  0.2706  1.8772  2.3938
    2SAPS  C216  202   5.042   4.336   5.282  0.6617  0.8028  1.3221
    2SAPS  H16R  203   4.947   4.281   5.262  0.6024  1.5039 -0.5028
    2SAPS  H16S  204   5.001   4.439   5.286 -1.1934  0.1313  0.8516
    2SAPS  C217  205   5.112   4.298   5.411 -0.4050 -0.3509 -0.6789
    2SAPS  H17R  206   5.065   4.355   5.494  1.1762  1.1461 -0.7436
    2SAPS  H17S  207   5.218   4.332   5.411 -0.0141 -1.5140 -0.1090
    2SAPS  C218  208   5.121   4.146   5.433  0.2530 -0.1226  0.5770
    2SAPS  H18R  209   5.169   4.111   5.339 -0.4836 -1.6875  0.7490
    2SAPS  H18S  210   5.012   4.122   5.430 -0.0871  1.3310  0.8555
    2SAPS  C219  211   5.185   4.114   5.562  0.6378 -0.0636 -0.7424
    2SAPS  H19R  212   5.271   4.180   5.584  1.1730 -0.9560 -0.0887
    2SAPS  H19S  213   5.217   4.007   5.557 -0.9240 -0.5002 -2.5659
    2SAPS  C220  214   5.088   4.117   5.693 -0.2814  0.9789 -0.1601
    2SAPS  H20R  215   5.001   4.053   5.669  1.6644 -1.8255 -0.1306
    2SAPS  H20S  216   5.063   4.221   5.722 -1.0390  0.6566  0.3516
    2SAPS  H20T  217   5.146   4.084   5.782 -1.2612 -0.6876 -0.1105
    2SAPS   C33  218   4.637   3.890   5.568 -0.9696 -0.0773  0.1553
    2SAPS   H3X  219   4.625   3.997   5.543  2.0638  0.4219  0.4695
    2SAPS   H3Y  220   4.547   3.846   5.521 -3.0351  2.6976  1.2800
    2SAPS   C34  221   4.766   3.839   5.489 -0.4519  0.3464  0.5278
    2SAPS   H4X  222   4.775   3.731   5.515 -0.5386 -0.6620 -3.0975
    2SAPS   H4Y  223   4.859   3.884   5.529  0.4844  0.6003 -1.7577
    2SAPS   C35  224   4.744   3.847   5.338  0.3388 -0.4789  1.0388
    2SAPS   H5X  225   4.720   3.955   5.329  2.7975  0.0169 -0.3807
    2SAPS   H5Y  226   4.665   3.782   5.296  1.2643 -0.8529 -0.1919
    2SAPS   C36  227   4.877   3.811   5.264  0.4411  0.5244 -0.1502
    2SAPS   H6X  228   4.891   3.703   5.239  1.1038  0.6766 -0.4544
    2SAPS   H6Y  229   4.957   3.842   5.335 -0.3942  0.3539  0.9105
    2SAPS   C37  230   4.901   3.890   5.127 -0.4177 -0.6027  0.7747
    2SAPS   H7X  231   5.006   3.891   5.092 -0.8417  2.6127 -0.7098
    2SAPS   H7Y  232   4.885   3.998   5.145  1.0381  0.2901 -2.6382
    2SAPS   C38  233   4.816   3.839   5.007  0.9830  0.6981  0.4067
    2SAPS   H8X  234   4.719   3.871   5.050  0.7433 -0.5954  0.8480
    2SAPS   H8Y  235   4.819   3.729   4.994  0.6090  0.4590  2.0738
    2SAPS   C39  236   4.826   3.906   4.871 -0.3359 -1.0885  0.1137
    2SAPS   H9X  237   4.799   4.013   4.881 -1.1023 -0.7219 -4.1332
    2SAPS   H9Y  238   4.749   3.870   4.800 -0.1274  0.4072 -0.8864
    2SAPS  C310  239   4.961   3.906   4.801 -0.5456 -0.6136  1.0209
    2SAPS  H10X  240   4.978   3.797   4.788 -0.2134 -0.3735 -0.9011
    2SAPS  H10Y  241   5.051   3.943   4.853  1.8431 -1.5390 -2.1195
    2SAPS  C311  242   4.976   3.977   4.662  0.3268  0.2933 -0.2108
    2SAPS  H11X  243   4.897   3.937   4.594  1.6878 -1.8193 -0.6590
    2SAPS  H11Y  244   5.080   3.961   4.627  0.1350 -2.5188  0.2450
    2SAPS  C312  245   4.954   4.123   4.679  0.2165  0.0282  0.1750
    2SAPS  H12X  246   5.020   4.159   4.761  2.1641 -1.1203 -0.8037
    2SAPS  H12Y  247   4.847   4.149   4.692  0.1453 -0.0225 -0.2948
    2SAPS  C313  248   4.991   4.211   4.551 -0.1759  0.1671 -0.1475
    2SAPS  H13X  249   5.092   4.199   4.506  1.0797  1.9023  2.0014
    2SAPS  H13Y  250   4.987   4.317   4.586  0.3563 -1.1144  4.4805
    2SAPS  C314  251   4.880   4.187   4.449  0.1334  0.7949  0.0463
    2SAPS  H14X  252   4.785   4.197   4.507  1.1957  1.2269  1.7820
    2SAPS  H14Y  253   4.871   4.083   4.411 -1.4286  1.1975 -0.8015
    2SAPS  C315  254   4.871   4.273   4.322 -0.4940  0.3547  0.9476
    2SAPS  H15X  255   4.968   4.256   4.271 -1.3337  0.8306 -0.8910
    2SAPS  H15Y  256   4.875   4.380   4.352  2.8079  0.3412  0.9153
    2SAPS  C316  257   4.756   4.234   4.226  0.8687  0.5264  0.2278
    2SAPS  H16X  258   4.665   4.218   4.288 -0.0981 -0.4177 -1.3592
    2SAPS  H16Y  259   4.781   4.144   4.166 -0.0002  2.2205 -2.9364
    2SAPS  C317  260   4.716   4.348   4.137  0.1121 -0.3878  0.4553
    2SAPS  H17X  261   4.812   4.367   4.085  0.1460 -2.6360 -0.4267
    2SAPS  H17Y  262   4.697   4.437   4.200 -0.5223  0.5066 -0.9649
    2SAPS  C318  263   4.599   4.311   4.040 -0.1165  0.6798 -0.0670
    2SAPS  H18X  264   4.644   4.231   3.978  0.6541  1.0345  0.0207
    2SAPS  H18Y  265   4.568   4.401   3.982 -1.1282  0.6709  0.4297
    2SAPS  H18Z  266   4.510   4.281   4.099 -1.6723  2.2677 -1.4855
    3SAPS     N  267   4.688   3.646   6.481 -0.1520 -0.0072 -0.1649
    3SAPS   HN1  268   4.733   3.553   6.473  1.0048  0.6273 -1.5832
    3SAPS   HN2  269   4.700   3.689   6.387 -0.7681 -0.8668 -0.6507
    3SAPS   HN3  270   4.743   3.717   6.533  0.6679 -0.7419 -0.0110
    3SAPS   C12  271   4.557   3.623   6.530  1.2243 -0.3386  0.3586
    3SAPS  H12A  272   4.562   3.608   6.637 -1.6740  1.2806  0.8380
    3SAPS   C13  273   4.468   3.758   6.517 -0.0467 -0.4374 -0.5565
    3SAPS  O13A  274   4.519   3.857   6.464 -0.5542  0.1313  0.0490
    3SAPS  O13B  275   4.347   3.742   6.523  0.5712  0.4862  0.6056
    3SAPS   C11  276   4.511   3.491   6.464  0.2584 -0.7798  0.1880
    3SAPS  H11A  277   4.500   3.502   6.354  1.8926 -0.5594  0.0289
    3SAPS  H11B  278   4.409   3.483   6.509 -0.5839  2.0003 -0.9738
    3SAPS     P  279   4.549   3.240   6.509  0.5099 -0.1235  0.2301
    3SAPS   O13  280   4.571   3.193   6.650  0.4675  0.0852  0.5028
    3SAPS   O14  281   4.415   3.216   6.456  0.4034  0.0518 -0.3482
    3SAPS   O12  282   4.596   3.389   6.512  0.3919  0.1042  0.6040
    3SAPS   O11  283   4.654   3.164   6.420  0.1941 -0.3273  0.2537
    3SAPS    C1  284   4.661   3.166   6.279 -0.4809  0.4312  0.4749
    3SAPS    HA  285   4.707   3.074   6.238  0.3767  0.8576  0.4614
    3SAPS    HB  286   4.560   3.181   6.234  0.6632 -0.1479 -2.5279
    3SAPS    C2  287   4.748   3.296   6.236  0.4566  0.1677  0.1400
    3SAPS    HS  288   4.706   3.380   6.296 -1.9573 -0.0875 -1.0437
    3SAPS   O21  289   4.718   3.309   6.095  0.2646  0.1843 -0.2192
    3SAPS   C21  290   4.685   3.423   6.053  0.0197 -1.4153  0.2869
    3SAPS   O22  291   4.677   3.527   6.112  0.7436 -0.1034 -0.6946
    3SAPS   C22  292   4.652   3.427   5.896  0.1133 -0.3791 -0.0564
    3SAPS   H2R  293   4.599   3.525   5.884 -2.2884 -1.6247 -0.2732
    3SAPS   H2S  294   4.747   3.443   5.842 -0.3092 -0.3810 -0.8115
    3SAPS    C3  295   4.898   3.275   6.252 -0.0659  0.6917 -0.6284
    3SAPS    HX  296   4.928   3.173   6.222  3.3695  1.6752 -0.9922
    3SAPS    HY  297   4.922   3.276   6.361 -1.8561 -0.8188 -0.1895
    3SAPS   O31  298   4.975   3.372   6.170  0.1502 -0.0459 -0.3049
    3SAPS   C31  299   5.000   3.487   6.234  0.2577 -0.2617 -0.1076
    3SAPS   O32  300   4.956   3.522   6.342  0.2771 -0.4348 -0.2102
    3SAPS   C32  301   5.084   3.577   6.144 -0.0295 -0.0813  0.7406
    3SAPS   H2X  302   5.118   3.529   6.050  1.5791 -0.6058  1.5522
    3SAPS   H2Y  303   5.173   3.624   6.191  0.1333 -0.9399  1.3046
    3SAPS   C23  304   4.582   3.308   5.828 -0.3820 -0.5201 -0.4957
    3SAPS   H3R  305   4.490   3.273   5.880 -0.7822  1.3567  0.1394
    3SAPS   H3S  306   4.662   3.233   5.848 -1.1146 -0.7968  1.6835
    3SAPS   C24  307   4.541   3.336   5.689  0.6963 -0.5460 -0.0405
    3SAPS   H4R  308   4.602   3.413   5.636  0.4637 -0.5752 -0.3530
    3SAPS   H4S  309   4.442   3.385   5.695  1.5718  1.5511 -1.3664
    3SAPS   C25  310   4.541   3.208   5.607 -0.8908  0.2848  0.2006
    3SAPS   H5R  311   4.635   3.160   5.575 -0.7958  0.9190 -0.5043
    3SAPS   C26  312   4.430   3.156   5.555  0.1960 -0.0215  0.7868
    3SAPS   H6R  313   4.438   3.056   5.511 -0.8523  0.2196  0.0090
    3SAPS   C27  314   4.288   3.206   5.582  0.1746  0.0566  0.2329
    3SAPS   H7R  315   4.216   3.195   5.498 -1.3204  2.4679  1.1107
    3SAPS   H7S  316   4.275   3.316   5.590 -2.4942 -0.2476  1.0926
    3SAPS   C28  317   4.237   3.148   5.715  0.1188  0.6071 -0.3244
    3SAPS   H8R  318   4.221   3.211   5.803  0.0109  0.1506 -0.0151
    3SAPS   C29  319   4.199   3.024   5.734  0.0042  0.3651  0.3753
    3SAPS   H9R  320   4.176   2.985   5.834  1.1139  1.9762  1.3043
    3SAPS  C210  321   4.197   2.911   5.634  0.3045  0.0729  0.3178
    3SAPS  H10R  322   4.283   2.851   5.671  0.2177 -0.2287  0.0399
    3SAPS  H10S  323   4.221   2.940   5.529  0.4879 -2.5633 -0.4487
    3SAPS  C211  324   4.071   2.824   5.621 -0.8153  0.1096  0.0589
    3SAPS  H11R  325   3.995   2.854   5.694  1.0431 -0.1710  2.2155
    3SAPS  C212  326   4.045   2.730   5.524 -0.0270 -0.3043  0.3304
    3SAPS  H12R  327   3.942   2.691   5.519  0.4970 -1.6514 -2.8245
    3SAPS  C213  328   4.141   2.679   5.412  1.1426  0.0549 -1.2073
    3SAPS  H13R  329   4.170   2.572   5.423  0.4225 -0.1638 -1.4033
    3SAPS  H13S  330   4.230   2.744   5.398 -0.9806  2.7520 -3.3244
    3SAPS  C214  331   4.060   2.685   5.284 -0.2152  0.1865  0.9819
    3SAPS  H14R  332   3.954   2.659   5.297  0.4667 -3.3666  0.3559
    3SAPS  C215  333   4.112   2.726   5.168  0.3207  0.5898  0.4366
    3SAPS  H15R  334   4.038   2.727   5.087 -1.2682 -1.4089  1.7472
    3SAPS  C216  335   4.256   2.757   5.132 -0.3851 -0.0310 -0.9094
    3SAPS  H16R  336   4.286   2.708   5.037 -1.1603 -0.4343 -0.9594
    3SAPS  H16S  337   4.336   2.731   5.204 -2.2314 -0.6959  1.0154
    3SAPS  C217  338   4.284   2.904   5.097  0.7622 -0.0303 -0.9057
    3SAPS  H17R  339   4.280   2.953   5.197 -1.2372  0.2842 -1.0998
    3SAPS  H17S  340   4.203   2.950   5.037 -0.2878  1.7890  1.7108
    3SAPS  C218  341   4.419   2.918   5.038  0.6689  0.3032  0.1869
    3SAPS  H18R  342   4.427   2.865   4.941 -1.3184  0.8443 -0.3029
    3SAPS  H18S  343   4.474   2.854   5.111 -0.8113  0.4411  1.4795
    3SAPS  C219  344   4.482   3.061   5.045 -0.1959 -0.1089 -0.1315
    3SAPS  H19R  345   4.586   3.068   5.005  0.2067  0.6849  0.9918
    3SAPS  H19S  346   4.420   3.128   4.982 -0.2357  1.3998  1.4201
    3SAPS  C220  347   4.505   3.113   5.179  0.3946 -0.1313 -0.1033
    3SAPS  H20R  348   4.590   3.068   5.233 -0.5824 -2.0446 -0.0874
    3SAPS  H20S  349   4.426   3.078   5.250 -0.6467  2.7282  0.2873
    3SAPS  H20T  350   4.510   3.224   5.178 -0.9151 -0.0520 -0.0226
    3SAPS   C33  351   5.000   3.696   6.107  0.2283 -0.2249  0.3059
    3SAPS   H3X  352   4.953   3.748   6.193 -0.1348 -2.4971  1.5589
    3SAPS   H3Y  353   4.915   3.658   6.046 -0.7570  0.7233  1.0529
    3SAPS   C34  354   5.076   3.800   6.025  0.2649  0.2487  0.6131
    3SAPS   H4X  355   5.164   3.842   6.079  0.2758  1.9638 -0.6681
    3SAPS   H4Y  356   5.006   3.884   6.006  0.5623  0.3951  0.1625
    3SAPS   C35  357   5.143   3.753   5.886  0.2085  0.1191  0.5000
    3SAPS   H5X  358   5.174   3.854   5.851  0.2667  0.4024  1.3359
    3SAPS   H5Y  359   5.229   3.688   5.909  1.1227  0.8973 -0.6113
    3SAPS   C36  360   5.031   3.704   5.791 -0.2051 -0.4326 -0.1555
    3SAPS   H6X  361   4.952   3.782   5.797 -1.6498 -1.9035  1.0972
    3SAPS   H6Y  362   4.996   3.601   5.812 -0.2457 -0.4037 -0.0805
    3SAPS   C37  363   5.066   3.709   5.638  0.1858  0.0408  0.2890
    3SAPS   H7X  364   5.072   3.820   5.628  1.8351 -0.1464 -1.1156
    3SAPS   H7Y  365   4.980   3.653   5.595  0.7214  0.1300 -0.9286
    3SAPS   C38  366   5.190   3.631   5.607 -0.0462 -0.3658 -0.2695
    3SAPS   H8X  367   5.171   3.533   5.656 -2.2047  0.1876  0.1206
    3SAPS   H8Y  368   5.271   3.679   5.666 -1.8168  0.4592  1.6174
    3SAPS   C39  369   5.237   3.640   5.461 -0.1507 -0.2930  0.3491
    3SAPS   H9X  370   5.153   3.602   5.399  0.1250  0.4444 -0.4893
    3SAPS   H9Y  371   5.323   3.578   5.429 -1.9757 -1.6540 -2.2512
    3SAPS  C310  372   5.262   3.770   5.395 -0.7540  0.1277 -0.5289
    3SAPS  H10X  373   5.344   3.830   5.440  0.2528 -1.4188 -0.2117
    3SAPS  H10Y  374   5.176   3.839   5.406 -0.6185  0.0988  0.9331
    3SAPS  C311  375   5.292   3.751   5.242 -0.3398 -1.5178 -0.3713
    3SAPS  H11X  376   5.196   3.725   5.191 -1.3495 -0.9310  1.1777
    3SAPS  H11Y  377   5.365   3.667   5.231  1.3672 -0.4735  2.0382
    3SAPS  C312  378   5.349   3.874   5.178 -0.0422 -0.7618  0.2068
    3SAPS  H12X  379   5.460   3.875   5.168  0.1230 -1.1985  1.7764
    3SAPS  H12Y  380   5.333   3.972   5.227  2.0357 -0.9219  1.3322
    3SAPS  C313  381   5.304   3.884   5.031 -0.4188 -0.2620  0.4164
    3SAPS  H13X  382   5.367   3.969   4.997 -0.2485 -0.9368 -1.0360
    3SAPS  H13Y  383   5.198   3.913   5.016 -0.2721 -0.7387 -2.0295
    3SAPS  C314  384   5.335   3.761   4.945  0.2032  0.3855 -0.2289
    3SAPS  H14X  385   5.277   3.678   4.990  1.0814 -0.0131  0.2018
    3SAPS  H14Y  386   5.442   3.737   4.962 -0.4185 -2.3831  0.1659
    3SAPS  C315  387   5.307   3.770   4.790  0.4414 -0.0786  0.4838
    3SAPS  H15X  388   5.199   3.764   4.765  0.1067  1.2589  1.4866
    3SAPS  H15Y  389   5.356   3.682   4.742  1.4120  0.9560 -0.4612
    3SAPS  C316  390   5.368   3.891   4.728 -0.1257  0.2883 -0.1395
    3SAPS  H16X  391   5.478   3.894   4.747 -0.0716 -0.6793 -0.1984
    3SAPS  H16Y  392   5.320   3.983   4.767 -0.8607  0.1865 -0.7765
    3SAPS  C317  393   5.355   3.887   4.572 -0.3810 -0.2374  0.2704
    3SAPS  H17X  394   5.251   3.875   4.537 -0.0506 -2.5903 -0.0219
    3SAPS  H17Y  395   5.393   3.790   4.535 -0.7279  0.6291 -2.5663
    3SAPS  C318  396   5.423   4.009   4.509  0.0045 -0.0709 -0.2343
    3SAPS  H18X  397   5.365   4.100   4.539 -1.1350  0.0815 -2.6331
    3SAPS  H18Y  398   5.439   3.989   4.401  2.0635 -2.9213  0.5058
    3SAPS  H18Z  399   5.526   4.019   4.547 -0.0577 -1.0482  0.2261
    4SAPS     N  400   3.178   2.028   6.174  0.1382 -0.3355  0.4143
    4SAPS   HN1  401   3.237   2.114   6.180  0.1842 -0.2999 -0.3952
    4SAPS   HN2  402   3.218   1.995   6.084  1.2427  1.5453  0.1528
    4SAPS   HN3  403   3.078   2.058   6.169  0.6042  1.5004  1.0837
    4SAPS   C12  404   3.198   1.933   6.290 -0.2754  0.1409 -0.3886
    4SAPS  H12A  405   3.300   1.896   6.286 -0.4146 -0.3209  0.2137
    4SAPS   C13  406   3.195   1.997   6.427 -0.2190  0.3678 -0.4432
    4SAPS  O13A  407   3.218   2.118   6.448 -0.2334 -0.4630 -0.3688
    4SAPS  O13B  408   3.196   1.924   6.530  0.0744 -0.1498 -0.7299
    4SAPS   C11  409   3.094   1.818   6.290  0.1247 -0.7438  0.0072
    4SAPS  H11A  410   2.992   1.861   6.297 -0.8097 -2.1916 -3.0225
    4SAPS  H11B  411   3.122   1.753   6.376 -0.2842  0.6690  1.2446
    4SAPS     P  412   3.229   1.643   6.141  0.4565  0.3941  0.1178
    4SAPS   O13  413   3.324   1.711   6.051  0.3033 -0.1284  0.2672
    4SAPS   O14  414   3.284   1.593   6.265  0.0752  0.0706 -0.1080
    4SAPS   O12  415   3.112   1.744   6.172 -0.7455 -0.2472  0.3947
    4SAPS   O11  416   3.150   1.518   6.077 -0.4139  0.2747  0.5026
    4SAPS    C1  417   3.034   1.524   5.987  0.0949 -0.4227 -0.7352
    4SAPS    HA  418   2.959   1.449   6.020  1.8585 -1.7438  0.4400
    4SAPS    HB  419   2.979   1.618   6.007  0.8099 -0.0015 -0.7215
    4SAPS    C2  420   3.056   1.504   5.840 -0.4086 -0.0038 -0.4419
    4SAPS    HS  421   3.074   1.395   5.833  0.0162  0.1000 -1.0711
    4SAPS   O21  422   3.160   1.583   5.787 -0.3601 -0.7528 -0.7960
    4SAPS   C21  423   3.269   1.524   5.748  0.7361 -0.5476  0.1111
    4SAPS   O22  424   3.290   1.404   5.764 -0.8464  0.2529  0.1924
    4SAPS   C22  425   3.346   1.618   5.657 -0.5558  0.3581 -0.5915
    4SAPS   H2R  426   3.277   1.685   5.601 -0.7589  0.2596 -0.4646
    4SAPS   H2S  427   3.415   1.682   5.715 -0.4914 -0.5383  0.3678
    4SAPS    C3  428   2.919   1.526   5.769  0.2364 -0.0971 -0.2827
    4SAPS    HX  429   2.893   1.633   5.784  1.5085  0.1385  0.4461
    4SAPS    HY  430   2.842   1.466   5.821  2.0767 -1.2173  1.3167
    4SAPS   O31  431   2.920   1.516   5.622  0.2583  0.4374 -0.0839
    4SAPS   C31  432   2.911   1.399   5.563  0.6011 -0.2984 -0.0070
    4SAPS   O32  433   2.906   1.295   5.624  0.2083 -0.3020  0.3216
    4SAPS   C32  434   2.947   1.421   5.414 -0.0709  0.7015  0.2975
    4SAPS   H2X  435   3.048   1.464   5.428 -0.0779  0.6484  0.5053
    4SAPS   H2Y  436   2.878   1.495   5.368  0.0844  1.6923  1.5984
    4SAPS   C23  437   3.435   1.546   5.544  0.4014 -0.0797 -0.2218
    4SAPS   H3R  438   3.490   1.461   5.591 -1.4092 -0.9742  0.3499
    4SAPS   H3S  439   3.515   1.617   5.512  2.9942 -2.2463  1.0191
    4SAPS   C24  440   3.357   1.486   5.426 -0.2622 -0.1222 -0.3214
    4SAPS   H4R  441   3.289   1.411   5.470 -1.4091  1.2363  0.3035
    4SAPS   H4S  442   3.439   1.445   5.363  0.2860 -1.5005  1.2424
    4SAPS   C25  443   3.277   1.595   5.364 -0.2579  0.1149  0.8423
    4SAPS   H5R  444   3.194   1.638   5.423 -0.3223  2.5427 -0.8632
    4SAPS   C26  445   3.298   1.634   5.234 -0.3601  0.0026  0.2625
    4SAPS   H6R  446   3.228   1.708   5.192 -0.3210 -0.4142 -0.5709
    4SAPS   C27  447   3.411   1.594   5.137 -0.4317 -1.0736 -0.1585
    4SAPS   H7R  448   3.508   1.593   5.192 -0.4644 -0.7847 -0.0957
    4SAPS   H7S  449   3.418   1.670   5.057  1.1607  0.3167  1.2061
    4SAPS   C28  450   3.381   1.461   5.086 -0.6141 -0.2594 -0.3626
    4SAPS   H8R  451   3.360   1.388   5.166 -0.4300 -0.5752 -0.6012
    4SAPS   C29  452   3.359   1.427   4.960  0.0858  0.2091  0.3313
    4SAPS   H9R  453   3.345   1.320   4.939 -1.6803 -0.0218  2.4376
    4SAPS  C210  454   3.372   1.516   4.841 -0.6228  0.5361  0.1880
    4SAPS  H10R  455   3.422   1.464   4.757  0.7233  1.2524  0.5190
    4SAPS  H10S  456   3.445   1.594   4.871  0.9735 -0.3940 -1.1161
    4SAPS  C211  457   3.240   1.581   4.815  0.1836 -0.2644 -0.5274
    4SAPS  H11R  458   3.170   1.604   4.897  0.4679 -2.1745  0.3260
    4SAPS  C212  459   3.198   1.611   4.690  0.1530  0.0119  0.0603
    4SAPS  H12R  460   3.101   1.658   4.670  0.0676 -0.6404 -1.1598
    4SAPS  C213  461   3.279   1.574   4.569  0.0610  0.5316  0.1272
    4SAPS  H13R  462   3.209   1.563   4.483 -1.4251  1.5063  1.1762
    4SAPS  H13S  463   3.333   1.478   4.585  0.2284  0.2066 -2.0757
    4SAPS  C214  464   3.388   1.672   4.533 -0.5314  0.6968  1.0023
    4SAPS  H14R  465   3.379   1.775   4.571 -0.9451  1.2283 -0.4606
    4SAPS  C215  466   3.492   1.643   4.451 -0.1692  0.6960 -0.1060
    4SAPS  H15R  467   3.562   1.726   4.432  0.0343  0.2468 -1.4316
    4SAPS  C216  468   3.505   1.512   4.375 -0.4371  0.3498 -0.4062
    4SAPS  H16R  469   3.418   1.444   4.386  0.1624 -0.4002 -0.2735
    4SAPS  H16S  470   3.596   1.453   4.398 -0.7097 -0.3453 -1.0773
    4SAPS  C217  471   3.514   1.526   4.222  0.6853  0.4786  0.3226
    4SAPS  H17R  472   3.452   1.614   4.195  0.7019  1.4080  2.9755
    4SAPS  H17S  473   3.471   1.441   4.165 -0.1299  0.9004  0.2818
    4SAPS  C218  474   3.657   1.532   4.168  0.1664 -0.6402 -0.6015
    4SAPS  H18R  475   3.727   1.480   4.237 -0.2505 -0.0499  0.2922
    4SAPS  H18S  476   3.691   1.637   4.155 -1.0824 -0.2378 -0.7190
    4SAPS  C219  477   3.666   1.473   4.020 -0.3375  0.0512 -0.4003
    4SAPS  H19R  478   3.601   1.530   3.951  0.3007 -1.5260 -2.4225
    4SAPS  H19S  479   3.628   1.368   4.022  1.3712 -0.6109 -0.1640
    4SAPS  C220  480   3.812   1.474   3.971 -0.0112  0.7531  0.0966
    4SAPS  H20R  481   3.823   1.417   3.876 -0.0129  0.7194  0.1160
    4SAPS  H20S  482   3.874   1.446   4.059  1.1130  0.8130 -0.6640
    4SAPS  H20T  483   3.855   1.570   3.936 -0.5935  0.1424 -2.4657
    4SAPS   C33  484   2.949   1.292   5.320 -0.8235 -0.2700  0.2158
    4SAPS   H3X  485   2.851   1.240   5.327 -0.1057 -1.5374  1.4278
    4SAPS   H3Y  486   3.029   1.218   5.343 -0.1783 -0.5947 -2.6572
    4SAPS   C34  487   2.976   1.327   5.175  0.5781  0.6444  0.4236
    4SAPS   H4X  488   3.084   1.348   5.158  0.7778 -2.1925 -3.2198
    4SAPS   H4Y  489   2.923   1.416   5.136 -3.3537 -2.5087 -2.2751
    4SAPS   C35  490   2.930   1.209   5.085  1.1528 -0.1303  0.3756
    4SAPS   H5X  491   2.822   1.184   5.097  1.6863 -2.3411  1.0539
    4SAPS   H5Y  492   2.992   1.127   5.126  0.6263  0.2066  1.9195
    4SAPS   C36  493   2.979   1.236   4.935  0.6644 -0.3436 -0.1616
    4SAPS   H6X  494   2.969   1.136   4.886  0.3172 -0.5131  0.2506
    4SAPS   H6Y  495   3.083   1.273   4.920  0.0265  0.3130 -4.2572
    4SAPS   C37  496   2.890   1.332   4.856 -0.2683 -0.6372 -0.2283
    4SAPS   H7X  497   2.902   1.433   4.902  1.4199 -1.0384  0.2990
    4SAPS   H7Y  498   2.783   1.305   4.866 -0.4349  0.3786  1.0398
    4SAPS   C38  499   2.937   1.344   4.711  0.5223  0.0197 -0.5520
    4SAPS   H8X  500   2.929   1.239   4.675 -1.2369 -0.1449  0.1752
    4SAPS   H8Y  501   3.045   1.365   4.702  0.4463  0.4636 -0.4583
    4SAPS   C39  502   2.836   1.426   4.646  0.8277 -0.0898  0.3965
    4SAPS   H9X  503   2.851   1.534   4.666 -0.5748  0.3316 -0.6508
    4SAPS   H9Y  504   2.736   1.398   4.683  0.1271 -1.1394 -2.0702
    4SAPS  C310  505   2.836   1.419   4.489 -0.1618  0.2730 -0.0021
    4SAPS  H10X  506   2.767   1.497   4.449  1.7022  1.5093 -1.0000
    4SAPS  H10Y  507   2.806   1.317   4.458 -2.2677  1.0931 -0.8108
    4SAPS  C311  508   2.977   1.448   4.430  0.5427 -0.2082  0.3068
    4SAPS  H11X  509   3.033   1.367   4.481 -0.2140 -0.4471  0.7801
    4SAPS  H11Y  510   3.021   1.548   4.450 -1.6169  1.1428 -1.1492
    4SAPS  C312  511   2.971   1.420   4.276 -0.0168  0.5040 -0.0226
    4SAPS  H12X  512   2.930   1.505   4.217 -1.2869  0.2751  0.5029
    4SAPS  H12Y  513   2.906   1.334   4.251  0.9484 -1.4276  3.3786
    4SAPS  C313  514   3.109   1.387   4.219 -0.5731  0.3248  0.3734
    4SAPS  H13X  515   3.133   1.282   4.248  1.2650  0.9243  1.1721
    4SAPS  H13Y  516   3.182   1.450   4.276 -0.8639  3.3713 -2.3394
    4SAPS  C314  517   3.125   1.411   4.074  0.0737  0.5452  0.2577
    4SAPS  H14X  518   3.140   1.520   4.060 -1.0175  0.8049  1.0015
    4SAPS  H14Y  519   3.032   1.381   4.022  1.2143  1.0673 -2.2398
    4SAPS  C315  520   3.245   1.336   4.005 -0.1534  0.6901 -0.7360
    4SAPS  H15X  521   3.222   1.229   3.990 -0.3205  0.7342 -0.8020
    4SAPS  H15Y  522   3.330   1.344   4.076 -0.0623 -0.0475 -0.7605
    4SAPS  C316  523   3.280   1.384   3.868  0.6516 -0.2873  0.5778
    4SAPS  H16X  524   3.189   1.385   3.804  0.1346  0.0333  1.3031
    4SAPS  H16Y  525   3.365   1.329   3.822 -0.0321 -0.7304 -0.1889
    4SAPS  C317  526   3.316   1.536   3.869 -0.1517 -0.1645 -0.3897
    4SAPS  H17X  527   3.393   1.559   3.947  2.0922  1.4024 -2.8863
    4SAPS  H17Y  528   3.229   1.602   3.891  0.3292 -0.0878  1.4408
    4SAPS  C318  529   3.377   1.577   3.733 -0.6336 -0.7032  0.3279
    4SAPS  H18X  530   3.303   1.569   3.651 -2.9152  0.9890  2.0898
    4SAPS  H18Y  531   3.465   1.510   3.717  0.4142  0.4840  0.9361
    4SAPS  H18Z  532   3.403   1.685   3.735 -2.0432 -0.3581  0.7193
    5SAPS     N  533   5.072   3.962   6.622 -0.5446  0.3403  0.0325
    5SAPS   HN1  534   5.119   3.906   6.548 -0.2256  0.0893  0.4218
    5SAPS   HN2  535   5.006   4.027   6.574  1.9538  2.9530 -0.1073
    5SAPS   HN3  536   5.147   4.020   6.664 -0.5314 -1.2267  2.3593
    5SAPS   C12  537   5.018   3.870   6.729 -0.7139 -0.1769 -0.0097
    5SAPS  H12A  538   5.006   3.933   6.816  1.1925 -3.2338  2.6628
    5SAPS   C13  539   4.880   3.805   6.692  0.3063 -0.0138  0.5869
    5SAPS  O13A  540   4.824   3.845   6.585  0.2333 -0.5413 -0.4926
    5SAPS  O13B  541   4.828   3.717   6.759  0.3512 -0.1943 -0.2223
    5SAPS   C11  542   5.126   3.766   6.772  0.4987  0.0892  0.1215
    5SAPS  H11A  543   5.098   3.697   6.854  1.4802 -1.8213 -1.0883
    5SAPS  H11B  544   5.220   3.820   6.796  0.1439  0.8386 -0.1331
    5SAPS     P  545   5.212   3.530   6.671  0.1168 -0.5449  0.0374
    5SAPS   O13  546   5.337   3.536   6.742 -0.2761  0.1257  0.0257
    5SAPS   O14  547   5.097   3.450   6.720  0.0079 -0.0206 -0.2422
    5SAPS   O12  548   5.160   3.673   6.664  0.2151 -0.6903  0.4499
    5SAPS   O11  549   5.234   3.505   6.521 -0.4540 -0.2774  0.2528
    5SAPS    C1  550   5.335   3.416   6.469  0.1397 -0.6838 -0.1143
    5SAPS    HA  551   5.369   3.333   6.534  0.9534  0.1901  0.6016
    5SAPS    HB  552   5.294   3.373   6.375  0.8779 -0.1542 -0.6860
    5SAPS    C2  553   5.475   3.473   6.413 -0.0968  0.1270  0.2983
    5SAPS    HS  554   5.517   3.520   6.504  0.0088  2.3923 -0.8433
    5SAPS   O21  555   5.445   3.570   6.305  0.0894 -0.1012 -0.1256
    5SAPS   C21  556   5.441   3.699   6.347  0.1875 -0.0459  0.4345
    5SAPS   O22  557   5.445   3.732   6.463 -0.4964  0.4056  0.4903
    5SAPS   C22  558   5.436   3.793   6.223 -0.1743  0.6539  0.5238
    5SAPS   H2R  559   5.471   3.736   6.135 -1.2189  0.4205  0.2422
    5SAPS   H2S  560   5.330   3.816   6.197 -0.1905  0.4090  0.3682
    5SAPS    C3  561   5.575   3.363   6.358  0.4641  0.3675  0.0574
    5SAPS    HX  562   5.542   3.272   6.414 -1.1988 -0.5361 -2.2315
    5SAPS    HY  563   5.682   3.387   6.375  0.0166  0.8125  2.6473
    5SAPS   O31  564   5.551   3.335   6.216 -0.1420  0.6442  0.3762
    5SAPS   C31  565   5.633   3.398   6.133  0.8618  0.1953  0.1363
    5SAPS   O32  566   5.718   3.477   6.165  0.3758 -0.2323 -0.5743
    5SAPS   C32  567   5.578   3.370   5.991  0.1456  0.0786 -0.2178
    5SAPS   H2X  568   5.469   3.386   5.997  0.0807  0.2911 -1.7372
    5SAPS   H2Y  569   5.595   3.267   5.953 -0.0261  0.4348 -1.2840
    5SAPS   C23  570   5.527   3.914   6.243  0.3858 -0.1811 -0.3097
    5SAPS   H3R  571   5.626   3.881   6.279 -0.6744  0.8900  4.1374
    5SAPS   H3S  572   5.495   3.979   6.327  0.1788  1.8174 -1.8658
    5SAPS   C24  573   5.552   3.994   6.116 -0.6566  0.1769 -0.0114
    5SAPS   H4R  574   5.584   3.921   6.038 -0.9386 -0.4018  0.4115
    5SAPS   H4S  575   5.630   4.072   6.126 -2.3246  2.0021 -0.6280
    5SAPS   C25  576   5.433   4.072   6.062 -0.7601 -0.3789  0.4921
    5SAPS   H5R  577   5.356   4.103   6.134  0.4731 -0.3560  1.8612
    5SAPS   C26  578   5.417   4.104   5.930  0.0453  0.0115 -0.0438
    5SAPS   H6R  579   5.337   4.171   5.893 -0.9703 -0.2508  1.5878
    5SAPS   C27  580   5.517   4.071   5.819 -0.6073  0.1794  0.2034
    5SAPS   H7R  581   5.620   4.048   5.854 -0.0477  0.4450 -1.2330
    5SAPS   H7S  582   5.528   4.163   5.759 -2.6032 -0.5617 -1.4109
    5SAPS   C28  583   5.486   3.970   5.709 -0.6336 -0.3164  0.5088
    5SAPS   H8R  584   5.383   3.933   5.714 -0.9817  0.6025  0.2328
    5SAPS   C29  585   5.570   3.926   5.609  0.8088 -0.5344 -0.7120
    5SAPS   H9R  586   5.529   3.862   5.529 -0.4952 -2.7656  1.5979
    5SAPS  C210  587   5.716   3.956   5.602  0.3262  0.6224  0.2000
    5SAPS  H10R  588   5.772   3.915   5.689  2.8922  0.9150 -1.2299
    5SAPS  H10S  589   5.734   4.066   5.606 -2.2691  1.1812 -1.3262
    5SAPS  C211  590   5.781   3.884   5.489 -0.1081 -0.6596 -0.4733
    5SAPS  H11R  591   5.757   3.777   5.481  1.9297 -1.1636 -0.3348
    5SAPS  C212  592   5.862   3.932   5.395  0.0776 -0.3228 -0.1546
    5SAPS  H12R  593   5.897   3.853   5.327  0.2281 -1.7002  1.4342
    5SAPS  C213  594   5.920   4.069   5.383 -0.1926  0.0704 -0.6351
    5SAPS  H13R  595   5.864   4.139   5.448  1.6913  1.3728 -0.3356
    5SAPS  H13S  596   5.899   4.106   5.280 -0.3798 -1.7084 -1.2731
    5SAPS  C214  597   6.069   4.080   5.407  0.6515  0.3788  0.4094
    5SAPS  H14R  598   6.094   4.038   5.505  2.0015 -1.4773 -0.6635
    5SAPS  C215  599   6.159   4.118   5.309 -0.8118  0.3815 -0.3850
    5SAPS  H15R  600   6.265   4.115   5.335 -0.7163 -0.8544 -0.8291
    5SAPS  C216  601   6.130   4.169   5.169 -0.7072 -0.4832  0.1419
    5SAPS  H16R  602   6.113   4.079   5.106  0.9662 -1.2427  0.7217
    5SAPS  H16S  603   6.219   4.218   5.125 -1.6602 -0.3855 -1.7717
    5SAPS  C217  604   6.026   4.274   5.142 -0.3408 -0.4768 -0.0799
    5SAPS  H17R  605   6.013   4.339   5.231  0.0397 -0.3218 -0.1324
    5SAPS  H17S  606   5.929   4.228   5.114 -0.1754  0.3806 -2.3222
    5SAPS  C218  607   6.081   4.374   5.033 -0.2423 -0.1421 -0.1794
    5SAPS  H18R  608   6.182   4.408   5.066 -0.8257 -0.2755  1.8901
    5SAPS  H18S  609   6.018   4.464   5.031 -1.0277 -0.5276  2.6182
    5SAPS  C219  610   6.080   4.305   4.893 -0.4359  0.0020  0.6228
    5SAPS  H19R  611   5.976   4.278   4.864 -0.2458 -0.5239  0.4188
    5SAPS  H19S  612   6.126   4.204   4.893 -0.3814 -0.0203 -1.6696
    5SAPS  C220  613   6.152   4.391   4.793 -0.4690 -0.5448  0.0641
    5SAPS  H20R  614   6.130   4.499   4.811  0.2744 -0.1449 -1.2921
    5SAPS  H20S  615   6.118   4.369   4.689  1.0734  3.9408 -1.6630
    5SAPS  H20T  616   6.261   4.376   4.808 -0.6864 -0.8724  1.4400
    5SAPS   C33  617   5.639   3.457   5.873 -1.0748  0.4364  0.4843
    5SAPS   H3X  618   5.749   3.441   5.875 -1.0207  0.7849  0.1918
    5SAPS   H3Y  619   5.609   3.562   5.891 -0.3740  0.5924  0.7611
    5SAPS   C34  620   5.590   3.419   5.732  0.0492 -0.8310  0.3154
    5SAPS   H4X  621   5.486   3.457   5.735  0.5083  0.4561  0.9631
    5SAPS   H4Y  622   5.597   3.311   5.710  2.0675 -0.9738  1.3710
    5SAPS   C35  623   5.664   3.502   5.620 -0.5025 -0.7082  0.0241
    5SAPS   H5X  624   5.774   3.521   5.626 -0.2634 -1.6408 -1.0507
    5SAPS   H5Y  625   5.618   3.603   5.619 -0.0784 -0.4977  0.8448
    5SAPS   C36  626   5.636   3.446   5.478 -0.2747  0.3762  0.5988
    5SAPS   H6X  627   5.535   3.403   5.466 -0.5452  1.0822  0.2663
    5SAPS   H6Y  628   5.704   3.358   5.474  1.3308  1.5833 -2.5504
    5SAPS   C37  629   5.659   3.543   5.363 -0.2093  0.7114 -0.0546
    5SAPS   H7X  630   5.761   3.586   5.373 -1.0169  2.7561 -0.0744
    5SAPS   H7Y  631   5.583   3.624   5.370 -0.2299  0.5659  2.8132
    5SAPS   C38  632   5.638   3.471   5.232  0.2304  0.2511 -0.1274
    5SAPS   H8X  633   5.532   3.440   5.223  0.2937 -0.0169  0.0329
    5SAPS   H8Y  634   5.697   3.377   5.223  0.7812  0.7189 -1.6876
    5SAPS   C39  635   5.686   3.559   5.120 -0.1155  0.3474 -0.6258
    5SAPS   H9X  636   5.775   3.611   5.161  0.1420  0.9913 -1.9271
    5SAPS   H9Y  637   5.619   3.646   5.100 -0.2006  0.3542 -0.3120
    5SAPS  C310  638   5.731   3.490   4.989 -0.3561 -1.3629 -0.2457
    5SAPS  H10X  639   5.785   3.398   5.022  2.3403  0.6970  1.5149
    5SAPS  H10Y  640   5.803   3.550   4.930 -1.8935 -1.3693 -2.2385
    5SAPS  C311  641   5.604   3.451   4.911 -0.1801  0.1356 -0.0170
    5SAPS  H11X  642   5.525   3.528   4.927 -1.0038 -0.6003 -0.4383
    5SAPS  H11Y  643   5.567   3.356   4.955  0.0890 -0.8821 -1.8852
    5SAPS  C312  644   5.638   3.435   4.763  0.2218 -0.0825 -0.4942
    5SAPS  H12X  645   5.728   3.370   4.766 -0.4939 -1.0689  1.1056
    5SAPS  H12Y  646   5.660   3.538   4.728 -2.0963  0.9922  1.0254
    5SAPS  C313  647   5.524   3.367   4.688  0.1343 -0.5919  0.5415
    5SAPS  H13X  648   5.431   3.427   4.679  1.2036  0.9680 -1.0542
    5SAPS  H13Y  649   5.492   3.277   4.744 -2.5606  0.2567  0.5084
    5SAPS  C314  650   5.575   3.318   4.554  0.1672  0.0209 -0.5589
    5SAPS  H14X  651   5.526   3.220   4.533  0.4791 -0.9069  2.5455
    5SAPS  H14Y  652   5.683   3.296   4.570 -0.2916 -0.7590  1.9258
    5SAPS  C315  653   5.546   3.416   4.435  0.5363  0.3590 -0.1471
    5SAPS  H15X  654   5.463   3.484   4.463 -0.6318 -1.9854  2.5374
    5SAPS  H15Y  655   5.512   3.369   4.340  0.0701 -1.0926  0.7087
    5SAPS  C316  656   5.662   3.505   4.406 -0.5778  0.2798 -0.7903
    5SAPS  H16X  657   5.753   3.442   4.420 -1.6988 -0.7878  2.4737
    5SAPS  H16Y  658   5.663   3.566   4.499 -1.0834  0.2847 -0.7872
    5SAPS  C317  659   5.648   3.582   4.277  0.3067  0.2914 -0.2385
    5SAPS  H17X  660   5.570   3.659   4.294 -0.0439 -0.2257  0.5132
    5SAPS  H17Y  661   5.619   3.518   4.191 -0.0843  0.0464  0.0761
    5SAPS  C318  662   5.783   3.651   4.244  0.3587 -0.0197 -0.5956
    5SAPS  H18X  663   5.775   3.712   4.152  1.2101  0.6698 -0.2296
    5SAPS  H18Y  664   5.856   3.570   4.225 -2.3841 -2.6780 -0.6002
    5SAPS  H18Z  665   5.812   3.709   4.335  2.3453 -1.0474 -0.5321
    6SAPS     N  666   2.247   5.301   6.051 -0.1442 -0.2896 -1.0170
    6SAPS   HN1  667   2.185   5.282   5.970 -0.7342  0.7627 -0.8207
    6SAPS   HN2  668   2.257   5.401   6.077  0.1387 -0.3281 -0.9701
    6SAPS   HN3  669   2.343   5.267   6.030  0.3283 -0.4384  1.1258
    6SAPS   C12  670   2.206   5.226   6.167 -0.4680  0.0345 -0.0982
    6SAPS  H12A  671   2.284   5.234   6.241 -2.2171 -0.3176  1.8715
    6SAPS   C13  672   2.077   5.270   6.236  0.1161 -0.4131  1.2424
    6SAPS  O13A  673   2.022   5.380   6.207 -0.1259  0.5519  0.5896
    6SAPS  O13B  674   2.041   5.203   6.337  0.4473 -0.6293  0.3593
    6SAPS   C11  675   2.182   5.074   6.131  1.1573 -0.2061  0.3673
    6SAPS  H11A  676   2.095   5.078   6.062  3.1501  4.1412 -2.3522
    6SAPS  H11B  677   2.147   5.014   6.217  0.7108 -2.5762 -1.3713
    6SAPS     P  678   2.344   4.874   6.067  0.2032  0.3398 -0.0420
    6SAPS   O13  679   2.486   4.860   6.105  0.9357 -0.5216  0.0752
    6SAPS   O14  680   2.260   4.791   6.155  0.1137 -0.1914  0.1336
    6SAPS   O12  681   2.296   5.019   6.075  0.0718 -0.2462  0.0904
    6SAPS   O11  682   2.324   4.828   5.917  0.0098 -0.2961 -0.4951
    6SAPS    C1  683   2.194   4.801   5.866  0.0901  0.4267  0.2964
    6SAPS    HA  684   2.178   4.692   5.876 -0.1070  0.5359  1.3036
    6SAPS    HB  685   2.113   4.854   5.920  0.2262  1.3371 -0.3675
    6SAPS    C2  686   2.172   4.844   5.716 -0.3289  0.1801  0.2336
    6SAPS    HS  687   2.066   4.830   5.686 -0.2772  0.3234 -0.0188
    6SAPS   O21  688   2.265   4.778   5.630  0.4023 -0.0523 -0.0348
    6SAPS   C21  689   2.249   4.649   5.619  0.3965 -0.4399  0.5051
    6SAPS   O22  690   2.163   4.582   5.668  0.2583  0.8993  0.0535
    6SAPS   C22  691   2.359   4.596   5.526 -0.0190 -0.0600  0.7068
    6SAPS   H2R  692   2.358   4.641   5.425  0.9652  0.4228  0.9070
    6SAPS   H2S  693   2.457   4.628   5.567 -0.1322  0.6247  0.4524
    6SAPS    C3  694   2.188   4.994   5.697 -0.3294  0.5814  0.0859
    6SAPS    HX  695   2.275   5.022   5.760 -1.6490  1.4048  1.6083
    6SAPS    HY  696   2.096   5.053   5.718 -0.8295  0.3798 -1.4264
    6SAPS   O31  697   2.205   5.021   5.554  0.7894  0.4406  0.1507
    6SAPS   C31  698   2.300   5.098   5.525  0.0396  0.5454  0.5488
    6SAPS   O32  699   2.371   5.165   5.599  0.1605  0.2297 -0.6716
    6SAPS   C32  700   2.300   5.093   5.369  0.2404  0.3019  0.3826
    6SAPS   H2X  701   2.216   5.155   5.330 -0.5442 -1.0378 -0.0990
    6SAPS   H2Y  702   2.293   4.988   5.334  0.1243  0.5994 -0.5052
    6SAPS   C23  703   2.351   4.440   5.527  0.1781 -0.3558  0.3805
    6SAPS   H3R  704   2.256   4.409   5.479  0.3707  1.0892 -1.0392
    6SAPS   H3S  705   2.365   4.412   5.633  2.6187  0.4372  0.3281
    6SAPS   C24  706   2.473   4.393   5.441 -0.1789  0.2482 -0.6174
    6SAPS   H4R  707   2.479   4.454   5.348  1.1292 -0.1358 -0.8087
    6SAPS   H4S  708   2.475   4.284   5.419  2.7442  0.4711 -1.8881
    6SAPS   C25  709   2.596   4.419   5.520 -0.3490  0.2397 -0.0141
    6SAPS   H5R  710   2.586   4.365   5.615  0.2816  1.6298  0.8791
    6SAPS   C26  711   2.713   4.490   5.494 -0.1003  0.9233 -0.4115
    6SAPS   H6R  712   2.798   4.480   5.563  1.3866  3.0439 -1.7792
    6SAPS   C27  713   2.729   4.558   5.361 -0.5558 -0.0991  1.5465
    6SAPS   H7R  714   2.795   4.648   5.368 -2.2441  1.3506 -0.0299
    6SAPS   H7S  715   2.635   4.610   5.332  0.8184  0.7965 -1.7921
    6SAPS   C28  716   2.791   4.473   5.243  0.6351 -0.1049 -0.8159
    6SAPS   H8R  717   2.723   4.477   5.156 -1.4088 -0.9979  0.6627
    6SAPS   C29  718   2.892   4.387   5.244  0.3904 -0.5166 -0.4657
    6SAPS   H9R  719   2.903   4.322   5.156 -3.0676 -3.4594  1.0505
    6SAPS  C210  720   2.998   4.355   5.354  0.0736  0.2471  0.6083
    6SAPS  H10R  721   3.030   4.250   5.338  2.5035  0.7100  1.8238
    6SAPS  H10S  722   2.945   4.350   5.452  1.1470  2.8995  1.4183
    6SAPS  C211  723   3.116   4.444   5.376 -0.5355  0.2389 -0.0189
    6SAPS  H11R  724   3.104   4.494   5.473  1.9685 -1.0992  1.0723
    6SAPS  C212  725   3.226   4.472   5.305 -0.0209  0.1605 -0.1467
    6SAPS  H12R  726   3.294   4.558   5.313  1.8601 -1.2569 -0.2777
    6SAPS  C213  727   3.249   4.404   5.179  1.3010 -0.2605  0.6771
    6SAPS  H13R  728   3.235   4.294   5.182  1.4382 -0.4391 -2.3758
    6SAPS  H13S  729   3.359   4.405   5.172  1.7983 -4.9850  3.5442
    6SAPS  C214  730   3.194   4.461   5.052 -0.0261 -0.3760 -0.7017
    6SAPS  H14R  731   3.121   4.543   5.063 -0.8422 -1.1647 -0.1322
    6SAPS  C215  732   3.221   4.412   4.923 -0.2507 -0.3648 -0.5176
    6SAPS  H15R  733   3.187   4.461   4.831  1.6827 -1.4303 -1.8788
    6SAPS  C216  734   3.311   4.303   4.883  0.1692  0.8018 -0.2756
    6SAPS  H16R  735   3.256   4.216   4.925  0.0420  1.7642  1.6546
    6SAPS  H16S  736   3.410   4.316   4.930  0.9015  0.9762 -1.8028
    6SAPS  C217  737   3.336   4.284   4.731 -0.3131  0.1440  1.2884
    6SAPS  H17R  738   3.235   4.278   4.684  0.6262 -0.2554 -0.8375
    6SAPS  H17S  739   3.381   4.183   4.719 -0.6354  0.1569 -0.3387
    6SAPS  C218  740   3.431   4.389   4.671  0.0934  0.4262  0.2184
    6SAPS  H18R  741   3.525   4.397   4.729 -1.8282 -0.4477  3.7511
    6SAPS  H18S  742   3.381   4.488   4.678 -0.2726  0.2506  0.1178
    6SAPS  C219  743   3.462   4.353   4.525 -0.5047 -0.0741  0.1281
    6SAPS  H19R  744   3.366   4.342   4.471 -0.5579  1.0448 -0.0264
    6SAPS  H19S  745   3.519   4.258   4.527 -3.1580 -1.8668 -2.1313
    6SAPS  C220  746   3.542   4.463   4.445 -0.0744  0.4592 -0.1394
    6SAPS  H20R  747   3.609   4.505   4.523  0.2866 -0.4645  0.0555
    6SAPS  H20S  748   3.460   4.535   4.421  0.3652  1.0908  0.2086
    6SAPS  H20T  749   3.599   4.420   4.360 -0.9787 -3.8353  1.1730
    6SAPS   C33  750   2.436   5.165   5.323  0.4673 -0.3477 -0.6269
    6SAPS   H3X  751   2.437   5.265   5.371 -1.8551  0.6268 -2.4057
    6SAPS   H3Y  752   2.452   5.191   5.217 -0.8865  1.6432 -0.4152
    6SAPS   C34  753   2.569   5.093   5.362  0.1627  0.0203 -0.1905
    6SAPS   H4X  754   2.573   5.077   5.471 -4.3159 -2.7688 -0.1839
    6SAPS   H4Y  755   2.656   5.154   5.331  0.8185 -0.4070  0.7605
    6SAPS   C35  756   2.600   4.951   5.315  0.2093 -0.7100 -0.8707
    6SAPS   H5X  757   2.525   4.878   5.353 -1.5954  1.5555  0.1633
    6SAPS   H5Y  758   2.695   4.923   5.364  0.6236  1.2914 -0.4453
    6SAPS   C36  759   2.612   4.943   5.161  0.7229  0.0666  1.1282
    6SAPS   H6X  760   2.655   5.033   5.112  1.3868 -0.3901  0.8626
    6SAPS   H6Y  761   2.503   4.942   5.139  0.6100 -0.4826  1.6793
    6SAPS   C37  762   2.685   4.814   5.115  0.0035 -0.3759 -0.5094
    6SAPS   H7X  763   2.620   4.737   5.161 -0.3540  1.2538  1.8814
    6SAPS   H7Y  764   2.784   4.814   5.166 -1.1333  0.6040  1.8195
    6SAPS   C38  765   2.699   4.795   4.966  0.4879 -0.6853  1.2581
    6SAPS   H8X  766   2.775   4.869   4.933 -1.5187  1.7403  1.7608
    6SAPS   H8Y  767   2.607   4.806   4.905  1.1386 -2.6993 -0.1843
    6SAPS   C39  768   2.763   4.664   4.922 -0.5983  0.5930  0.5984
    6SAPS   H9X  769   2.707   4.576   4.961  0.7213 -0.6475 -0.2155
    6SAPS   H9Y  770   2.865   4.654   4.965 -2.0157 -1.2503  3.9326
    6SAPS  C310  771   2.784   4.649   4.770  0.1849  0.3858 -0.0782
    6SAPS  H10X  772   2.839   4.729   4.715  0.5914 -1.2827 -2.2638
    6SAPS  H10Y  773   2.682   4.651   4.726  0.4663 -1.1591 -0.8525
    6SAPS  C311  774   2.861   4.512   4.750  0.4364 -0.0358  0.1316
    6SAPS  H11X  775   2.797   4.428   4.785  1.0108  0.6546  3.1216
    6SAPS  H11Y  776   2.960   4.503   4.800  0.8617 -0.8916 -0.8087
    6SAPS  C312  777   2.884   4.497   4.602  0.3938 -0.0822  0.4549
    6SAPS  H12X  778   2.931   4.592   4.567 -1.1681  0.3394 -0.5866
    6SAPS  H12Y  779   2.788   4.488   4.547  0.5824 -0.3146  0.1586
    6SAPS  C313  780   2.978   4.383   4.568 -0.6796  0.3361  0.1224
    6SAPS  H13X  781   2.927   4.284   4.576  0.7858 -0.4832 -0.3844
    6SAPS  H13Y  782   3.052   4.384   4.651 -0.9073 -0.3041  0.3400
    6SAPS  C314  783   3.044   4.401   4.435 -0.1759  0.2512  0.3810
    6SAPS  H14X  784   3.148   4.362   4.440  0.0374 -0.0479 -3.3982
    6SAPS  H14Y  785   3.072   4.507   4.415  0.9854 -0.2012 -0.5194
    6SAPS  C315  786   2.973   4.334   4.313  0.2836  0.0755  0.0643
    6SAPS  H15X  787   3.024   4.385   4.229 -0.0903  1.5598  0.7156
    6SAPS  H15Y  788   2.865   4.362   4.311  0.0738 -0.7138  0.1417
    6SAPS  C316  789   2.989   4.181   4.293 -0.2123  0.3682  0.0830
    6SAPS  H16X  790   3.082   4.146   4.343 -0.6284  0.5510  1.0219
    6SAPS  H16Y  791   3.002   4.166   4.184  0.3762 -0.0097  0.2034
    6SAPS  C317  792   2.873   4.094   4.358 -0.0434 -0.2164  0.4270
    6SAPS  H17X  793   2.769   4.124   4.332 -0.1779 -0.9338  0.1293
    6SAPS  H17Y  794   2.891   4.119   4.465  0.3041  2.5316 -0.1926
    6SAPS  C318  795   2.888   3.938   4.345 -0.3381 -0.1983 -0.0391
    6SAPS  H18X  796   2.842   3.900   4.439  0.4830  1.4223  1.0743
    6SAPS  H18Y  797   2.991   3.899   4.344 -0.0421  0.5006  0.8557
    6SAPS  H18Z  798   2.827   3.902   4.260 -0.5727  0.1865 -0.0399
    7SAPS     N  799   2.802   3.517   6.442 -0.1033 -0.1390  0.2424
    7SAPS   HN1  800   2.701   3.496   6.454 -0.5845  2.0661  0.4121
    7SAPS   HN2  801   2.827   3.544   6.345  1.3765 -3.5413 -0.4589
    7SAPS   HN3  802   2.855   3.433   6.473 -1.0064 -0.6277  0.4999
    7SAPS   C12  803   2.829   3.637   6.529  0.3514  0.7135 -0.1479
    7SAPS  H12A  804   2.733   3.669   6.568 -0.0610 -1.9958  1.2763
    7SAPS   C13  805   2.924   3.622   6.648  0.3354  0.4631  0.5370
    7SAPS  O13A  806   3.002   3.522   6.650 -0.0981  0.1183  0.1913
    7SAPS  O13B  807   2.945   3.717   6.729  0.0152 -0.1224 -0.4473
    7SAPS   C11  808   2.876   3.754   6.447  0.0973 -0.7759 -0.4909
    7SAPS  H11A  809   2.973   3.740   6.395  0.1066  0.2050 -0.7592
    7SAPS  H11B  810   2.888   3.840   6.515 -0.1389  0.5064 -2.0192
    7SAPS     P  811   2.787   3.740   6.198  0.1112  0.2329 -0.0270
    7SAPS   O13  812   2.842   3.600   6.198 -0.3392 -0.0893 -0.8702
    7SAPS   O14  813   2.651   3.756   6.149 -0.1191 -0.8800 -0.0320
    7SAPS   O12  814   2.779   3.789   6.350  0.5649 -0.5906  0.7081
    7SAPS   O11  815   2.885   3.843   6.132 -0.4034 -0.6754 -0.2459
    7SAPS    C1  816   2.975   3.804   6.030  0.4085  0.2316 -0.3584
    7SAPS    HA  817   3.046   3.888   6.012 -1.4683  1.5919 -1.9203
    7SAPS    HB  818   3.035   3.720   6.070 -2.1012 -1.3875  0.1907
    7SAPS    C2  819   2.915   3.782   5.880  1.0773  0.0913 -1.0235
    7SAPS    HS  820   2.846   3.697   5.894  0.3524  0.6888 -0.9146
    7SAPS   O21  821   3.023   3.754   5.795  0.1842 -0.4770 -0.0029
    7SAPS   C21  822   3.083   3.638   5.799 -0.0923 -0.0638  0.7758
    7SAPS   O22  823   3.059   3.551   5.885  0.0874  0.1042  0.2513
    7SAPS   C22  824   3.172   3.619   5.672  0.4850  0.4337 -0.8562
    7SAPS   H2R  825   3.130   3.545   5.600 -1.2699 -0.0857  0.6327
    7SAPS   H2S  826   3.174   3.718   5.623 -2.3480  0.3601 -1.2657
    7SAPS    C3  827   2.840   3.916   5.835 -0.0012 -0.0778 -0.0482
    7SAPS    HX  828   2.915   3.999   5.835 -1.1605  1.0160 -0.8464
    7SAPS    HY  829   2.762   3.947   5.907 -1.6429 -2.3724 -0.7354
    7SAPS   O31  830   2.777   3.914   5.709 -0.3338 -0.4974  0.4696
    7SAPS   C31  831   2.795   4.012   5.619  0.5927 -0.0380 -0.7914
    7SAPS   O32  832   2.860   4.112   5.644 -0.0346  0.2234  0.5165
    7SAPS   C32  833   2.729   3.979   5.484  0.3242  0.2914 -0.4172
    7SAPS   H2X  834   2.620   3.972   5.505  0.4042  0.9012  0.2340
    7SAPS   H2Y  835   2.771   3.885   5.442  0.3689  0.7671 -1.4572
    7SAPS   C23  836   3.316   3.576   5.721 -0.3374  0.7282 -0.1896
    7SAPS   H3R  837   3.328   3.467   5.704  2.3294  0.9988 -0.4136
    7SAPS   H3S  838   3.334   3.593   5.830 -2.1909  2.5541 -0.0987
    7SAPS   C24  839   3.429   3.638   5.632 -0.4110 -0.4180 -0.3811
    7SAPS   H4R  840   3.528   3.614   5.677  0.6283  3.4489 -0.2256
    7SAPS   H4S  841   3.410   3.746   5.649 -1.8034 -0.6901 -0.1122
    7SAPS   C25  842   3.421   3.603   5.488 -0.0418  0.0330  0.3893
    7SAPS   H5R  843   3.320   3.586   5.449 -0.2093  2.4335 -0.3743
    7SAPS   C26  844   3.519   3.600   5.395  0.0675 -1.0348 -0.0208
    7SAPS   H6R  845   3.487   3.572   5.294 -0.6844  0.6201 -0.2739
    7SAPS   C27  846   3.666   3.643   5.406  0.3565 -0.2365 -0.4999
    7SAPS   H7R  847   3.717   3.550   5.373 -0.5394 -1.0735  0.3835
    7SAPS   H7S  848   3.697   3.674   5.508 -0.0113  1.9329 -1.0036
    7SAPS   C28  849   3.694   3.762   5.319  0.7632 -0.5905  0.7047
    7SAPS   H8R  850   3.637   3.855   5.334  0.6512 -0.5460  0.0325
    7SAPS   C29  851   3.780   3.782   5.217 -0.1906  0.4994 -0.4263
    7SAPS   H9R  852   3.767   3.872   5.155  1.7528  0.6752 -0.6319
    7SAPS  C210  853   3.880   3.682   5.164  0.0173 -0.0450 -0.1759
    7SAPS  H10R  854   3.866   3.584   5.213 -1.9440  0.1887 -0.1686
    7SAPS  H10S  855   3.983   3.712   5.192 -0.9247 -0.2459  4.0597
    7SAPS  C211  856   3.874   3.658   5.017  0.2093  0.3625 -0.4851
    7SAPS  H11R  857   3.781   3.610   4.983  0.5381 -1.1024  0.5960
    7SAPS  C212  858   3.953   3.704   4.926  0.2537 -0.1716  0.3397
    7SAPS  H12R  859   3.923   3.671   4.825  2.4792  1.5776 -0.9909
    7SAPS  C213  860   4.070   3.797   4.939 -0.0759  0.7946 -0.4627
    7SAPS  H13R  861   4.155   3.736   4.977 -0.6588 -0.7665 -1.5515
    7SAPS  H13S  862   4.050   3.874   5.017 -0.9897 -1.5476  1.7687
    7SAPS  C214  863   4.105   3.865   4.808 -0.6007 -0.1479  0.1424
    7SAPS  H14R  864   4.026   3.926   4.761 -2.4662 -3.6874 -1.6697
    7SAPS  C215  865   4.211   3.850   4.735 -0.6174  0.8564 -0.7870
    7SAPS  H15R  866   4.218   3.914   4.646  1.0951  0.0298 -1.2896
    7SAPS  C216  867   4.339   3.777   4.758  0.2687  0.1672 -0.2364
    7SAPS  H16R  868   4.366   3.725   4.663 -3.1885 -0.9629 -0.7792
    7SAPS  H16S  869   4.332   3.689   4.825  2.3843  0.4178  0.3809
    7SAPS  C217  870   4.451   3.872   4.804  0.1120  0.7982  0.0736
    7SAPS  H17R  871   4.541   3.809   4.790 -0.0486  0.8075 -1.1020
    7SAPS  H17S  872   4.445   3.897   4.912 -0.0107 -1.0716  0.5366
    7SAPS  C218  873   4.469   4.005   4.727  0.4416  0.4109  0.4219
    7SAPS  H18R  874   4.561   4.051   4.768 -0.1246  1.4005  0.6162
    7SAPS  H18S  875   4.394   4.080   4.760  0.9151  1.3881 -0.6503
    7SAPS  C219  876   4.464   3.994   4.570  0.4458  0.7625  0.6507
    7SAPS  H19R  877   4.438   4.095   4.530 -0.8035  0.1065 -0.2378
    7SAPS  H19S  878   4.387   3.923   4.533  0.1398 -0.3959  3.3352
    7SAPS  C220  879   4.601   3.959   4.523  0.2484 -0.3293  0.3062
    7SAPS  H20R  880   4.628   3.854   4.548  0.0120 -1.1643 -2.6289
    7SAPS  H20S  881   4.685   4.016   4.570  1.0650  0.2615 -1.7471
    7SAPS  H20T  882   4.602   3.970   4.413 -2.4649 -1.4030  0.1053
    7SAPS   C33  883   2.746   4.096   5.380  0.2141 -0.2313 -0.5375
    7SAPS   H3X  884   2.848   4.137   5.365 -0.3633  2.9222  2.7525
    7SAPS   H3Y  885   2.683   4.181   5.414  0.7356  0.6037 -1.6224
    7SAPS   C34  886   2.682   4.065   5.241 -0.1403  0.3174 -0.3129
    7SAPS   H4X  887   2.656   4.155   5.181  2.5528  1.5112  0.1716
    7SAPS   H4Y  888   2.583   4.019   5.263  0.3289 -1.2587 -1.2880
    7SAPS   C35  889   2.765   3.970   5.149  1.1009  0.1271  0.7617
    7SAPS   H5X  890   2.776   3.867   5.190  0.4549 -0.7837 -1.1935
    7SAPS   H5Y  891   2.863   4.022   5.138  0.2032  1.8602  0.6496
    7SAPS   C36  892   2.703   3.955   5.005  0.4402 -1.3500 -0.1302
    7SAPS   H6X  893   2.686   4.056   4.961 -3.5566 -1.8358 -0.1104
    7SAPS   H6Y  894   2.605   3.902   5.010 -0.1312 -0.1875  1.6545
    7SAPS   C37  895   2.766   3.869   4.892 -0.5510 -0.0352  0.2212
    7SAPS   H7X  896   2.691   3.836   4.817 -1.0834  0.1342  0.6693
    7SAPS   H7Y  897   2.815   3.790   4.952 -0.1737  0.0697  0.0561
    7SAPS   C38  898   2.880   3.949   4.814 -0.7033 -0.1817  0.2332
    7SAPS   H8X  899   2.932   4.001   4.898  0.2759  0.7401 -0.8952
    7SAPS   H8Y  900   2.839   4.022   4.741  2.8444  1.0834 -0.7150
    7SAPS   C39  901   2.981   3.866   4.732  0.3553  0.1182 -0.0657
    7SAPS   H9X  902   2.932   3.807   4.652 -0.6012  1.3292 -0.3887
    7SAPS   H9Y  903   3.026   3.807   4.815 -1.7299  0.7290  1.5999
    7SAPS  C310  904   3.101   3.943   4.664  0.4119 -0.1307 -0.3641
    7SAPS  H10X  905   3.165   4.004   4.732 -0.3376 -0.5401  0.7427
    7SAPS  H10Y  906   3.054   4.015   4.594  0.1489  0.9122  0.8549
    7SAPS  C311  907   3.188   3.850   4.574 -0.0582  0.6097  0.0630
    7SAPS  H11X  908   3.124   3.782   4.515  1.1964 -1.9269  1.4393
    7SAPS  H11Y  909   3.243   3.778   4.638 -2.6007  0.0402  1.7439
    7SAPS  C312  910   3.289   3.937   4.495 -0.1369 -0.2210 -0.5375
    7SAPS  H12X  911   3.342   4.006   4.564 -0.8931 -0.2867  0.1203
    7SAPS  H12Y  912   3.237   4.010   4.428 -1.0644 -0.0870  0.3023
    7SAPS  C313  913   3.388   3.861   4.407 -0.4461  0.2266 -1.1585
    7SAPS  H13X  914   3.454   3.794   4.466  0.4720  0.2836 -2.0931
    7SAPS  H13Y  915   3.469   3.923   4.363  0.2046 -0.7500 -1.3893
    7SAPS  C314  916   3.323   3.768   4.300 -0.0707 -1.0249  0.0057
    7SAPS  H14X  917   3.261   3.834   4.235 -0.0666  0.1538  1.1625
    7SAPS  H14Y  918   3.254   3.692   4.342 -0.0804 -0.4537  1.0376
    7SAPS  C315  919   3.422   3.688   4.212 -1.0533 -0.3598  0.3667
    7SAPS  H15X  920   3.377   3.603   4.158  2.1937 -1.7711 -0.3508
    7SAPS  H15Y  921   3.502   3.652   4.281  1.2718 -0.9577 -2.4774
    7SAPS  C316  922   3.495   3.785   4.113  0.4392 -0.0223  1.0703
    7SAPS  H16X  923   3.555   3.862   4.164  2.9012 -0.5104 -0.8777
    7SAPS  H16Y  924   3.411   3.841   4.065  1.5911  0.1356 -0.8654
    7SAPS  C317  925   3.577   3.712   4.005 -0.4710 -0.5822 -0.1797
    7SAPS  H17X  926   3.575   3.773   3.912  1.6966 -1.0591 -0.5896
    7SAPS  H17Y  927   3.517   3.621   3.982 -1.8668  0.3979 -0.5716
    7SAPS  C318  928   3.729   3.687   4.031  0.6622 -0.4168  1.0915
    7SAPS  H18X  929   3.777   3.782   4.064 -0.5776 -0.2032  2.3705
    7SAPS  H18Y  930   3.780   3.641   3.943  1.8486  0.9101  1.0547
    7SAPS  H18Z  931   3.752   3.603   4.099 -0.7481 -2.1818 -0.4821
    8SAPS     N  932   3.793   5.097   6.497 -0.3253  0.2477 -0.5004
    8SAPS   HN1  933   3.707   5.063   6.449  0.8594  0.0784 -2.6273
    8SAPS   HN2  934   3.828   5.180   6.445  0.6155 -0.3603 -0.8643
    8SAPS   HN3  935   3.863   5.020   6.493  0.3598  0.7746  0.7781
    8SAPS   C12  936   3.777   5.122   6.644  0.2660  0.2120 -0.3795
    8SAPS  H12A  937   3.794   5.025   6.689 -0.2091 -0.2022 -1.0665
    8SAPS   C13  938   3.893   5.211   6.710  1.2275  0.0118  0.6862
    8SAPS  O13A  939   3.994   5.224   6.638  0.2133  0.1169 -0.8600
    8SAPS  O13B  940   3.889   5.228   6.832 -0.2550 -0.4330  0.6715
    8SAPS   C11  941   3.635   5.178   6.676  0.0159 -0.3706  0.5269
    8SAPS  H11A  942   3.634   5.185   6.787 -0.6571 -1.8984  0.6483
    8SAPS  H11B  943   3.552   5.112   6.642  0.2771 -0.4363 -0.0014
    8SAPS     P  944   3.499   5.395   6.663 -0.4866  0.4193  0.3429
    8SAPS   O13  945   3.423   5.344   6.782  0.8882 -0.0547  0.1134
    8SAPS   O14  946   3.540   5.538   6.678  0.2247 -0.4540 -0.2806
    8SAPS   O12  947   3.619   5.306   6.616  0.6944  0.1830 -0.4699
    8SAPS   O11  948   3.401   5.380   6.543 -0.8713 -0.0132  0.1978
    8SAPS    C1  949   3.422   5.319   6.414 -0.1722 -0.2591 -0.3444
    8SAPS    HA  950   3.461   5.217   6.430  1.4559  0.4101  0.2122
    8SAPS    HB  951   3.331   5.294   6.356 -2.3147 -1.2627  3.1570
    8SAPS    C2  952   3.529   5.392   6.325 -0.4042  0.1364 -0.1237
    8SAPS    HS  953   3.620   5.415   6.384 -1.2962 -1.9029  2.1745
    8SAPS   O21  954   3.462   5.506   6.260 -0.3544  0.1753 -0.1938
    8SAPS   C21  955   3.550   5.599   6.232 -0.7019  0.0272 -0.7443
    8SAPS   O22  956   3.674   5.592   6.249  0.4679 -0.6558  0.6800
    8SAPS   C22  957   3.474   5.709   6.167  0.1140 -0.2613  0.8498
    8SAPS   H2R  958   3.367   5.692   6.188  0.0315 -1.8032 -0.6766
    8SAPS   H2S  959   3.511   5.808   6.203  1.2466 -0.7102  0.9759
    8SAPS    C3  960   3.584   5.296   6.208 -0.2390  0.6468  0.2711
    8SAPS    HX  961   3.496   5.290   6.140 -1.1072 -1.6167  1.4537
    8SAPS    HY  962   3.601   5.202   6.266 -3.6174  0.3481  0.9905
    8SAPS   O31  963   3.703   5.336   6.137  0.1554  0.2237 -0.3285
    8SAPS   C31  964   3.824   5.337   6.194 -0.1706  0.3873 -0.0982
    8SAPS   O32  965   3.848   5.300   6.312 -0.6625  0.4852 -0.3874
    8SAPS   C32  966   3.924   5.405   6.099  1.1265  0.9055  0.7531
    8SAPS   H2X  967   4.030   5.373   6.112  0.5186 -0.5169  2.6820
    8SAPS   H2Y  968   3.924   5.516   6.103 -0.3568  1.0825 -1.9290
    8SAPS   C23  969   3.512   5.706   6.018 -0.1015 -0.3944 -0.4627
    8SAPS   H3R  970   3.623   5.711   6.020 -0.1534  1.1817 -0.2956
    8SAPS   H3S  971   3.482   5.805   5.976 -1.3477  0.6316  2.5684
    8SAPS   C24  972   3.440   5.596   5.940  0.4935  0.0536  0.2370
    8SAPS   H4R  973   3.454   5.507   6.004 -3.4348 -1.1790 -0.3394
    8SAPS   H4S  974   3.496   5.572   5.847  0.4734  3.2853 -0.7210
    8SAPS   C25  975   3.290   5.621   5.916 -0.4017  0.1396 -0.2890
    8SAPS   H5R  976   3.221   5.561   5.977 -0.7890  1.4844  0.6675
    8SAPS   C26  977   3.232   5.714   5.834  0.3338  0.1655  0.0702
    8SAPS   H6R  978   3.123   5.727   5.831  0.0749 -1.7103 -0.3234
    8SAPS   C27  979   3.309   5.810   5.762  0.0192 -0.5233  0.3598
    8SAPS   H7R  980   3.413   5.785   5.731  0.6583  1.6468  0.5820
    8SAPS   H7S  981   3.334   5.888   5.837 -0.8990  0.1040  0.0311
    8SAPS   C28  982   3.248   5.882   5.647  0.1962  0.1724 -0.8742
    8SAPS   H8R  983   3.212   5.981   5.679 -0.5337 -0.4311  0.2312
    8SAPS   C29  984   3.236   5.846   5.521  0.5695  0.4858  0.4072
    8SAPS   H9R  985   3.203   5.922   5.449  1.0320  0.6364  0.3523
    8SAPS  C210  986   3.250   5.712   5.459 -0.1772 -0.3060  0.3142
    8SAPS  H10R  987   3.195   5.712   5.363  0.1442 -1.5568  0.1133
    8SAPS  H10S  988   3.195   5.631   5.511 -0.6822  0.4914  1.0622
    8SAPS  C211  989   3.396   5.690   5.424  0.3481  0.4186 -0.5830
    8SAPS  H11R  990   3.465   5.715   5.506 -1.7823  1.6684  0.9305
    8SAPS  C212  991   3.445   5.639   5.311  0.5130 -0.0293  0.1601
    8SAPS  H12R  992   3.552   5.624   5.291  0.7413  0.6166  0.8562
    8SAPS  C213  993   3.359   5.598   5.196  0.0594  0.3016  0.1423
    8SAPS  H13R  994   3.260   5.563   5.232  0.5891 -0.1619  1.2017
    8SAPS  H13S  995   3.410   5.513   5.145 -1.8691 -0.0771 -1.2644
    8SAPS  C214  996   3.338   5.710   5.097 -1.0298  0.3449 -0.1283
    8SAPS  H14R  997   3.382   5.806   5.131 -1.3450  0.5155 -0.1989
    8SAPS  C215  998   3.277   5.708   4.975 -0.3712  0.9550 -0.4213
    8SAPS  H15R  999   3.270   5.798   4.912 -1.5263  1.4940  0.4429
    8SAPS  C216 1000   3.210   5.593   4.897 -0.7123  0.0898 -0.1187
    8SAPS  H16R 1001   3.235   5.499   4.950 -1.9064  1.2664  2.7512
    8SAPS  H16S 1002   3.263   5.589   4.800 -0.6582 -0.7288 -0.0562
    8SAPS  C217 1003   3.061   5.596   4.884  0.1358 -0.4308  0.7623
    8SAPS  H17R 1004   3.035   5.669   4.805  2.9916  1.1491  1.1251
    8SAPS  H17S 1005   3.013   5.632   4.978 -0.6120  0.8410 -0.0815
    8SAPS  C218 1006   3.001   5.456   4.851  0.1845  0.1867 -0.2219
    8SAPS  H18R 1007   3.065   5.416   4.770 -1.3223 -1.5588 -0.6391
    8SAPS  H18S 1008   2.892   5.469   4.833  0.0928  0.6166  0.6048
    8SAPS  C219 1009   2.990   5.363   4.976 -0.3879  0.1039 -1.6064
    8SAPS  H19R 1010   2.954   5.428   5.059 -0.7932 -1.3662 -0.6003
    8SAPS  H19S 1011   3.092   5.333   5.010 -0.7473  1.2357  0.7371
    8SAPS  C220 1012   2.899   5.245   4.970 -0.9837  0.1010 -0.0014
    8SAPS  H20R 1013   2.797   5.276   4.938 -1.0834  1.3760  1.4443
    8SAPS  H20S 1014   2.883   5.194   5.067 -2.1285 -0.9379 -0.6976
    8SAPS  H20T 1015   2.928   5.174   4.890 -1.4260  0.2373 -0.2898
    8SAPS   C33 1016   3.893   5.378   5.951  0.1221  0.1819 -0.4241
    8SAPS   H3X 1017   3.806   5.442   5.928  1.1868  1.7380 -0.2721
    8SAPS   H3Y 1018   3.853   5.277   5.930  0.2753 -0.0548  0.3933
    8SAPS   C34 1019   4.003   5.418   5.853 -0.1851  0.5521  0.1566
    8SAPS   H4X 1020   4.096   5.368   5.887 -0.5402  0.4553  1.0157
    8SAPS   H4Y 1021   4.005   5.528   5.867 -1.8338  0.4666  1.4648
    8SAPS   C35 1022   3.962   5.390   5.703  0.2190  0.6000 -0.0472
    8SAPS   H5X 1023   3.852   5.404   5.702  0.1359  0.2524  1.5879
    8SAPS   H5Y 1024   3.964   5.286   5.663 -0.4938  1.5586 -2.8685
    8SAPS   C36 1025   4.031   5.493   5.605  0.3456 -0.1494 -0.2614
    8SAPS   H6X 1026   4.141   5.492   5.620  0.3759  0.8303 -0.3197
    8SAPS   H6Y 1027   4.001   5.597   5.631 -0.7263 -0.0472 -1.7548
    8SAPS   C37 1028   3.994   5.480   5.456  0.2138  0.2776 -0.0608
    8SAPS   H7X 1029   3.884   5.469   5.468  0.2534  0.6895  0.7100
    8SAPS   H7Y 1030   4.038   5.396   5.398 -0.2585  0.6512 -0.9893
    8SAPS   C38 1031   4.026   5.605   5.379  0.4801  0.2259 -0.2909
    8SAPS   H8X 1032   4.132   5.622   5.350  0.3551 -1.3364 -1.8591
    8SAPS   H8Y 1033   3.983   5.693   5.431 -1.5065 -0.8776  0.0114
    8SAPS   C39 1034   3.957   5.595   5.243 -0.4334 -0.7737  1.0919
    8SAPS   H9X 1035   3.995   5.501   5.199  1.2201  0.4080 -0.1328
    8SAPS   H9Y 1036   3.990   5.675   5.173  0.1847 -0.5538  1.6142
    8SAPS  C310 1037   3.808   5.580   5.242 -0.4145 -0.2274 -0.2056
    8SAPS  H10X 1038   3.773   5.674   5.290 -1.8569 -1.4466  1.2498
    8SAPS  H10Y 1039   3.778   5.487   5.296  2.8552 -1.2541  0.0427
    8SAPS  C311 1040   3.755   5.555   5.097  0.4091 -1.0180 -0.9915
    8SAPS  H11X 1041   3.649   5.528   5.116  0.4464 -0.8459 -0.5285
    8SAPS  H11Y 1042   3.799   5.465   5.050  1.0462 -0.2010 -2.0094
    8SAPS  C312 1043   3.729   5.676   5.015 -0.0352 -0.3995 -0.0802
    8SAPS  H12X 1044   3.822   5.729   4.984 -0.4349  0.9394  0.8984
    8SAPS  H12Y 1045   3.675   5.755   5.072  2.0873 -0.1342  1.7041
    8SAPS  C313 1046   3.664   5.633   4.886 -0.1077  0.3306  0.4109
    8SAPS  H13X 1047   3.576   5.571   4.914  0.6619 -1.1319 -0.2872
    8SAPS  H13Y 1048   3.722   5.560   4.825 -1.1031 -0.1046 -0.0272
    8SAPS  C314 1049   3.615   5.746   4.801 -0.5117  0.1867  0.0648
    8SAPS  H14X 1050   3.699   5.817   4.783 -1.3633  2.0013  2.7300
    8SAPS  H14Y 1051   3.534   5.799   4.856  0.0219  0.2940  0.7641
    8SAPS  C315 1052   3.542   5.693   4.673  0.1434 -0.5965  0.2327
    8SAPS  H15X 1053   3.447   5.648   4.711  0.9035 -0.3262  2.6284
    8SAPS  H15Y 1054   3.603   5.622   4.613 -0.1705 -1.1762  0.5867
    8SAPS  C316 1055   3.499   5.804   4.572  0.5970 -0.7759  0.2413
    8SAPS  H16X 1056   3.586   5.868   4.549 -0.9750  0.7825 -1.8442
    8SAPS  H16Y 1057   3.428   5.868   4.629  1.1436 -0.0590  0.1261
    8SAPS  C317 1058   3.434   5.745   4.450  0.4839  0.0007 -0.1288
    8SAPS  H17X 1059   3.387   5.825   4.388 -0.6123  0.6949  1.5401
    8SAPS  H17Y 1060   3.355   5.684   4.498  1.3971 -2.4725 -1.5911
    8SAPS  C318 1061   3.523   5.657   4.367 -0.3429  0.0217  0.0329
    8SAPS  H18X 1062   3.603   5.718   4.319 -0.4040  1.4111  1.6044
    8SAPS  H18Y 1063   3.471   5.612   4.280  1.5739  1.3653 -1.9292
    8SAPS  H18Z 1064   3.569   5.567   4.412  2.4035  0.0710 -2.3716
    9SAPS     N 1065   1.855   4.715   6.293 -0.9649 -0.3435  0.1862
    9SAPS   HN1 1066   1.936   4.774   6.321 -0.6536 -0.8632  0.4048
    9SAPS   HN2 1067   1.881   4.622   6.253 -0.4111 -0.0579 -0.1328
    9SAPS   HN3 1068   1.792   4.766   6.229 -0.8668 -1.6838 -1.0296
    9SAPS   C12 1069   1.771   4.703   6.413 -0.1694 -0.2484 -0.5846
    9SAPS  H12A 1070   1.816   4.624   6.472 -2.4655 -2.5012 -1.6376
    9SAPS   C13 1071   1.736   4.818   6.502 -0.2348  0.1645 -0.1096
    9SAPS  O13A 1072   1.778   4.935   6.468  0.9018  0.5229 -0.5115
    9SAPS  O13B 1073   1.667   4.797   6.603 -0.6110 -0.2674  0.0335
    9SAPS   C11 1074   1.638   4.628   6.371 -0.7291 -0.0188  0.1399
    9SAPS  H11A 1075   1.584   4.680   6.288  0.7789  2.2019  0.4538
    9SAPS  H11B 1076   1.572   4.616   6.459  1.3059 -0.2551  1.6978
    9SAPS     P 1077   1.577   4.393   6.271 -0.2145 -0.3083 -0.5794
    9SAPS   O13 1078   1.655   4.278   6.213  0.5244  0.2136 -0.2881
    9SAPS   O14 1079   1.476   4.364   6.374  0.3444  0.6400 -0.1432
    9SAPS   O12 1080   1.671   4.500   6.329 -0.1784 -0.0786 -0.4110
    9SAPS   O11 1081   1.503   4.480   6.153 -0.5717 -0.0094 -0.2014
    9SAPS    C1 1082   1.578   4.507   6.033 -0.5562  0.2300 -0.4095
    9SAPS    HA 1083   1.535   4.602   5.993 -0.8180  0.0581 -0.5378
    9SAPS    HB 1084   1.682   4.539   6.053 -1.2341  1.8935  0.7233
    9SAPS    C2 1085   1.548   4.393   5.930  0.0936  1.4369  0.4156
    9SAPS    HS 1086   1.619   4.310   5.951 -1.9917  0.1085  2.6033
    9SAPS   O21 1087   1.541   4.444   5.795  0.2197  0.5257  0.3200
    9SAPS   C21 1088   1.641   4.520   5.743 -0.2864 -1.2178 -0.2084
    9SAPS   O22 1089   1.751   4.534   5.787 -0.5269 -0.6326  0.8189
    9SAPS   C22 1090   1.588   4.577   5.613 -0.0504 -0.4261  0.3906
    9SAPS   H2R 1091   1.522   4.499   5.569 -1.0793  0.2678  0.6972
    9SAPS   H2S 1092   1.515   4.655   5.642 -0.7202  0.5856 -3.4611
    9SAPS    C3 1093   1.422   4.314   5.953 -0.4129  0.9786  0.0415
    9SAPS    HX 1094   1.342   4.389   5.973 -2.4316 -0.8392 -0.7628
    9SAPS    HY 1095   1.420   4.260   6.050  1.4232  3.1473  1.3991
    9SAPS   O31 1096   1.389   4.217   5.847  0.0255 -0.1024 -0.1309
    9SAPS   C31 1097   1.307   4.270   5.756 -0.6838 -0.2075 -0.2210
    9SAPS   O32 1098   1.264   4.384   5.760  0.2936 -0.1582 -0.0902
    9SAPS   C32 1099   1.268   4.150   5.660 -0.7977  0.3456 -0.7272
    9SAPS   H2X 1100   1.261   4.050   5.708  0.7629  0.3279 -0.5026
    9SAPS   H2Y 1101   1.360   4.148   5.599  0.5980 -1.4361  1.2792
    9SAPS   C23 1102   1.700   4.636   5.515 -0.2103  0.6834 -0.6426
    9SAPS   H3R 1103   1.748   4.727   5.557  0.9390  0.0186 -0.4814
    9SAPS   H3S 1104   1.642   4.671   5.427  1.9883  1.7752 -1.7528
    9SAPS   C24 1105   1.795   4.534   5.461 -0.0267  0.5058  0.1863
    9SAPS   H4R 1106   1.873   4.504   5.534 -0.5592  0.6255  0.8058
    9SAPS   H4S 1107   1.862   4.583   5.387 -0.0956 -0.2538 -0.3951
    9SAPS   C25 1108   1.714   4.420   5.396 -0.0433  0.3893  0.1352
    9SAPS   H5R 1109   1.658   4.357   5.466 -1.8178  2.0989  0.3449
    9SAPS   C26 1110   1.711   4.393   5.266 -0.3378  0.1617  0.4943
    9SAPS   H6R 1111   1.648   4.307   5.237  0.4819 -0.1584 -0.3821
    9SAPS   C27 1112   1.754   4.468   5.141  0.4830  0.0763  0.1791
    9SAPS   H7R 1113   1.747   4.397   5.056  1.4343 -0.4453  0.5235
    9SAPS   H7S 1114   1.859   4.504   5.143  1.1838 -1.8673 -0.0752
    9SAPS   C28 1115   1.683   4.596   5.110 -0.3873 -0.0913  0.6419
    9SAPS   H8R 1116   1.605   4.613   5.186  1.4273 -2.4844  3.2727
    9SAPS   C29 1117   1.708   4.676   5.003  0.2817  0.0828 -0.4624
    9SAPS   H9R 1118   1.653   4.771   4.988  0.2867  0.3304  0.9525
    9SAPS  C210 1119   1.811   4.647   4.895 -0.0468 -0.3314 -0.7502
    9SAPS  H10R 1120   1.897   4.605   4.951  1.1270  1.6113 -0.9984
    9SAPS  H10S 1121   1.846   4.746   4.858 -2.0708  1.5729  1.9831
    9SAPS  C211 1122   1.768   4.558   4.775 -0.2343 -0.0385 -0.6179
    9SAPS  H11R 1123   1.666   4.518   4.781  0.0846 -0.6522  1.9274
    9SAPS  C212 1124   1.844   4.525   4.666 -0.4897  1.2790  0.1309
    9SAPS  H12R 1125   1.801   4.456   4.592  2.0412 -1.0932  0.7071
    9SAPS  C213 1126   1.982   4.563   4.628 -0.2183 -0.1920 -0.0518
    9SAPS  H13R 1127   2.005   4.659   4.678 -1.5140  0.0893  0.0335
    9SAPS  H13S 1128   1.982   4.587   4.519 -1.2813 -1.6350 -0.3918
    9SAPS  C214 1129   2.086   4.456   4.658  0.3152  0.2893 -0.1291
    9SAPS  H14R 1130   2.044   4.356   4.678  2.4708 -0.7242 -0.4350
    9SAPS  C215 1131   2.214   4.478   4.662 -0.3788  0.7910  0.0745
    9SAPS  H15R 1132   2.279   4.397   4.699 -0.0388  0.1539 -1.8313
    9SAPS  C216 1133   2.284   4.610   4.651  0.0300 -0.6577 -0.1724
    9SAPS  H16R 1134   2.236   4.687   4.587  2.3661  1.9054  0.9424
    9SAPS  H16S 1135   2.387   4.604   4.610  0.5946  1.2125  0.8847
    9SAPS  C217 1136   2.309   4.665   4.795  0.6076  0.1157  0.1804
    9SAPS  H17R 1137   2.378   4.752   4.797  0.3689  0.2920  1.7468
    9SAPS  H17S 1138   2.360   4.586   4.854 -0.3167 -0.6967 -0.0618
    9SAPS  C218 1139   2.194   4.711   4.880  0.4681  0.6213  0.0735
    9SAPS  H18R 1140   2.152   4.623   4.934 -0.2298  0.7959 -0.1729
    9SAPS  H18S 1141   2.112   4.757   4.820 -0.1235 -0.1988  0.2217
    9SAPS  C219 1142   2.245   4.803   4.990 -0.4523  0.7235  0.4746
    9SAPS  H19R 1143   2.340   4.762   5.030 -0.8087  0.1779  0.7627
    9SAPS  H19S 1144   2.170   4.824   5.069 -1.6579  1.6563 -0.8647
    9SAPS  C220 1145   2.276   4.951   4.949  0.1255  0.6076 -0.5494
    9SAPS  H20R 1146   2.365   4.963   4.884 -0.3922  0.6442 -1.2535
    9SAPS  H20S 1147   2.297   5.008   5.042 -1.7709  0.4931 -0.0037
    9SAPS  H20T 1148   2.190   5.000   4.899 -1.0449 -0.1215  0.6557
    9SAPS   C33 1149   1.157   4.183   5.558 -0.2229 -0.2437 -0.1711
    9SAPS   H3X 1150   1.137   4.293   5.561 -0.0523 -0.2244  0.3889
    9SAPS   H3Y 1151   1.063   4.140   5.599 -1.0293  3.0593  1.8898
    9SAPS   C34 1152   1.192   4.143   5.416  0.3778  0.7999  0.2740
    9SAPS   H4X 1153   1.290   4.189   5.390  0.2094  1.6390  1.0985
    9SAPS   H4Y 1154   1.113   4.172   5.343  1.6057 -0.4315 -1.6354
    9SAPS   C35 1155   1.218   3.998   5.407 -0.1525 -0.4152 -0.3143
    9SAPS   H5X 1156   1.130   3.938   5.441  0.7027 -1.4221  0.1993
    9SAPS   H5Y 1157   1.298   3.969   5.479 -0.1845  1.1600  0.3890
    9SAPS   C36 1158   1.273   3.947   5.271  0.6058  0.2777 -0.3679
    9SAPS   H6X 1159   1.241   3.843   5.252  0.2238  0.5521 -1.3252
    9SAPS   H6Y 1160   1.383   3.961   5.275  0.6083  0.2121 -0.2230
    9SAPS   C37 1161   1.197   4.014   5.156  0.1671  0.0572 -0.1676
    9SAPS   H7X 1162   1.235   4.116   5.133 -2.9860  0.8820 -2.5003
    9SAPS   H7Y 1163   1.092   4.017   5.190  0.6005  0.8441  1.1798
    9SAPS   C38 1164   1.192   3.927   5.029 -0.4690 -0.6621 -0.0653
    9SAPS   H8X 1165   1.114   3.979   4.970  2.1870  2.1162 -1.4337
    9SAPS   H8Y 1166   1.163   3.823   5.057 -1.2135 -0.1423  1.2014
    9SAPS   C39 1167   1.327   3.937   4.959  0.0539 -0.2915 -0.5759
    9SAPS   H9X 1168   1.326   3.881   4.863  4.0954  1.3512 -1.7691
    9SAPS   H9Y 1169   1.398   3.900   5.036  0.8920 -0.6710 -1.5102
    9SAPS  C310 1170   1.373   4.078   4.923 -0.4979  0.4606  0.1020
    9SAPS  H10X 1171   1.409   4.136   5.011  0.4269 -0.4546  0.3405
    9SAPS  H10Y 1172   1.288   4.136   4.881  0.6955  1.8760 -0.4413
    9SAPS  C311 1173   1.477   4.068   4.808 -0.3812 -0.3777 -0.0547
    9SAPS  H11X 1174   1.429   4.017   4.721  0.4864 -3.2833  1.0640
    9SAPS  H11Y 1175   1.568   4.014   4.841  1.6746  2.6377 -0.4161
    9SAPS  C312 1176   1.514   4.216   4.759  0.3075  0.0811  0.0330
    9SAPS  H12X 1177   1.555   4.276   4.843 -2.6298 -0.8419  2.3168
    9SAPS  H12Y 1178   1.417   4.261   4.728 -0.6330 -1.4296  0.6609
    9SAPS  C313 1179   1.611   4.230   4.642 -0.8522 -0.1117  0.5031
    9SAPS  H13X 1180   1.622   4.335   4.608  1.3754 -1.4039 -3.4742
    9SAPS  H13Y 1181   1.573   4.189   4.546 -1.5158 -0.3042  0.8403
    9SAPS  C314 1182   1.753   4.176   4.671 -0.0175  0.5855  0.4486
    9SAPS  H14X 1183   1.742   4.069   4.699  1.3484  0.4181  0.4287
    9SAPS  H14Y 1184   1.803   4.235   4.751  1.1652  2.1050 -1.3193
    9SAPS  C315 1185   1.839   4.171   4.538  0.4759  0.7580 -0.1529
    9SAPS  H15X 1186   1.857   4.266   4.484  1.5601 -0.2306 -1.6041
    9SAPS  H15Y 1187   1.770   4.113   4.473 -0.0261  0.2438  0.8095
    9SAPS  C316 1188   1.969   4.097   4.554 -0.4044 -0.1922 -0.2205
    9SAPS  H16X 1189   1.953   3.997   4.601 -0.7802  0.4857  1.1430
    9SAPS  H16Y 1190   2.033   4.150   4.628  0.2872 -0.2793 -0.7462
    9SAPS  C317 1191   2.029   4.070   4.417  0.1071  0.6692 -0.2507
    9SAPS  H17X 1192   2.131   4.029   4.433  0.9579  2.8157  0.1538
    9SAPS  H17Y 1193   2.053   4.162   4.359  0.8149  0.4579 -0.2902
    9SAPS  C318 1194   1.948   3.980   4.316  0.2936  0.2713  0.4819
    9SAPS  H18X 1195   1.982   4.007   4.214 -0.4281 -0.0557  0.1444
    9SAPS  H18Y 1196   1.837   3.989   4.317  0.2707  0.5757 -1.4034
    9SAPS  H18Z 1197   1.974   3.875   4.340 -0.8199 -0.0483  0.3581
   10SAPS     N 1198   2.695   4.737   6.267 -0.0008 -0.3352 -0.3303
   10SAPS   HN1 1199   2.632   4.715   6.346 -1.9570 -1.7928 -2.1775
   10SAPS   HN2 1200   2.763   4.811   6.294 -0.0163  0.0643 -1.3408
   10SAPS   HN3 1201   2.631   4.767   6.190  1.5579 -0.0016 -1.5358
   10SAPS   C12 1202   2.761   4.601   6.235 -0.0105 -0.3640 -0.5905
   10SAPS  H12A 1203   2.840   4.621   6.164 -0.8745  1.8280 -1.0071
   10SAPS   C13 1204   2.821   4.526   6.362 -0.5760  0.1200  0.2278
   10SAPS  O13A 1205   2.829   4.594   6.472 -0.4345  0.0431  0.6997
   10SAPS  O13B 1206   2.871   4.414   6.339 -0.1683 -0.4720 -0.2778
   10SAPS   C11 1207   2.652   4.511   6.173 -0.6657 -0.5057 -0.3142
   10SAPS  H11A 1208   2.569   4.491   6.245  0.7435 -0.5257  1.3549
   10SAPS  H11B 1209   2.694   4.409   6.164 -1.2949 -0.7126 -1.0762
   10SAPS     P 1210   2.678   4.512   5.906 -0.2396 -0.3843 -0.1419
   10SAPS   O13 1211   2.674   4.615   5.806  0.0611 -1.0659 -0.6067
   10SAPS   O14 1212   2.811   4.448   5.932  0.0484  0.4553  0.3083
   10SAPS   O12 1213   2.623   4.561   6.046  0.7764  0.1516  0.3864
   10SAPS   O11 1214   2.578   4.400   5.870  0.6890  0.0157  0.1835
   10SAPS    C1 1215   2.609   4.259   5.859 -0.0874 -0.3430  0.8097
   10SAPS    HA 1216   2.645   4.230   5.758  0.9828  1.2852  0.6753
   10SAPS    HB 1217   2.689   4.223   5.928  0.4735 -2.6852 -0.9580
   10SAPS    C2 1218   2.491   4.166   5.893  0.6164  0.5251  0.3261
   10SAPS    HS 1219   2.514   4.126   5.994 -0.7014 -0.1680  0.3726
   10SAPS   O21 1220   2.482   4.062   5.792  0.1823 -0.3957 -0.3669
   10SAPS   C21 1221   2.440   3.938   5.840 -0.1759 -0.1447 -0.2420
   10SAPS   O22 1222   2.417   3.908   5.955 -0.6587  0.6116 -0.1020
   10SAPS   C22 1223   2.419   3.861   5.716 -0.2166  0.5816 -0.6712
   10SAPS   H2R 1224   2.518   3.847   5.668 -0.6573 -0.4609 -1.3028
   10SAPS   H2S 1225   2.383   3.762   5.752  0.3748  0.4311 -0.4851
   10SAPS    C3 1226   2.363   4.238   5.894  0.4674  0.1101  0.8793
   10SAPS    HX 1227   2.365   4.295   5.798  0.5229 -2.5841 -0.7995
   10SAPS    HY 1228   2.359   4.324   5.966 -1.4173  2.6940 -2.0403
   10SAPS   O31 1229   2.240   4.162   5.890  0.3641 -0.2087 -0.2208
   10SAPS   C31 1230   2.200   4.113   6.006  0.0918  0.2345  0.3474
   10SAPS   O32 1231   2.266   4.110   6.108  0.0918 -0.0189  0.0578
   10SAPS   C32 1232   2.060   4.042   5.976 -0.1844  0.0498  0.6384
   10SAPS   H2X 1233   2.053   4.034   5.866  1.2238  2.7248  0.2625
   10SAPS   H2Y 1234   1.988   4.117   6.014  0.5306  0.6070  0.9224
   10SAPS   C23 1235   2.328   3.911   5.607 -0.0556 -0.2365 -0.5359
   10SAPS   H3R 1236   2.382   3.993   5.555  2.1223 -0.2469  1.5000
   10SAPS   H3S 1237   2.229   3.944   5.645 -0.3629 -2.7754  1.1590
   10SAPS   C24 1238   2.296   3.802   5.501  0.4652 -0.0997  0.0450
   10SAPS   H4R 1239   2.214   3.851   5.445  1.3070 -1.0488 -2.1467
   10SAPS   H4S 1240   2.237   3.719   5.545 -3.3619  2.2171 -0.3245
   10SAPS   C25 1241   2.413   3.764   5.414  0.4367 -0.5095  0.4805
   10SAPS   H5R 1242   2.492   3.715   5.472 -0.2359 -1.3384  0.7137
   10SAPS   C26 1243   2.420   3.773   5.283  0.1797  0.5087 -0.5202
   10SAPS   H6R 1244   2.502   3.728   5.226 -0.1937  0.0654 -0.7156
   10SAPS   C27 1245   2.321   3.827   5.182 -0.7376  0.3059  0.1321
   10SAPS   H7R 1246   2.368   3.917   5.136 -0.1850  0.3268  0.7150
   10SAPS   H7S 1247   2.224   3.866   5.217 -0.7304 -1.4204  2.2353
   10SAPS   C28 1248   2.286   3.732   5.070  0.3263 -0.1394  0.2904
   10SAPS   H8R 1249   2.280   3.626   5.096 -0.5936 -0.3592 -0.7321
   10SAPS   C29 1250   2.265   3.763   4.941  0.4425 -1.1162 -0.1880
   10SAPS   H9R 1251   2.222   3.680   4.884  0.1148 -1.4043  0.4607
   10SAPS  C210 1252   2.283   3.894   4.869  0.2192  0.1365  0.9276
   10SAPS  H10R 1253   2.378   3.939   4.904 -0.2408  1.3084  0.7185
   10SAPS  H10S 1254   2.199   3.959   4.901 -1.0163  0.5614 -2.7171
   10SAPS  C211 1255   2.305   3.892   4.724  0.0288 -0.1563  0.0119
   10SAPS  H11R 1256   2.293   3.790   4.684  0.6217 -0.0399 -0.4709
   10SAPS  C212 1257   2.368   3.982   4.650  0.4862 -0.3025 -0.4101
   10SAPS  H12R 1258   2.381   3.977   4.541  0.7156 -0.3606 -0.3811
   10SAPS  C213 1259   2.395   4.122   4.702  0.6851 -0.1986  0.2158
   10SAPS  H13R 1260   2.369   4.141   4.808 -1.5309 -0.5444 -0.2243
   10SAPS  H13S 1261   2.325   4.187   4.646  1.8809  0.1592 -0.9079
   10SAPS  C214 1262   2.539   4.151   4.675  0.3714 -0.0568 -0.2605
   10SAPS  H14R 1263   2.607   4.092   4.738  1.3092  1.6146  0.3592
   10SAPS  C215 1264   2.590   4.251   4.602  0.2669  0.9612  0.0562
   10SAPS  H15R 1265   2.698   4.237   4.588  0.0957 -0.3458 -0.1133
   10SAPS  C216 1266   2.519   4.356   4.522 -0.5659  0.1107 -0.6431
   10SAPS  H16R 1267   2.542   4.455   4.566  0.7473  0.0578 -1.1603
   10SAPS  H16S 1268   2.409   4.352   4.534 -0.5035 -2.7245 -0.2515
   10SAPS  C217 1269   2.541   4.350   4.371 -0.6915  0.2835 -0.1652
   10SAPS  H17R 1270   2.512   4.263   4.309  1.3606  0.5685 -1.6294
   10SAPS  H17S 1271   2.651   4.351   4.358 -0.8575  1.6955 -2.0024
   10SAPS  C218 1272   2.488   4.479   4.297 -0.1835 -0.1110  0.0028
   10SAPS  H18R 1273   2.536   4.487   4.198  1.0086 -0.6477  0.5133
   10SAPS  H18S 1274   2.520   4.572   4.348 -0.7441 -0.9402  1.9771
   10SAPS  C219 1275   2.335   4.465   4.281 -0.0162  0.0846 -0.2115
   10SAPS  H19R 1276   2.294   4.461   4.384 -0.8923 -0.8351 -0.5764
   10SAPS  H19S 1277   2.319   4.365   4.235 -0.5652  0.0026  0.1482
   10SAPS  C220 1278   2.270   4.568   4.192  0.1847 -0.0598 -0.7079
   10SAPS  H20R 1279   2.161   4.546   4.195  0.1433  0.2227  0.0806
   10SAPS  H20S 1280   2.302   4.582   4.087 -0.6830 -1.0133 -1.1133
   10SAPS  H20T 1281   2.278   4.665   4.246 -1.7659 -0.9691  1.4121
   10SAPS   C33 1282   2.030   3.915   6.048 -0.2052 -0.1151 -0.5664
   10SAPS   H3X 1283   2.007   3.945   6.152  1.4547  0.8078 -0.4273
   10SAPS   H3Y 1284   2.126   3.864   6.070 -0.9519 -0.1223  3.2809
   10SAPS   C34 1285   1.938   3.821   5.972  0.2855 -0.0805 -0.1817
   10SAPS   H4X 1286   1.836   3.857   5.947 -0.8472 -2.0130  1.3650
   10SAPS   H4Y 1287   1.921   3.740   6.046  1.2993  1.1514  1.4609
   10SAPS   C35 1288   2.006   3.763   5.844  0.4664  0.1173  0.4270
   10SAPS   H5X 1289   2.113   3.746   5.867 -0.2936 -1.6117  3.1184
   10SAPS   H5Y 1290   1.996   3.847   5.772 -0.6270 -1.2323 -1.0615
   10SAPS   C36 1291   1.935   3.642   5.782 -0.7909  0.5708  0.3611
   10SAPS   H6X 1292   1.825   3.645   5.794 -0.8234 -2.4071  1.8297
   10SAPS   H6Y 1293   1.954   3.555   5.849 -0.8767  0.7590  0.6309
   10SAPS   C37 1294   1.973   3.595   5.646  0.7713 -0.7739  0.6201
   10SAPS   H7X 1295   1.913   3.506   5.619  1.4860 -1.2904  0.7202
   10SAPS   H7Y 1296   2.081   3.578   5.630  0.9485 -0.0726  1.0015
   10SAPS   C38 1297   1.933   3.702   5.540  0.3683  0.0024 -0.5591
   10SAPS   H8X 1298   1.997   3.792   5.554  2.3202 -1.4706  0.4886
   10SAPS   H8Y 1299   1.827   3.730   5.559 -0.1025 -1.3499 -1.0640
   10SAPS   C39 1300   1.935   3.657   5.400  0.1486  1.1615 -0.7232
   10SAPS   H9X 1301   1.879   3.562   5.399 -1.6662  2.1876 -1.7625
   10SAPS   H9Y 1302   2.041   3.631   5.378  0.1640 -0.0346  0.6388
   10SAPS  C310 1303   1.865   3.764   5.305  0.3364  0.0279  0.4442
   10SAPS  H10X 1304   1.899   3.866   5.334  0.0967  0.9265 -2.1444
   10SAPS  H10Y 1305   1.759   3.763   5.339 -0.1374  0.6115 -0.9331
   10SAPS  C311 1306   1.883   3.752   5.151  0.4367  0.1209  0.7805
   10SAPS  H11X 1307   1.855   3.655   5.105 -0.1452  1.9175 -3.0827
   10SAPS  H11Y 1308   1.993   3.758   5.135  0.4424  0.5156  0.9581
   10SAPS  C312 1309   1.794   3.850   5.077 -0.2715 -0.0468  0.2059
   10SAPS  H12X 1310   1.792   3.944   5.137  0.6233 -0.8470  1.5491
   10SAPS  H12Y 1311   1.695   3.802   5.091 -0.7152  1.0223  0.9191
   10SAPS  C313 1312   1.834   3.864   4.930 -0.6989  0.0775 -1.0169
   10SAPS  H13X 1313   1.945   3.865   4.919 -0.3929  2.8775  1.1911
   10SAPS  H13Y 1314   1.790   3.962   4.903 -0.9639  0.5863  1.0666
   10SAPS  C314 1315   1.766   3.763   4.830 -0.3211  0.2281 -0.1713
   10SAPS  H14X 1316   1.747   3.822   4.738  2.1023 -0.6084 -1.2860
   10SAPS  H14Y 1317   1.666   3.738   4.871  0.7280 -0.6010  2.0828
   10SAPS  C315 1318   1.861   3.648   4.789  0.4111 -0.4092  0.7374
   10SAPS  H15X 1319   1.792   3.573   4.745 -1.1280  1.7761 -0.7926
   10SAPS  H15Y 1320   1.909   3.597   4.875 -0.1141 -0.1399  1.2003
   10SAPS  C316 1321   1.970   3.698   4.692 -0.1917  0.8573 -0.1449
   10SAPS  H16X 1322   2.046   3.764   4.738  2.1466  0.1384 -2.7093
   10SAPS  H16Y 1323   1.925   3.755   4.608  0.4119  0.7495 -0.5462
   10SAPS  C317 1324   2.028   3.577   4.610 -0.7444 -0.0931 -0.4278
   10SAPS  H17X 1325   1.955   3.499   4.579  2.0122 -2.9413 -0.2638
   10SAPS  H17Y 1326   2.097   3.527   4.681 -1.2678 -0.4821 -0.1818
   10SAPS  C318 1327   2.116   3.616   4.492  0.0471  0.1255 -0.0734
   10SAPS  H18X 1328   2.059   3.689   4.430 -0.2868  0.6448  0.8395
   10SAPS  H18Y 1329   2.154   3.532   4.429 -0.4277 -2.1008  2.4553
   10SAPS  H18Z 1330   2.207   3.671   4.523 -0.8402  0.1465  2.6921
   11SAPS     N 1331   1.774   1.381   1.952 -0.6329  0.1459 -0.5489
   11SAPS   HN1 1332   1.676   1.386   1.988 -0.6956  0.6889 -0.7956
   11SAPS   HN2 1333   1.821   1.292   1.979 -1.1524  0.9690  3.7388
   11SAPS   HN3 1334   1.832   1.465   1.969  1.0054 -0.4674 -2.6212
   11SAPS   C12 1335   1.772   1.375   1.799 -0.3379  0.0614 -0.1093
   11SAPS  H12A 1336   1.852   1.436   1.760  1.1244 -1.3085  0.6297
   11SAPS   C13 1337   1.808   1.249   1.726  0.2592 -0.1887  0.5291
   11SAPS  O13A 1338   1.853   1.158   1.796  0.7499  0.3610  0.0903
   11SAPS  O13B 1339   1.815   1.252   1.601  0.4199  0.0125  0.3252
   11SAPS   C11 1340   1.639   1.430   1.746 -0.0224 -0.3379 -0.6535
   11SAPS  H11A 1341   1.557   1.356   1.758 -2.0309  1.9974  0.8690
   11SAPS  H11B 1342   1.643   1.454   1.637 -2.8811  0.4649 -0.6474
   11SAPS     P 1343   1.469   1.578   1.892  0.0343 -0.1866 -0.0236
   11SAPS   O13 1344   1.476   1.702   1.973 -0.2676 -0.2151  0.2572
   11SAPS   O14 1345   1.353   1.567   1.795  0.2507  0.1634 -0.2472
   11SAPS   O12 1346   1.602   1.553   1.806  0.2361  0.1452 -0.4452
   11SAPS   O11 1347   1.482   1.445   1.982 -0.2008  0.3326  0.0528
   11SAPS    C1 1348   1.379   1.417   2.076  0.0207 -0.5480 -0.0181
   11SAPS    HA 1349   1.277   1.441   2.039 -0.8173 -1.0800  1.7883
   11SAPS    HB 1350   1.375   1.307   2.087  2.3865 -0.7219 -0.4998
   11SAPS    C2 1351   1.403   1.494   2.207  0.6522  0.7092 -0.3575
   11SAPS    HS 1352   1.391   1.601   2.179  1.6647  0.6951 -0.8802
   11SAPS   O21 1353   1.542   1.470   2.245 -0.1665  0.5256  0.8438
   11SAPS   C21 1354   1.599   1.569   2.307  0.5326  0.4508 -0.2016
   11SAPS   O22 1355   1.549   1.668   2.350  0.2775 -0.6315 -0.3594
   11SAPS   C22 1356   1.748   1.530   2.314 -0.0554  0.4468 -0.3616
   11SAPS   H2R 1357   1.761   1.443   2.383  2.4601  1.8015  1.0181
   11SAPS   H2S 1358   1.793   1.491   2.220  1.9912  1.3813  0.1598
   11SAPS    C3 1359   1.294   1.456   2.312  0.6627  0.5696  0.3343
   11SAPS    HX 1360   1.301   1.345   2.312 -1.6188  0.3647 -1.0348
   11SAPS    HY 1361   1.185   1.467   2.293 -0.1335 -0.3092  3.6189
   11SAPS   O31 1362   1.322   1.509   2.443 -0.0344  0.6883 -0.3582
   11SAPS   C31 1363   1.275   1.625   2.463 -0.6042 -0.4172 -0.1744
   11SAPS   O32 1364   1.199   1.683   2.388  0.5779  0.1200  0.1495
   11SAPS   C32 1365   1.339   1.698   2.587  0.6104  0.4723  1.0771
   11SAPS   H2X 1366   1.443   1.660   2.588  1.0008  1.4863  0.5887
   11SAPS   H2Y 1367   1.283   1.672   2.680 -0.2856 -0.5458  0.2735
   11SAPS   C23 1368   1.834   1.639   2.375  0.4460  0.2596  0.3812
   11SAPS   H3R 1369   1.783   1.675   2.467 -2.9030 -1.1229 -0.7596
   11SAPS   H3S 1370   1.838   1.730   2.312 -0.5312  0.0935  0.0631
   11SAPS   C24 1371   1.972   1.575   2.420 -0.3235 -0.1198 -0.3129
   11SAPS   H4R 1372   2.018   1.674   2.441 -1.0794  0.8667 -2.9735
   11SAPS   H4S 1373   2.036   1.535   2.338  2.0517  0.0589  1.3174
   11SAPS   C25 1374   1.964   1.488   2.545  0.0885 -0.3899 -0.5799
   11SAPS   H5R 1375   1.959   1.381   2.521 -2.0988 -0.2707 -0.8393
   11SAPS   C26 1376   1.978   1.522   2.678  0.1074  0.0407 -0.1103
   11SAPS   H6R 1377   1.964   1.443   2.753 -0.1019  0.5991  0.4584
   11SAPS   C27 1378   1.990   1.665   2.719  0.7129 -0.7881 -0.1157
   11SAPS   H7R 1379   2.030   1.734   2.641 -0.8485 -1.0231 -1.1780
   11SAPS   H7S 1380   2.074   1.671   2.791  0.2826  2.8424  0.2597
   11SAPS   C28 1381   1.872   1.727   2.802  0.3033 -0.1519  0.2934
   11SAPS   H8R 1382   1.794   1.767   2.736  1.1510  2.4403  0.7355
   11SAPS   C29 1383   1.854   1.724   2.936  0.4182  0.2618 -0.0749
   11SAPS   H9R 1384   1.756   1.751   2.978  0.9126 -1.5374  2.4533
   11SAPS  C210 1385   1.949   1.649   3.028 -0.0523  0.2196 -0.9395
   11SAPS  H10R 1386   2.004   1.567   2.977 -0.2446 -1.5456  1.5255
   11SAPS  H10S 1387   1.892   1.598   3.109  1.6729 -2.3365 -1.2131
   11SAPS  C211 1388   2.054   1.751   3.077 -0.4347  0.1477  0.0851
   11SAPS  H11R 1389   2.128   1.770   2.998 -3.2891 -0.2462 -2.9109
   11SAPS  C212 1390   2.054   1.832   3.183  0.1202 -0.6964 -0.2380
   11SAPS  H12R 1391   2.131   1.909   3.191 -2.2421  1.9390 -1.1503
   11SAPS  C213 1392   1.958   1.837   3.297 -0.5638  0.5602 -0.5960
   11SAPS  H13R 1393   1.856   1.811   3.262 -0.7946 -0.8405  1.0094
   11SAPS  H13S 1394   1.957   1.937   3.345 -0.3974 -0.6682  2.1383
   11SAPS  C214 1395   1.997   1.740   3.413  0.4484 -0.5300  0.5721
   11SAPS  H14R 1396   2.080   1.678   3.374 -0.6962 -0.5986 -1.9532
   11SAPS  C215 1397   1.964   1.743   3.544 -0.4815 -0.4317 -0.7497
   11SAPS  H15R 1398   2.003   1.667   3.613  0.9815 -0.9444 -2.0872
   11SAPS  C216 1399   1.858   1.824   3.605 -0.0544 -0.1103 -0.3250
   11SAPS  H16R 1400   1.803   1.884   3.531  1.5803  1.5099 -0.2963
   11SAPS  H16S 1401   1.888   1.897   3.683 -0.2602 -1.1665  0.7869
   11SAPS  C217 1402   1.764   1.731   3.687 -0.5409 -0.0518  0.5817
   11SAPS  H17R 1403   1.692   1.793   3.745  1.0382  1.7434  0.7164
   11SAPS  H17S 1404   1.827   1.658   3.743  0.8374 -1.2521 -2.3333
   11SAPS  C218 1405   1.674   1.644   3.598 -0.0899 -0.5167  0.1123
   11SAPS  H18R 1406   1.619   1.567   3.657 -0.3134 -0.1548  0.3781
   11SAPS  H18S 1407   1.744   1.586   3.534  0.9162 -0.4661  1.1426
   11SAPS  C219 1408   1.560   1.718   3.527  0.0150  0.4153 -0.9127
   11SAPS  H19R 1409   1.579   1.823   3.499 -2.1202  1.4842  1.2828
   11SAPS  H19S 1410   1.479   1.727   3.603  0.7420 -0.6451  0.0272
   11SAPS  C220 1411   1.491   1.643   3.412  0.0586 -0.1548 -0.6608
   11SAPS  H20R 1412   1.553   1.670   3.324 -0.3385 -0.9926 -1.2090
   11SAPS  H20S 1413   1.387   1.682   3.412 -0.0719 -0.4420  1.3982
   11SAPS  H20T 1414   1.471   1.535   3.427 -2.5861  0.4002  0.2618
   11SAPS   C33 1415   1.343   1.855   2.569 -0.3841  0.6074 -0.6713
   11SAPS   H3X 1416   1.241   1.894   2.587 -0.0845  0.1511  2.8285
   11SAPS   H3Y 1417   1.367   1.868   2.461 -0.8090  0.7981 -0.7438
   11SAPS   C34 1418   1.451   1.917   2.661 -0.5002 -0.5612 -1.0727
   11SAPS   H4X 1419   1.463   2.021   2.625 -0.4573  0.0476  0.6154
   11SAPS   H4Y 1420   1.538   1.850   2.645 -0.6758 -0.3121 -3.4468
   11SAPS   C35 1421   1.411   1.934   2.807 -0.2863 -0.0819  0.2463
   11SAPS   H5X 1422   1.509   1.955   2.855 -0.5459 -0.4796  0.9697
   11SAPS   H5Y 1423   1.369   1.848   2.863 -0.6768  1.9984  3.4755
   11SAPS   C36 1424   1.329   2.060   2.831  0.6660  0.3310  0.7626
   11SAPS   H6X 1425   1.237   2.051   2.770  0.3936 -1.9941  1.4223
   11SAPS   H6Y 1426   1.389   2.152   2.813 -1.7055  2.1378  1.5518
   11SAPS   C37 1427   1.282   2.079   2.980  0.1135  0.1404 -0.2453
   11SAPS   H7X 1428   1.359   2.064   3.059  0.3513  3.2450  0.2416
   11SAPS   H7Y 1429   1.201   2.006   3.000 -1.6352  2.1014  0.2518
   11SAPS   C38 1430   1.211   2.225   2.995  0.2431  0.1746 -0.0868
   11SAPS   H8X 1431   1.125   2.220   2.925  1.1648  1.4886 -1.3613
   11SAPS   H8Y 1432   1.284   2.300   2.960 -0.1635  1.5277  1.7981
   11SAPS   C39 1433   1.171   2.246   3.144 -0.7851 -0.4546  0.1929
   11SAPS   H9X 1434   1.124   2.347   3.143  1.4105  0.6309  0.2401
   11SAPS   H9Y 1435   1.265   2.246   3.204 -1.4275 -1.7697  1.2694
   11SAPS  C310 1436   1.076   2.141   3.200 -0.1356 -0.0451  0.4635
   11SAPS  H10X 1437   1.123   2.044   3.173 -0.2809  0.3455 -1.2795
   11SAPS  H10Y 1438   0.974   2.139   3.155 -1.5403  1.0823  3.2988
   11SAPS  C311 1439   1.051   2.159   3.350  0.0790  0.1885 -1.4417
   11SAPS  H11X 1440   1.011   2.261   3.369 -0.4031  0.1410 -2.1629
   11SAPS  H11Y 1441   1.144   2.145   3.409  1.3834  1.0790 -3.1603
   11SAPS  C312 1442   0.952   2.063   3.402 -0.1035 -0.0949 -0.0050
   11SAPS  H12X 1443   0.984   1.957   3.415 -2.1052 -0.4712  2.7117
   11SAPS  H12Y 1444   0.860   2.070   3.340 -1.0136  1.8113  1.4877
   11SAPS  C313 1445   0.908   2.101   3.546 -0.4044 -0.0986  0.4041
   11SAPS  H13X 1446   0.864   2.202   3.556 -0.9092 -0.3752  1.0964
   11SAPS  H13Y 1447   1.009   2.106   3.590  0.8856  0.5960 -2.4236
   11SAPS  C314 1448   0.835   1.984   3.625 -0.6082 -0.3314  0.0568
   11SAPS  H14X 1449   0.901   1.895   3.630 -0.5951 -0.3604 -0.5860
   11SAPS  H14Y 1450   0.751   1.958   3.558  0.1364 -0.7438 -0.7295
   11SAPS  C315 1451   0.790   2.020   3.769  0.5920 -0.1811  0.4556
   11SAPS  H15X 1452   0.875   2.064   3.825  0.9731 -2.5661  1.8668
   11SAPS  H15Y 1453   0.747   1.924   3.805 -1.0435  0.3714  0.0730
   11SAPS  C316 1454   0.670   2.114   3.787  0.7391 -0.2599 -0.1108
   11SAPS  H16X 1455   0.589   2.099   3.712  0.5874  2.0989 -0.5039
   11SAPS  H16Y 1456   0.700   2.219   3.766  0.6845 -0.4911 -1.4288
   11SAPS  C317 1457   0.596   2.101   3.927 -0.3280  0.2040 -0.5381
   11SAPS  H17X 1458   0.644   2.159   4.009 -0.3089  2.0241 -1.7836
   11SAPS  H17Y 1459   0.598   1.992   3.947 -2.0305  0.3378  0.5098
   11SAPS  C318 1460   0.459   2.158   3.926 -0.1601  0.1847 -1.3154
   11SAPS  H18X 1461   0.413   2.141   3.826 -2.1453 -1.8289 -0.1260
   11SAPS  H18Y 1462   0.471   2.268   3.936 -0.3647  0.1487 -0.6839
   11SAPS  H18Z 1463   0.385   2.124   4.000  1.4593 -0.9621 -0.1553
   12SAPS     N 1464   3.000   1.665   1.737  0.4125  0.2028 -0.1605
   12SAPS   HN1 1465   3.040   1.747   1.687  1.9459 -0.9769 -0.9448
   12SAPS   HN2 1466   2.933   1.695   1.810  3.2792  2.5747  1.7137
   12SAPS   HN3 1467   3.083   1.612   1.772  0.9759  1.0750 -0.1514
   12SAPS   C12 1468   2.921   1.585   1.634  0.4010 -0.4900 -0.7635
   12SAPS  H12A 1469   2.825   1.632   1.629  0.3534 -0.5504 -0.4657
   12SAPS   C13 1470   2.982   1.592   1.488  0.1090  0.2411 -0.0360
   12SAPS  O13A 1471   3.100   1.628   1.463  0.2046 -0.3909 -0.0881
   12SAPS  O13B 1472   2.911   1.554   1.390  0.6256 -0.1126 -0.2208
   12SAPS   C11 1473   2.933   1.435   1.671 -0.0242  0.5777  0.6279
   12SAPS  H11A 1474   3.038   1.402   1.655  0.7338  1.8733  2.5919
   12SAPS  H11B 1475   2.874   1.382   1.593  1.0942  2.5501 -1.7092
   12SAPS     P 1476   2.738   1.419   1.847  0.0902  0.0314 -0.1588
   12SAPS   O13 1477   2.709   1.566   1.865  0.3363  0.2192  0.2532
   12SAPS   O14 1478   2.643   1.332   1.773 -0.0934 -0.4629 -0.1459
   12SAPS   O12 1479   2.891   1.404   1.801 -1.0287  0.3519  0.1741
   12SAPS   O11 1480   2.737   1.360   1.995  0.2871  0.2265  0.1501
   12SAPS    C1 1481   2.862   1.380   2.063  0.6285 -0.1041 -0.6316
   12SAPS    HA 1482   2.956   1.342   2.016  1.0425 -1.7472  1.3674
   12SAPS    HB 1483   2.868   1.487   2.089  0.4397 -0.0737 -0.7145
   12SAPS    C2 1484   2.852   1.311   2.206 -0.2563 -0.7558 -0.1165
   12SAPS    HS 1485   2.841   1.201   2.193  1.8554 -0.8450 -1.5480
   12SAPS   O21 1486   2.744   1.375   2.282  0.5215 -0.1533 -0.4303
   12SAPS   C21 1487   2.636   1.309   2.299 -0.2368  0.5494  0.3769
   12SAPS   O22 1488   2.622   1.196   2.260 -0.3589 -0.1264 -0.4837
   12SAPS   C22 1489   2.527   1.389   2.376  0.1501  0.3674 -0.5205
   12SAPS   H2R 1490   2.573   1.489   2.389 -1.5401  1.0342  0.5646
   12SAPS   H2S 1491   2.436   1.402   2.314 -2.0886 -1.0275  2.2704
   12SAPS    C3 1492   2.985   1.314   2.291 -0.1957  0.3822  0.2124
   12SAPS    HX 1493   3.020   1.419   2.293 -0.9481  0.6386  2.3522
   12SAPS    HY 1494   3.068   1.259   2.242 -0.8077  0.6064 -1.1376
   12SAPS   O31 1495   2.960   1.264   2.428  0.4188 -0.6285 -0.2397
   12SAPS   C31 1496   2.936   1.354   2.527 -0.1042  0.2412 -0.7862
   12SAPS   O32 1497   2.944   1.475   2.519  0.0132  0.1363 -0.0858
   12SAPS   C32 1498   2.894   1.274   2.653  0.3018  0.7150  0.0746
   12SAPS   H2X 1499   2.977   1.203   2.676 -0.0365 -0.0348 -0.9666
   12SAPS   H2Y 1500   2.808   1.208   2.629 -0.4088  0.0632  3.8173
   12SAPS   C23 1501   2.505   1.315   2.515  0.4220  0.3641  0.6409
   12SAPS   H3R 1502   2.599   1.294   2.569 -0.2874 -1.1958  1.3198
   12SAPS   H3S 1503   2.471   1.214   2.484  3.1983  0.3324 -3.0199
   12SAPS   C24 1504   2.405   1.393   2.606  0.3516  0.1745  0.3482
   12SAPS   H4R 1505   2.345   1.323   2.669 -1.6489 -0.6800 -2.3425
   12SAPS   H4S 1506   2.330   1.435   2.537 -0.4896 -1.4820  0.2043
   12SAPS   C25 1507   2.486   1.499   2.683  0.0576 -0.2327  0.3152
   12SAPS   H5R 1508   2.552   1.557   2.617 -0.5280 -0.6531 -0.6525
   12SAPS   C26 1509   2.497   1.510   2.815  0.2634  0.7339  0.1279
   12SAPS   H6R 1510   2.541   1.597   2.866 -0.0636 -0.9457  3.5118
   12SAPS   C27 1511   2.445   1.419   2.921 -0.7185  0.3597 -0.2447
   12SAPS   H7R 1512   2.512   1.428   3.010  0.4120  1.3606 -1.1623
   12SAPS   H7S 1513   2.451   1.314   2.885 -0.2996 -0.5288  2.2034
   12SAPS   C28 1514   2.300   1.431   2.958 -0.0947  0.3245  0.0277
   12SAPS   H8R 1515   2.236   1.489   2.889 -1.6334 -1.0282  0.2583
   12SAPS   C29 1516   2.252   1.392   3.078  0.1271 -0.0225 -0.3455
   12SAPS   H9R 1517   2.149   1.402   3.114  0.5641  0.9716  0.6798
   12SAPS  C210 1518   2.338   1.324   3.182  0.2752  0.4130  0.1503
   12SAPS  H10R 1519   2.413   1.262   3.130 -0.9147 -1.3627  0.4733
   12SAPS  H10S 1520   2.273   1.248   3.230  1.9465 -1.7236 -0.8489
   12SAPS  C211 1521   2.403   1.413   3.282 -0.5202  0.1970 -0.3895
   12SAPS  H11R 1522   2.454   1.500   3.240 -0.9522  1.3848  1.4135
   12SAPS  C212 1523   2.406   1.398   3.421 -0.8424 -0.3699 -0.3689
   12SAPS  H12R 1524   2.458   1.476   3.479 -1.1794 -0.0926 -0.4331
   12SAPS  C213 1525   2.348   1.288   3.508  0.4763 -0.0333 -0.0113
   12SAPS  H13R 1526   2.256   1.250   3.457  1.7234 -2.5239 -0.5579
   12SAPS  H13S 1527   2.303   1.313   3.607  2.1468  0.2543  0.7092
   12SAPS  C214 1528   2.461   1.190   3.519 -0.1696 -0.2509  0.4377
   12SAPS  H14R 1529   2.488   1.128   3.432  1.3433  2.6710 -1.3239
   12SAPS  C215 1530   2.536   1.179   3.627  0.5232  0.0068 -0.8094
   12SAPS  H15R 1531   2.605   1.094   3.634 -2.1768 -2.5471 -2.5328
   12SAPS  C216 1532   2.519   1.251   3.762 -0.6958  0.4767  0.0792
   12SAPS  H16R 1533   2.423   1.307   3.762 -0.7583  0.3696  0.7819
   12SAPS  H16S 1534   2.604   1.321   3.777  1.1823 -1.7429  0.3517
   12SAPS  C217 1535   2.527   1.146   3.879  0.0669 -1.0595  0.1300
   12SAPS  H17R 1536   2.465   1.057   3.856  0.6698 -1.5489  0.3969
   12SAPS  H17S 1537   2.496   1.191   3.976 -0.8366  2.2537 -1.5440
   12SAPS  C218 1538   2.668   1.082   3.892  0.1146  0.0199 -0.0761
   12SAPS  H18R 1539   2.744   1.158   3.923  0.0026 -0.1079  0.5309
   12SAPS  H18S 1540   2.697   1.023   3.803 -0.8533 -1.5961  0.6258
   12SAPS  C219 1541   2.659   0.983   4.009  0.4199  0.5891 -0.4706
   12SAPS  H19R 1542   2.576   0.914   3.983  0.8094  0.4950 -1.5287
   12SAPS  H19S 1543   2.619   1.043   4.093  0.3615 -2.2396  1.7114
   12SAPS  C220 1544   2.791   0.908   4.036  0.5340  0.2282 -0.0931
   12SAPS  H20R 1545   2.822   0.837   3.956  1.8142 -0.9301  1.3483
   12SAPS  H20S 1546   2.797   0.845   4.128  1.4111  1.7322  0.9205
   12SAPS  H20T 1547   2.861   0.993   4.047 -0.0466  0.8449 -1.0342
   12SAPS   C33 1548   2.871   1.356   2.782 -0.2989  0.2034  0.1429
   12SAPS   H3X 1549   2.806   1.444   2.769 -1.3010 -0.7232 -1.5535
   12SAPS   H3Y 1550   2.969   1.403   2.807  0.4977 -0.5910 -1.3403
   12SAPS   C34 1551   2.824   1.279   2.903  0.1490  0.5827 -0.4505
   12SAPS   H4X 1552   2.874   1.179   2.899 -1.0101 -0.1067  1.3177
   12SAPS   H4Y 1553   2.717   1.250   2.902  0.8320 -2.8880  2.4941
   12SAPS   C35 1554   2.852   1.355   3.040 -0.0426  0.1231  0.1014
   12SAPS   H5X 1555   2.798   1.451   3.026 -2.8744 -1.0393  2.1028
   12SAPS   H5Y 1556   2.961   1.366   3.058 -0.1083  0.1278  0.5095
   12SAPS   C36 1557   2.781   1.287   3.155 -0.3860  0.2445  0.2279
   12SAPS   H6X 1558   2.674   1.314   3.142  0.3837  3.0760 -1.0515
   12SAPS   H6Y 1559   2.810   1.344   3.245 -0.1189  0.3625  0.0681
   12SAPS   C37 1560   2.814   1.141   3.180  0.0284 -0.8554  0.1381
   12SAPS   H7X 1561   2.924   1.132   3.196 -0.2553  0.8403  4.2152
   12SAPS   H7Y 1562   2.787   1.099   3.081  1.4905 -0.2882 -0.5451
   12SAPS   C38 1563   2.725   1.074   3.287  0.4744 -0.3386  0.1920
   12SAPS   H8X 1564   2.618   1.067   3.259  0.3550  2.9261 -0.5765
   12SAPS   H8Y 1565   2.739   1.147   3.370  0.3789  2.5668 -2.1836
   12SAPS   C39 1566   2.748   0.927   3.329 -0.0765 -0.1074  0.5059
   12SAPS   H9X 1567   2.858   0.911   3.326 -0.1095 -0.2263 -0.3870
   12SAPS   H9Y 1568   2.715   0.859   3.247  0.6843 -0.1369  0.2178
   12SAPS  C310 1569   2.692   0.879   3.463  0.0919  0.1963 -0.3372
   12SAPS  H10X 1570   2.585   0.907   3.478 -0.0398 -0.3380 -0.2415
   12SAPS  H10Y 1571   2.736   0.943   3.542  0.7783  0.4827 -0.9397
   12SAPS  C311 1572   2.720   0.732   3.491 -0.0622 -0.3361  0.3549
   12SAPS  H11X 1573   2.824   0.696   3.479  0.5430  1.5503 -0.4561
   12SAPS  H11Y 1574   2.669   0.670   3.414 -0.8078 -1.2515  1.5617
   12SAPS  C312 1575   2.663   0.697   3.632 -0.9083  0.0490  0.1597
   12SAPS  H12X 1576   2.552   0.691   3.639 -0.7670 -0.8275  2.3098
   12SAPS  H12Y 1577   2.701   0.774   3.703  1.4707 -0.1035 -0.8723
   12SAPS  C313 1578   2.720   0.564   3.673 -0.8613 -0.2725 -0.6104
   12SAPS  H13X 1579   2.831   0.562   3.662 -0.8864  0.5896 -1.0560
   12SAPS  H13Y 1580   2.674   0.491   3.604  1.3857 -1.6794 -0.7268
   12SAPS  C314 1581   2.678   0.522   3.816 -0.2026  0.3762  0.2853
   12SAPS  H14X 1582   2.570   0.502   3.829  0.1158 -0.4290  1.9510
   12SAPS  H14Y 1583   2.705   0.602   3.888 -2.7865  0.0535  1.7291
   12SAPS  C315 1584   2.753   0.395   3.853 -0.0811  0.7661 -0.1191
   12SAPS  H15X 1585   2.862   0.397   3.830 -0.4514  2.0592 -2.0168
   12SAPS  H15Y 1586   2.701   0.318   3.791 -1.0930  2.8943 -2.0583
   12SAPS  C316 1587   2.745   0.370   4.007  0.0857 -0.2601 -0.4450
   12SAPS  H16X 1588   2.645   0.395   4.048  0.3391 -0.4759  0.3081
   12SAPS  H16Y 1589   2.812   0.442   4.059 -3.8071  2.0039  1.8848
   12SAPS  C317 1590   2.795   0.241   4.062 -0.0096  0.3162 -0.2661
   12SAPS  H17X 1591   2.733   0.160   4.017  0.6472  0.2854 -1.1497
   12SAPS  H17Y 1592   2.780   0.234   4.172 -0.6415 -0.5671 -0.3896
   12SAPS  C318 1593   2.939   0.204   4.026 -0.4772 -0.2663 -0.5308
   12SAPS  H18X 1594   2.958   0.208   3.917  0.6012  1.1352 -0.3216
   12SAPS  H18Y 1595   2.967   0.104   4.064  1.6852 -0.1359 -1.5922
   12SAPS  H18Z 1596   3.009   0.280   4.068  0.9432 -0.2073 -2.7926
   13SAPS     N 1597   5.480   5.711   1.911 -0.2283  0.3284  0.2511
   13SAPS   HN1 1598   5.483   5.803   1.960  1.8673 -0.1448  1.1548
   13SAPS   HN2 1599   5.409   5.658   1.964  1.2403  0.1315  2.1395
   13SAPS   HN3 1600   5.567   5.656   1.928 -0.4736  0.1353  0.9229
   13SAPS   C12 1601   5.453   5.744   1.767  0.2261  0.9057  0.3780
   13SAPS  H12A 1602   5.490   5.672   1.696 -0.6750 -0.7657  1.5367
   13SAPS   C13 1603   5.298   5.758   1.742  0.2943  0.3117  0.3682
   13SAPS  O13A 1604   5.216   5.714   1.821 -0.3274  0.2182 -0.3935
   13SAPS  O13B 1605   5.264   5.802   1.629  0.0901 -0.2273  0.5123
   13SAPS   C11 1606   5.534   5.870   1.734  0.3025  0.3325 -0.1213
   13SAPS  H11A 1607   5.492   5.961   1.783 -0.6152  1.6469 -3.0613
   13SAPS  H11B 1608   5.539   5.897   1.626 -0.9779  0.5826 -0.1366
   13SAPS     P 1609   5.769   5.960   1.792  0.5011 -0.3037  0.1567
   13SAPS   O13 1610   5.901   5.906   1.823 -0.2788 -0.0301  0.0184
   13SAPS   O14 1611   5.766   6.052   1.676 -0.1429 -0.1250  0.7745
   13SAPS   O12 1612   5.670   5.841   1.770  0.1448 -0.1777  0.0496
   13SAPS   O11 1613   5.714   6.033   1.927  0.2428  0.3426  0.2442
   13SAPS    C1 1614   5.766   6.165   1.958 -0.1604  0.7744 -0.5108
   13SAPS    HA 1615   5.875   6.173   1.937 -0.4966  2.7175 -1.8069
   13SAPS    HB 1616   5.724   6.237   1.885  1.0063  2.8520  0.7647
   13SAPS    C2 1617   5.725   6.205   2.097  0.3885  0.3095 -0.8102
   13SAPS    HS 1618   5.741   6.315   2.102  2.4517  0.0818 -1.5643
   13SAPS   O21 1619   5.812   6.128   2.184 -0.6377 -0.4880 -0.3846
   13SAPS   C21 1620   5.837   6.186   2.295 -0.2244 -0.3073  0.2094
   13SAPS   O22 1621   5.798   6.295   2.329 -0.1042 -0.3007 -0.0669
   13SAPS   C22 1622   5.919   6.100   2.395  0.5155 -0.0897 -0.3745
   13SAPS   H2R 1623   6.021   6.093   2.351  0.9374 -2.7160  0.8356
   13SAPS   H2S 1624   5.936   6.143   2.496  1.8112  1.2603 -1.1204
   13SAPS    C3 1625   5.573   6.168   2.129  0.2383  0.0860  0.8499
   13SAPS    HX 1626   5.575   6.058   2.140 -0.8752  0.0748  1.0850
   13SAPS    HY 1627   5.513   6.190   2.038 -0.0473  1.5839  1.3671
   13SAPS   O31 1628   5.528   6.222   2.253 -0.3183  0.4658 -0.1020
   13SAPS   C31 1629   5.500   6.350   2.264 -0.6180 -0.3236  0.2513
   13SAPS   O32 1630   5.498   6.430   2.172 -0.0445  0.1652  0.3984
   13SAPS   C32 1631   5.436   6.382   2.406 -0.2332 -0.0378 -0.6747
   13SAPS   H2X 1632   5.396   6.290   2.453  3.3379 -1.0855  0.6920
   13SAPS   H2Y 1633   5.360   6.453   2.366  0.4035  0.1793 -1.5474
   13SAPS   C23 1634   5.856   5.969   2.440  0.5110  0.7994 -0.3405
   13SAPS   H3R 1635   5.916   5.886   2.397  2.7330  1.3296  1.5561
   13SAPS   H3S 1636   5.755   5.966   2.392  0.6574  1.0207 -0.6631
   13SAPS   C24 1637   5.841   5.946   2.595 -0.5877  0.2978  0.2127
   13SAPS   H4R 1638   5.787   5.850   2.613  0.2518 -0.6442 -1.8697
   13SAPS   H4S 1639   5.778   6.024   2.641 -0.4194  0.2341  0.5517
   13SAPS   C25 1640   5.978   5.946   2.657 -0.1104  0.1155  0.0616
   13SAPS   H5R 1641   6.059   6.003   2.608 -1.6819  0.4473 -2.2786
   13SAPS   C26 1642   6.009   5.896   2.778  0.4967  0.4107 -0.3836
   13SAPS   H6R 1643   6.108   5.910   2.825 -0.7707 -0.4215  2.7708
   13SAPS   C27 1644   5.913   5.820   2.872 -0.1583 -0.6300 -0.3495
   13SAPS   H7R 1645   5.882   5.735   2.808  0.8060 -0.0993 -1.5524
   13SAPS   H7S 1646   5.823   5.885   2.886 -1.3049 -2.2005 -0.2073
   13SAPS   C28 1647   5.983   5.773   2.998 -0.0583 -0.9148 -0.3145
   13SAPS   H8R 1648   6.084   5.731   2.984 -0.3586 -1.2202 -1.7234
   13SAPS   C29 1649   5.939   5.783   3.125  0.6468 -0.1297 -0.2720
   13SAPS   H9R 1650   6.010   5.751   3.202  1.8114 -1.4169 -1.8143
   13SAPS  C210 1651   5.809   5.841   3.175 -0.2070 -0.1739 -0.4211
   13SAPS  H10R 1652   5.735   5.849   3.092  2.7051  3.1725 -3.0254
   13SAPS  H10S 1653   5.822   5.949   3.198 -2.2278 -0.4223  2.3311
   13SAPS  C211 1654   5.755   5.770   3.295 -1.1308 -0.1557  0.2796
   13SAPS  H11R 1655   5.734   5.662   3.284  1.4849 -1.0062  2.4538
   13SAPS  C212 1656   5.726   5.818   3.417 -0.0858  0.1549 -0.0037
   13SAPS  H12R 1657   5.679   5.751   3.490 -2.0266 -0.8390 -2.0467
   13SAPS  C213 1658   5.745   5.957   3.471 -0.6758 -0.5480 -0.3791
   13SAPS  H13R 1659   5.753   6.032   3.389 -0.2564 -1.4532 -1.1842
   13SAPS  H13S 1660   5.848   5.973   3.509 -0.1924 -1.0470 -1.4212
   13SAPS  C214 1661   5.639   6.004   3.564  0.1952  0.5161  0.2546
   13SAPS  H14R 1662   5.538   6.019   3.524  0.2201  0.7529  0.2784
   13SAPS  C215 1663   5.672   6.064   3.685 -0.2282  0.5660  0.8819
   13SAPS  H15R 1664   5.594   6.103   3.752 -0.6091  2.5451 -0.6303
   13SAPS  C216 1665   5.807   6.070   3.750 -0.0785 -0.4268 -0.2942
   13SAPS  H16R 1666   5.823   6.157   3.817 -0.2870 -1.0880  0.6370
   13SAPS  H16S 1667   5.892   6.075   3.679  0.2670  0.6259  0.1711
   13SAPS  C217 1668   5.825   5.944   3.841 -0.2031 -0.0411  0.2092
   13SAPS  H17R 1669   5.839   5.854   3.777 -0.6495  0.2735 -0.3358
   13SAPS  H17S 1670   5.750   5.920   3.920 -0.1515 -2.8815 -0.4807
   13SAPS  C218 1671   5.969   5.963   3.904 -0.0080  0.0400 -0.6355
   13SAPS  H18R 1672   5.978   6.069   3.935  0.0843 -1.0102  3.5456
   13SAPS  H18S 1673   6.048   5.940   3.830  0.1267 -0.0486 -0.4641
   13SAPS  C219 1674   5.978   5.892   4.039 -0.2641  0.8992 -0.5206
   13SAPS  H19R 1675   5.987   5.782   4.026 -0.5303  0.7754  0.2781
   13SAPS  H19S 1676   5.884   5.908   4.096 -0.3109 -1.3542  0.1288
   13SAPS  C220 1677   6.085   5.943   4.141  0.2944 -0.5271  0.0557
   13SAPS  H20R 1678   6.051   6.037   4.190 -0.1851 -1.6044  1.8722
   13SAPS  H20S 1679   6.182   5.955   4.087 -0.3206 -2.8927 -1.7432
   13SAPS  H20T 1680   6.085   5.873   4.226 -1.6574 -2.1712 -1.2149
   13SAPS   C33 1681   5.521   6.457   2.510 -0.1469  0.0175 -0.1436
   13SAPS   H3X 1682   5.563   6.550   2.467 -0.8693 -0.3980 -1.8247
   13SAPS   H3Y 1683   5.602   6.387   2.542 -0.0816  0.1354 -0.0522
   13SAPS   C34 1684   5.432   6.521   2.624 -0.2521  0.2401  0.5511
   13SAPS   H4X 1685   5.344   6.458   2.648 -1.6026  1.9896  0.3810
   13SAPS   H4Y 1686   5.398   6.620   2.586  0.4351  0.2682 -0.0221
   13SAPS   C35 1687   5.513   6.537   2.754  0.2314  0.2393 -0.4456
   13SAPS   H5X 1688   5.608   6.590   2.737 -1.8851  4.1456 -1.2738
   13SAPS   H5Y 1689   5.542   6.434   2.784  0.4933 -0.2582 -2.3184
   13SAPS   C36 1690   5.440   6.604   2.869  0.5609  0.1945  0.6714
   13SAPS   H6X 1691   5.353   6.540   2.895 -0.6387  1.6257  0.3151
   13SAPS   H6Y 1692   5.397   6.704   2.846 -1.4981 -0.3210  1.9765
   13SAPS   C37 1693   5.530   6.612   2.993  0.1749  0.3814 -0.8617
   13SAPS   H7X 1694   5.614   6.683   2.978  1.8209 -1.3213 -0.1668
   13SAPS   H7Y 1695   5.572   6.510   3.008 -0.5979 -0.6404 -4.4999
   13SAPS   C38 1696   5.454   6.664   3.117 -0.4400  0.6913 -0.5155
   13SAPS   H8X 1697   5.514   6.623   3.201 -0.8653 -0.9906 -0.9910
   13SAPS   H8Y 1698   5.354   6.616   3.125 -0.3174  0.3808 -0.8628
   13SAPS   C39 1699   5.447   6.813   3.129  0.1523  0.1726 -0.1698
   13SAPS   H9X 1700   5.388   6.847   3.041 -1.4430 -0.9207  0.4341
   13SAPS   H9Y 1701   5.547   6.862   3.133  1.6783 -2.7903  0.6831
   13SAPS  C310 1702   5.362   6.867   3.249  0.2012  0.3569 -0.1579
   13SAPS  H10X 1703   5.409   6.833   3.343  2.2176  0.5451 -1.0367
   13SAPS  H10Y 1704   5.262   6.818   3.249  0.8969 -1.1248  0.9030
   13SAPS  C311 1705   5.341   7.017   3.253  0.4470 -0.3816  0.3989
   13SAPS  H11X 1706   5.279   7.043   3.164 -0.8048 -0.0776  1.3337
   13SAPS  H11Y 1707   5.440   7.068   3.245 -0.3586  1.2874  0.4912
   13SAPS  C312 1708   5.271   7.069   3.377 -0.0712 -0.3833 -0.2950
   13SAPS  H12X 1709   5.346   7.048   3.456  0.3946  1.4795 -0.1883
   13SAPS  H12Y 1710   5.173   7.021   3.394 -0.4861  0.4972 -0.1150
   13SAPS  C313 1711   5.228   7.220   3.382 -0.5830  0.3392 -0.4615
   13SAPS  H13X 1712   5.155   7.245   3.303  0.6828 -1.8329 -2.4544
   13SAPS  H13Y 1713   5.322   7.276   3.365 -1.7667  2.5715  0.0183
   13SAPS  C314 1714   5.180   7.247   3.525 -0.2745 -0.0918  0.1094
   13SAPS  H14X 1715   5.268   7.236   3.591  0.0876 -2.1738 -0.6631
   13SAPS  H14Y 1716   5.097   7.178   3.552 -0.7789  0.8130  0.9561
   13SAPS  C315 1717   5.130   7.395   3.522 -0.6111  1.0877 -0.1669
   13SAPS  H15X 1718   5.038   7.407   3.461 -1.2390 -0.3634  0.4613
   13SAPS  H15Y 1719   5.205   7.457   3.469 -0.3893  3.3855  2.5902
   13SAPS  C316 1720   5.122   7.448   3.663  0.6065  0.3004  0.1036
   13SAPS  H16X 1721   5.219   7.445   3.716 -0.6402 -0.8727  2.5007
   13SAPS  H16Y 1722   5.043   7.388   3.714 -1.5862  2.4329 -0.6029
   13SAPS  C317 1723   5.067   7.592   3.663  0.1820  0.5528 -0.1865
   13SAPS  H17X 1724   4.973   7.587   3.604  1.5944 -0.7499 -2.4812
   13SAPS  H17Y 1725   5.142   7.657   3.613  2.0703 -0.3471  1.3901
   13SAPS  C318 1726   5.037   7.656   3.802 -0.5801 -0.0935  0.0755
   13SAPS  H18X 1727   5.125   7.644   3.868 -0.3749 -0.2075 -0.2173
   13SAPS  H18Y 1728   4.952   7.598   3.844  0.2021 -2.6363 -1.6307
   13SAPS  H18Z 1729   5.000   7.761   3.800  0.5769  0.3248 -0.3447
   14SAPS     N 1730   3.999   0.523   1.622 -0.0071 -0.1963 -0.1260
   14SAPS   HN1 1731   4.063   0.558   1.548  0.3478 -1.8653 -0.6473
   14SAPS   HN2 1732   3.902   0.545   1.591 -0.2164 -0.2996  0.4408
   14SAPS   HN3 1733   4.014   0.580   1.708 -1.3810 -0.1502  0.1171
   14SAPS   C12 1734   4.024   0.387   1.658 -0.3244  0.6558 -0.8164
   14SAPS  H12A 1735   4.005   0.332   1.567 -1.6499  0.6567 -0.5602
   14SAPS   C13 1736   4.181   0.368   1.688  0.6228  0.6985 -0.6941
   14SAPS  O13A 1737   4.256   0.453   1.640 -0.3040  0.0072  0.1869
   14SAPS  O13B 1738   4.217   0.257   1.708  0.1705  0.0481  0.1585
   14SAPS   C11 1739   3.931   0.322   1.765  0.6552 -0.0997  0.0556
   14SAPS  H11A 1740   3.827   0.344   1.732  1.5542  1.7713 -1.6699
   14SAPS  H11B 1741   3.960   0.373   1.859 -0.6894  0.7137  0.0431
   14SAPS     P 1742   3.866   0.100   1.869  0.0814  0.1979 -0.1483
   14SAPS   O13 1743   3.719   0.105   1.843 -0.5723  0.6858  0.2577
   14SAPS   O14 1744   3.932  -0.033   1.866  0.2040 -0.1404  1.0481
   14SAPS   O12 1745   3.955   0.183   1.766  0.2750 -0.6746 -0.6559
   14SAPS   O11 1746   3.915   0.179   2.000  0.3961  0.1833  0.6587
   14SAPS    C1 1747   3.815   0.238   2.081 -0.4204 -0.3424  0.6477
   14SAPS    HA 1748   3.745   0.292   2.014 -0.3934  0.4126  1.2228
   14SAPS    HB 1749   3.767   0.166   2.151 -1.1068 -0.1327  0.4005
   14SAPS    C2 1750   3.888   0.338   2.175  0.9808 -0.1536 -0.3045
   14SAPS    HS 1751   3.960   0.402   2.119  0.5036  1.5305  0.9126
   14SAPS   O21 1752   3.960   0.262   2.271 -0.0497  0.1607 -0.0348
   14SAPS   C21 1753   4.075   0.318   2.322 -0.2176  0.1092  0.3315
   14SAPS   O22 1754   4.120   0.426   2.290  0.1110 -0.0841  0.1601
   14SAPS   C22 1755   4.144   0.228   2.419 -0.3217  0.4841 -0.2545
   14SAPS   H2R 1756   4.078   0.140   2.435 -1.2261  1.3845  1.1680
   14SAPS   H2S 1757   4.241   0.195   2.376 -0.5020 -1.7003  0.8235
   14SAPS    C3 1758   3.787   0.431   2.258 -0.5879  0.0438 -0.0851
   14SAPS    HX 1759   3.749   0.495   2.175  1.5583 -0.6258 -1.7025
   14SAPS    HY 1760   3.843   0.505   2.320  0.2503 -0.1016 -0.6500
   14SAPS   O31 1761   3.690   0.348   2.326  0.1475  0.2156 -0.2061
   14SAPS   C31 1762   3.622   0.428   2.412 -0.2624  0.1139  0.4534
   14SAPS   O32 1763   3.618   0.549   2.405 -0.1472 -0.0492 -0.5762
   14SAPS   C32 1764   3.537   0.343   2.503 -0.0397  0.3432 -0.0539
   14SAPS   H2X 1765   3.565   0.237   2.482 -1.5629  0.3249 -2.4134
   14SAPS   H2Y 1766   3.435   0.356   2.462  0.6842 -0.1786 -2.1602
   14SAPS   C23 1767   4.192   0.293   2.558 -0.1850 -0.5641  0.1127
   14SAPS   H3R 1768   4.243   0.390   2.540  1.4770 -1.3169  0.5729
   14SAPS   H3S 1769   4.276   0.228   2.590  1.1358  0.2628 -1.5283
   14SAPS   C24 1770   4.083   0.302   2.665  0.0660 -1.1508 -0.4200
   14SAPS   H4R 1771   4.115   0.367   2.750 -1.4649  1.3161 -1.6259
   14SAPS   H4S 1772   4.052   0.203   2.704  0.7268 -1.3416 -0.3696
   14SAPS   C25 1773   3.964   0.370   2.604  0.6073  0.2066 -0.0838
   14SAPS   H5R 1774   3.898   0.311   2.538  1.6566  0.7487 -1.6745
   14SAPS   C26 1775   3.920   0.491   2.613  0.2450  0.0269  0.3253
   14SAPS   H6R 1776   3.825   0.516   2.562  1.4544  1.4606 -1.3147
   14SAPS   C27 1777   3.976   0.596   2.706 -0.1696  0.8499  0.1775
   14SAPS   H7R 1778   4.006   0.690   2.655  1.0065  0.0864 -0.5768
   14SAPS   H7S 1779   4.060   0.558   2.768 -0.8853 -0.3391  0.4473
   14SAPS   C28 1780   3.860   0.621   2.808  0.0047  0.6766  0.3683
   14SAPS   H8R 1781   3.833   0.527   2.859  1.1989  0.0610 -0.1069
   14SAPS   C29 1782   3.800   0.740   2.840 -0.6542  0.4433 -0.2444
   14SAPS   H9R 1783   3.710   0.741   2.903 -1.0551 -2.0387 -0.6927
   14SAPS  C210 1784   3.832   0.874   2.774 -0.1567  0.6082 -0.6626
   14SAPS  H10R 1785   3.871   0.863   2.671  0.4606  1.5765 -0.5519
   14SAPS  H10S 1786   3.911   0.924   2.834 -1.3098  2.5741 -0.6892
   14SAPS  C211 1787   3.711   0.966   2.768 -0.3535 -0.8577  0.1223
   14SAPS  H11R 1788   3.654   0.981   2.675 -0.8233  0.2159  0.5598
   14SAPS  C212 1789   3.661   1.052   2.862 -0.2418  0.6341 -0.6456
   14SAPS  H12R 1790   3.561   1.095   2.846 -0.1127  1.1636 -0.0272
   14SAPS  C213 1791   3.699   1.050   3.007  0.1365 -0.0680 -0.4701
   14SAPS  H13R 1792   3.801   1.011   3.030  0.4919  0.1979 -1.5276
   14SAPS  H13S 1793   3.624   0.986   3.058  0.0782  0.4362  0.0920
   14SAPS  C214 1794   3.696   1.193   3.058  0.7825 -0.2975 -0.6943
   14SAPS  H14R 1795   3.764   1.264   3.010  1.5623 -1.4952 -1.4320
   14SAPS  C215 1796   3.593   1.230   3.143 -0.8174  0.5087  0.4251
   14SAPS  H15R 1797   3.604   1.334   3.177  1.9469  1.1118 -1.8747
   14SAPS  C216 1798   3.491   1.147   3.213 -0.0345  0.0462  0.3848
   14SAPS  H16R 1799   3.458   1.053   3.164  1.2968 -0.9749  1.3545
   14SAPS  H16S 1800   3.401   1.205   3.239 -0.3425  0.2180 -1.0031
   14SAPS  C217 1801   3.552   1.078   3.341 -0.2835 -0.5641  0.3144
   14SAPS  H17R 1802   3.644   1.021   3.313  0.8104 -0.4555  3.2909
   14SAPS  H17S 1803   3.481   0.999   3.374 -2.1069 -0.2359 -2.5469
   14SAPS  C218 1804   3.584   1.165   3.469  0.2520 -0.0069  0.3854
   14SAPS  H18R 1805   3.506   1.240   3.494 -1.3193 -1.0941 -1.0255
   14SAPS  H18S 1806   3.672   1.227   3.439 -0.0905  1.5999  2.4900
   14SAPS  C219 1807   3.633   1.076   3.591  0.2931  0.1689 -0.0105
   14SAPS  H19R 1808   3.706   1.137   3.649 -2.5043  1.6991  2.1610
   14SAPS  H19S 1809   3.694   0.993   3.550  0.3010  0.4276 -0.5314
   14SAPS  C220 1810   3.518   1.027   3.679 -0.3398  0.1204 -0.1461
   14SAPS  H20R 1811   3.560   0.960   3.757 -2.6363 -0.7728  0.3844
   14SAPS  H20S 1812   3.441   0.970   3.623 -0.4805  0.0921  0.0746
   14SAPS  H20T 1813   3.469   1.114   3.728  0.7963  0.8000 -0.1792
   14SAPS   C33 1814   3.539   0.371   2.654  0.2101  0.1689  0.0059
   14SAPS   H3X 1815   3.629   0.432   2.677  0.8172 -0.7944  0.2762
   14SAPS   H3Y 1816   3.539   0.276   2.711 -2.0644  0.0114 -0.1815
   14SAPS   C34 1817   3.416   0.449   2.696 -0.5173 -0.5330  0.2625
   14SAPS   H4X 1818   3.330   0.384   2.671 -0.7188  0.9347 -3.6901
   14SAPS   H4Y 1819   3.399   0.538   2.631 -2.7763 -0.4154  0.9284
   14SAPS   C35 1820   3.401   0.471   2.843 -0.1314  0.4073 -0.5091
   14SAPS   H5X 1821   3.346   0.383   2.885  1.4091  0.6613  2.2563
   14SAPS   H5Y 1822   3.321   0.545   2.864  2.3944  3.1393  0.0197
   14SAPS   C36 1823   3.529   0.499   2.930 -0.1538  0.6217  0.4961
   14SAPS   H6X 1824   3.586   0.577   2.874 -0.3854  0.4104 -0.0407
   14SAPS   H6Y 1825   3.591   0.406   2.928 -2.6391 -1.2444  3.1784
   14SAPS   C37 1826   3.499   0.530   3.075  0.5064 -0.3681  0.8852
   14SAPS   H7X 1827   3.415   0.469   3.112 -1.9982  0.8615 -2.2727
   14SAPS   H7Y 1828   3.446   0.627   3.066  3.0997  0.9505 -2.2991
   14SAPS   C38 1829   3.624   0.538   3.157 -0.9919 -0.4569 -0.5466
   14SAPS   H8X 1830   3.702   0.595   3.102 -0.0373 -0.6785  0.5628
   14SAPS   H8Y 1831   3.658   0.434   3.174 -1.2638 -0.2835  1.2233
   14SAPS   C39 1832   3.613   0.620   3.287  0.4622  0.5012  0.1146
   14SAPS   H9X 1833   3.542   0.568   3.355 -0.5567  0.8574 -0.6427
   14SAPS   H9Y 1834   3.573   0.719   3.255  2.9099  1.3336 -0.5715
   14SAPS  C310 1835   3.743   0.640   3.365 -0.2657  0.8702 -0.0505
   14SAPS  H10X 1836   3.807   0.695   3.294 -1.1877 -1.5411 -2.9675
   14SAPS  H10Y 1837   3.799   0.545   3.379 -2.0744 -0.5837 -1.9165
   14SAPS  C311 1838   3.738   0.712   3.498  0.1842 -0.7886 -0.5664
   14SAPS  H11X 1839   3.692   0.646   3.575 -1.1177  1.0663  0.3223
   14SAPS  H11Y 1840   3.653   0.783   3.493  0.4878 -0.2982  0.7720
   14SAPS  C312 1841   3.872   0.749   3.554  0.0454  0.1387 -0.0326
   14SAPS  H12X 1842   3.926   0.824   3.492  0.2560 -0.4041 -0.5031
   14SAPS  H12Y 1843   3.935   0.658   3.559 -0.1627 -0.0262 -0.4263
   14SAPS  C313 1844   3.870   0.807   3.700  0.4223 -0.4338 -0.5794
   14SAPS  H13X 1845   3.819   0.738   3.770  0.8286 -0.5073 -0.3492
   14SAPS  H13Y 1846   3.816   0.903   3.711  1.6896  0.2841 -0.4096
   14SAPS  C314 1847   4.005   0.824   3.761  0.6023 -0.0801 -0.0300
   14SAPS  H14X 1848   4.058   0.727   3.757 -0.2898 -0.6919  1.8971
   14SAPS  H14Y 1849   3.984   0.842   3.868 -0.8070 -1.0588 -0.1112
   14SAPS  C315 1850   4.088   0.946   3.698 -0.8996  0.4586  0.0382
   14SAPS  H15X 1851   4.128   1.008   3.781  0.1777 -1.4623  1.0162
   14SAPS  H15Y 1852   4.022   1.019   3.645 -0.0602  1.0194 -0.2532
   14SAPS  C316 1853   4.198   0.880   3.601 -0.4705  0.1123 -0.7754
   14SAPS  H16X 1854   4.136   0.835   3.521 -1.5865 -0.1515  0.2094
   14SAPS  H16Y 1855   4.264   0.798   3.636  1.1702  0.8110 -2.0907
   14SAPS  C317 1856   4.294   0.981   3.536 -0.0922  0.6562  0.1397
   14SAPS  H17X 1857   4.322   0.918   3.449 -0.2264 -1.0335  1.2655
   14SAPS  H17Y 1858   4.384   0.986   3.601 -0.7865  1.4011  1.0622
   14SAPS  C318 1859   4.231   1.122   3.510 -0.5308  0.2288  0.6566
   14SAPS  H18X 1860   4.312   1.178   3.459  0.3108 -2.4293 -1.1599
   14SAPS  H18Y 1861   4.232   1.170   3.610  2.7127  0.9122  0.4325
   14SAPS  H18Z 1862   4.143   1.128   3.443  0.9231  1.7700 -1.2453
   15SAPS     N 1863   2.550   1.752   1.739 -0.1423 -0.3873  0.3567
   15SAPS   HN1 1864   2.572   1.710   1.647 -1.7928 -1.5977  0.4819
   15SAPS   HN2 1865   2.606   1.697   1.808 -0.6965 -0.5493  0.6790
   15SAPS   HN3 1866   2.454   1.733   1.773  0.0491 -1.9189  0.0946
   15SAPS   C12 1867   2.566   1.901   1.762 -0.4080 -0.3408  0.7522
   15SAPS  H12A 1868   2.659   1.940   1.723 -2.1024  1.7324 -1.5330
   15SAPS   C13 1869   2.456   1.997   1.704  0.1902  0.1012  0.3998
   15SAPS  O13A 1870   2.341   1.946   1.676  0.5419 -0.0230 -0.5727
   15SAPS  O13B 1871   2.472   2.122   1.706  0.5268 -0.2990 -0.5025
   15SAPS   C11 1872   2.578   1.926   1.914 -0.0513  0.2518 -0.5513
   15SAPS  H11A 1873   2.478   1.913   1.960 -0.0720 -1.1646 -0.9572
   15SAPS  H11B 1874   2.607   2.033   1.924  0.4985  0.0696 -0.1128
   15SAPS     P 1875   2.820   1.878   2.021 -0.5657 -0.0665 -0.1374
   15SAPS   O13 1876   2.911   1.789   1.953 -0.1440 -0.6209 -0.3969
   15SAPS   O14 1877   2.854   2.017   1.989  0.3502  0.3120 -0.3432
   15SAPS   O12 1878   2.672   1.838   1.980 -0.2551  0.8505 -0.2194
   15SAPS   O11 1879   2.834   1.863   2.180  0.1092 -0.2759  0.3731
   15SAPS    C1 1880   2.709   1.852   2.256  0.1474  0.6086  0.2485
   15SAPS    HA 1881   2.633   1.930   2.231 -0.2873 -0.2411 -1.2304
   15SAPS    HB 1882   2.654   1.759   2.230 -0.2283  1.1657 -1.0538
   15SAPS    C2 1883   2.744   1.867   2.407 -0.1611 -0.1878  0.2738
   15SAPS    HS 1884   2.650   1.873   2.466 -0.7421  2.1382 -0.7417
   15SAPS   O21 1885   2.824   1.983   2.429 -0.8537  0.0068  0.3594
   15SAPS   C21 1886   2.754   2.095   2.431 -0.1445 -0.1619 -0.1169
   15SAPS   O22 1887   2.635   2.104   2.406  0.7920  0.1934  0.0034
   15SAPS   C22 1888   2.847   2.211   2.477  0.4775 -0.1819 -0.7186
   15SAPS   H2R 1889   2.902   2.183   2.569  0.2416 -1.2202 -0.8894
   15SAPS   H2S 1890   2.919   2.220   2.392  0.5475 -1.6323 -0.8383
   15SAPS    C3 1891   2.814   1.737   2.452  0.6745  0.2761  0.4427
   15SAPS    HX 1892   2.907   1.699   2.404  0.8644 -0.6459  1.4942
   15SAPS    HY 1893   2.733   1.664   2.426 -1.9717  3.3914 -0.7496
   15SAPS   O31 1894   2.832   1.746   2.592  0.1032 -0.0891  0.0419
   15SAPS   C31 1895   2.957   1.785   2.620 -0.0148  0.2916  0.1729
   15SAPS   O32 1896   3.043   1.815   2.538 -0.2859  0.0436  0.5048
   15SAPS   C32 1897   2.979   1.787   2.770  0.3152 -1.0057  0.1450
   15SAPS   H2X 1898   3.057   1.863   2.791 -0.3002 -0.5917  0.9868
   15SAPS   H2Y 1899   3.001   1.684   2.806  0.1602 -1.4559 -0.9913
   15SAPS   C23 1900   2.782   2.349   2.497 -0.2432 -0.4805 -0.3577
   15SAPS   H3R 1901   2.699   2.360   2.570  1.2506 -0.2657  1.3843
   15SAPS   H3S 1902   2.745   2.385   2.398 -3.1486 -0.3031  0.7053
   15SAPS   C24 1903   2.890   2.452   2.544 -0.9667  0.2834  0.0548
   15SAPS   H4R 1904   2.982   2.427   2.487 -2.4564 -0.8944 -1.9659
   15SAPS   H4S 1905   2.919   2.433   2.650  0.2364  4.1547  0.5850
   15SAPS   C25 1906   2.867   2.598   2.537 -0.7659  0.4498 -0.8535
   15SAPS   H5R 1907   2.914   2.643   2.448 -2.2900  3.5756 -0.2133
   15SAPS   C26 1908   2.819   2.679   2.631  1.1507  0.3831  0.1918
   15SAPS   H6R 1909   2.815   2.786   2.605  1.4786  0.5217  0.6984
   15SAPS   C27 1910   2.760   2.645   2.765  0.4999 -0.5179  0.0394
   15SAPS   H7R 1911   2.705   2.549   2.768  0.5921 -0.7006 -2.4950
   15SAPS   H7S 1912   2.686   2.724   2.790  0.9687  1.0679 -3.1790
   15SAPS   C28 1913   2.866   2.637   2.872  0.6599 -1.0031  0.7326
   15SAPS   H8R 1914   2.963   2.618   2.822  0.5638 -1.6415  0.7769
   15SAPS   C29 1915   2.852   2.644   3.005 -0.4470  0.1211 -0.2445
   15SAPS   H9R 1916   2.943   2.638   3.066 -1.4382  0.8669  1.3708
   15SAPS  C210 1917   2.730   2.664   3.086  0.4977 -0.0797 -0.2761
   15SAPS  H10R 1918   2.723   2.574   3.152 -1.3709  0.1658 -0.0825
   15SAPS  H10S 1919   2.636   2.657   3.027 -1.5395 -1.1717  2.8064
   15SAPS  C211 1920   2.741   2.793   3.162 -0.2740 -0.2251  0.6212
   15SAPS  H11R 1921   2.758   2.879   3.095 -2.6424 -0.3335 -0.2138
   15SAPS  C212 1922   2.740   2.801   3.290  0.7262 -0.2166  0.6621
   15SAPS  H12R 1923   2.749   2.905   3.326  0.1156 -0.8127  2.6518
   15SAPS  C213 1924   2.729   2.692   3.394  0.2210 -0.2236  0.0285
   15SAPS  H13R 1925   2.753   2.732   3.495 -0.6353  0.2759  0.0446
   15SAPS  H13S 1926   2.811   2.620   3.374  1.7308  1.9823 -2.2360
   15SAPS  C214 1927   2.604   2.615   3.394  0.2583  0.2754 -0.3741
   15SAPS  H14R 1928   2.579   2.568   3.298 -2.3629  0.5358  0.1077
   15SAPS  C215 1929   2.522   2.583   3.499  0.0421 -0.1880  0.5100
   15SAPS  H15R 1930   2.434   2.518   3.487  0.6203 -0.9779  0.5457
   15SAPS  C216 1931   2.540   2.630   3.645 -0.1496 -0.4597  0.4905
   15SAPS  H16R 1932   2.452   2.685   3.687 -0.6503 -1.0927  0.2946
   15SAPS  H16S 1933   2.630   2.694   3.649  0.0817 -0.1992 -4.0391
   15SAPS  C217 1934   2.580   2.514   3.738  0.5582 -0.8595 -0.3297
   15SAPS  H17R 1935   2.618   2.560   3.832  0.0792  0.3826 -0.7287
   15SAPS  H17S 1936   2.663   2.462   3.685  1.3878  0.0963 -0.0093
   15SAPS  C218 1937   2.478   2.409   3.771  0.2191  0.4374 -0.1817
   15SAPS  H18R 1938   2.533   2.335   3.834 -1.9972  1.0290  2.6356
   15SAPS  H18S 1939   2.451   2.346   3.683 -0.5108 -0.1589  0.4653
   15SAPS  C219 1940   2.348   2.462   3.835 -0.5572  0.1920  0.3861
   15SAPS  H19R 1941   2.288   2.511   3.756  1.8578  2.2956 -0.3002
   15SAPS  H19S 1942   2.379   2.535   3.914 -2.5717  1.4661  0.0518
   15SAPS  C220 1943   2.268   2.346   3.898  0.2170  0.1932 -0.8514
   15SAPS  H20R 1944   2.336   2.284   3.959  0.6276 -0.8667 -2.3350
   15SAPS  H20S 1945   2.212   2.285   3.824  0.8515 -0.7010 -0.6033
   15SAPS  H20T 1946   2.191   2.385   3.968  0.5973  0.5587 -0.6381
   15SAPS   C33 1947   2.854   1.842   2.837  0.0070 -0.8818  0.0490
   15SAPS   H3X 1948   2.873   1.857   2.946  3.2418  0.9969 -0.6541
   15SAPS   H3Y 1949   2.763   1.780   2.826 -0.1529 -0.3374 -2.1258
   15SAPS   C34 1950   2.805   1.982   2.795 -0.1827  0.8740 -0.3369
   15SAPS   H4X 1951   2.706   1.997   2.844  0.7778 -0.0255  1.9899
   15SAPS   H4Y 1952   2.792   1.981   2.684  1.2597 -0.0523 -0.5215
   15SAPS   C35 1953   2.890   2.097   2.837 -0.2640 -0.3290  0.1042
   15SAPS   H5X 1954   2.979   2.103   2.772  0.4184 -2.7918  0.6966
   15SAPS   H5Y 1955   2.924   2.073   2.940  0.8247 -0.8887 -0.3701
   15SAPS   C36 1956   2.816   2.228   2.839  0.2046 -1.2383  0.6907
   15SAPS   H6X 1957   2.754   2.239   2.747 -0.1974  0.6225  1.1395
   15SAPS   H6Y 1958   2.881   2.318   2.846 -1.2143 -0.2500  1.7189
   15SAPS   C37 1959   2.715   2.241   2.955 -0.0743 -0.2244 -0.1415
   15SAPS   H7X 1960   2.663   2.144   2.967 -0.1289 -0.1611  0.1522
   15SAPS   H7Y 1961   2.643   2.322   2.932  2.2490  1.9752 -0.1097
   15SAPS   C38 1962   2.785   2.262   3.091  0.4751 -0.3202  0.0334
   15SAPS   H8X 1963   2.837   2.359   3.105  0.4627 -0.4299  0.9233
   15SAPS   H8Y 1964   2.872   2.194   3.095 -0.5581 -1.6418  1.2816
   15SAPS   C39 1965   2.695   2.243   3.210  0.2031 -0.2828 -0.6113
   15SAPS   H9X 1966   2.629   2.156   3.188 -0.8473  0.5749 -0.9409
   15SAPS   H9Y 1967   2.629   2.332   3.215  0.0742 -0.3514 -1.0477
   15SAPS  C310 1968   2.765   2.219   3.347  0.1987 -0.4521 -1.2147
   15SAPS  H10X 1969   2.835   2.304   3.363 -2.9506  2.5654 -2.0970
   15SAPS  H10Y 1970   2.817   2.121   3.344 -0.6635 -1.6139  5.5118
   15SAPS  C311 1971   2.668   2.216   3.467  0.2778  0.0967 -0.4922
   15SAPS  H11X 1972   2.567   2.200   3.422  0.0269  2.0900 -0.7118
   15SAPS  H11Y 1973   2.676   2.317   3.511 -0.5450  0.3991 -1.0062
   15SAPS  C312 1974   2.692   2.105   3.575 -0.2605  0.1310  0.1322
   15SAPS  H12X 1975   2.696   2.013   3.514  3.2927  0.5965 -0.5215
   15SAPS  H12Y 1976   2.601   2.095   3.638 -1.2252 -0.4059 -1.3091
   15SAPS  C313 1977   2.809   2.127   3.669  0.1278 -0.6867 -0.1898
   15SAPS  H13X 1978   2.792   2.227   3.713  2.0712 -1.3584  2.2774
   15SAPS  H13Y 1979   2.898   2.145   3.604 -1.2104  2.7256 -1.3286
   15SAPS  C314 1980   2.835   2.036   3.788 -0.0691  0.2562  0.9651
   15SAPS  H14X 1981   2.735   2.022   3.836 -0.5308  3.0144  1.0042
   15SAPS  H14Y 1982   2.900   2.064   3.874 -0.4162  0.3872  1.1885
   15SAPS  C315 1983   2.892   1.905   3.742 -0.2387  0.5616  0.8834
   15SAPS  H15X 1984   2.993   1.927   3.703  0.2618 -0.9495  1.2726
   15SAPS  H15Y 1985   2.833   1.876   3.652  0.8630  0.6904  0.1041
   15SAPS  C316 1986   2.879   1.791   3.841  0.7506 -0.1229 -0.1842
   15SAPS  H16X 1987   2.773   1.758   3.845  0.7595 -0.1106  0.1726
   15SAPS  H16Y 1988   2.913   1.822   3.942 -0.4969  2.6272 -0.5087
   15SAPS  C317 1989   2.956   1.667   3.792 -0.3217  0.1884  0.2416
   15SAPS  H17X 1990   2.968   1.599   3.879 -1.4075 -0.7465 -0.3125
   15SAPS  H17Y 1991   3.060   1.695   3.765 -0.1902 -1.7784 -1.4992
   15SAPS  C318 1992   2.880   1.583   3.686  0.0166 -0.1910  0.6851
   15SAPS  H18X 1993   2.920   1.481   3.668  1.9652  0.5442  0.7086
   15SAPS  H18Y 1994   2.896   1.638   3.590  1.1621  0.5116  1.2659
   15SAPS  H18Z 1995   2.771   1.572   3.707 -0.7221  1.6946 -1.6251
   16SAPS     N 1996   5.030   1.010   1.855  0.4696  0.0869  0.9851
   16SAPS   HN1 1997   4.955   1.036   1.922 -0.0400  1.0391  0.0855
   16SAPS   HN2 1998   5.115   1.063   1.883 -0.6358  1.9215  0.9941
   16SAPS   HN3 1999   5.005   1.032   1.756  1.1218  0.4385  0.8947
   16SAPS   C12 2000   5.065   0.867   1.868 -0.2032 -0.0747  0.4314
   16SAPS  H12A 2001   5.080   0.844   1.972  0.4945  0.7802  0.5260
   16SAPS   C13 2002   4.956   0.776   1.813  0.2042  0.3853  0.0599
   16SAPS  O13A 2003   4.850   0.815   1.759 -0.3211 -0.2904  0.0269
   16SAPS  O13B 2004   4.967   0.649   1.832  0.0765  0.4970 -0.1999
   16SAPS   C11 2005   5.187   0.828   1.790  0.0550  0.2982 -0.2811
   16SAPS  H11A 2006   5.181   0.858   1.683  0.7882  0.6822 -0.2222
   16SAPS  H11B 2007   5.199   0.718   1.780 -1.2919  0.0234  0.8741
   16SAPS     P 2008   5.369   1.015   1.803 -0.3397 -0.5243  0.1826
   16SAPS   O13 2009   5.427   1.006   1.669 -0.0356 -0.2150  0.1122
   16SAPS   O14 2010   5.272   1.120   1.826  0.0303 -0.0388 -0.3293
   16SAPS   O12 2011   5.308   0.873   1.841  0.0138 -0.2262 -1.0251
   16SAPS   O11 2012   5.495   1.030   1.902  0.2689 -0.1366  0.1764
   16SAPS    C1 2013   5.495   0.962   2.029  0.5046  0.0216 -0.0215
   16SAPS    HA 2014   5.391   0.932   2.056 -0.7550  1.3884 -2.8680
   16SAPS    HB 2015   5.565   0.876   2.017  1.7551  1.1946 -1.6308
   16SAPS    C2 2016   5.549   1.052   2.142  0.4865  0.2628  0.2322
   16SAPS    HS 2017   5.513   1.006   2.237  1.9882  0.7300  1.0737
   16SAPS   O21 2018   5.509   1.189   2.117 -0.2010 -0.0938 -0.0633
   16SAPS   C21 2019   5.377   1.203   2.134 -0.1440 -0.6560 -0.5371
   16SAPS   O22 2020   5.303   1.118   2.188 -0.7430  0.5523 -0.4009
   16SAPS   C22 2021   5.332   1.346   2.098 -0.1766 -0.3509 -0.4577
   16SAPS   H2R 2022   5.411   1.390   2.034  1.1606 -1.6141  0.2618
   16SAPS   H2S 2023   5.231   1.329   2.053 -1.5341 -0.5838  2.4683
   16SAPS    C3 2024   5.704   1.045   2.151  0.3898  0.1914 -0.0136
   16SAPS    HX 2025   5.757   1.126   2.206 -0.3299  0.8977 -0.3388
   16SAPS    HY 2026   5.731   1.059   2.044 -1.2118  2.1862 -0.2257
   16SAPS   O31 2027   5.743   0.909   2.191 -0.2595 -0.3996 -1.0554
   16SAPS   C31 2028   5.866   0.876   2.164  0.4506 -0.2335  0.4007
   16SAPS   O32 2029   5.951   0.954   2.130  0.5447  0.1693 -0.3008
   16SAPS   C32 2030   5.884   0.732   2.190 -0.1550  0.3013  0.3053
   16SAPS   H2X 2031   5.965   0.701   2.120  0.5999  0.7263  0.9725
   16SAPS   H2Y 2032   5.794   0.682   2.148  1.7571 -0.5462 -3.1924
   16SAPS   C23 2033   5.305   1.432   2.223 -0.0490 -0.7342 -0.0950
   16SAPS   H3R 2034   5.279   1.373   2.314 -1.9526 -0.5189 -0.4446
   16SAPS   H3S 2035   5.218   1.497   2.198  1.3519  0.9970 -0.6640
   16SAPS   C24 2036   5.420   1.531   2.255  0.1579  0.5450  0.1501
   16SAPS   H4R 2037   5.385   1.611   2.323 -1.9670 -0.6028  0.4828
   16SAPS   H4S 2038   5.444   1.588   2.163  0.1035 -0.6034 -0.6028
   16SAPS   C25 2039   5.546   1.476   2.317 -0.5654  0.5573 -1.2331
   16SAPS   H5R 2040   5.633   1.476   2.250 -1.9804  2.0864 -3.1904
   16SAPS   C26 2041   5.563   1.407   2.440 -0.2577 -0.7604  0.2537
   16SAPS   H6R 2042   5.662   1.366   2.464 -1.0764 -1.1458  3.3628
   16SAPS   C27 2043   5.459   1.386   2.548  0.5538  0.4545  0.1186
   16SAPS   H7R 2044   5.398   1.296   2.524  1.6034  0.0888 -1.3032
   16SAPS   H7S 2045   5.392   1.474   2.535  0.2567 -0.0491 -2.0158
   16SAPS   C28 2046   5.512   1.371   2.692  0.6662 -0.6256  0.3110
   16SAPS   H8R 2047   5.553   1.466   2.729 -0.6423  0.7426 -1.5314
   16SAPS   C29 2048   5.539   1.254   2.745  0.3811 -0.2455  0.1531
   16SAPS   H9R 2049   5.578   1.254   2.848 -1.4964  0.8257  0.9085
   16SAPS  C210 2050   5.513   1.113   2.689 -0.6029  0.4116  0.3610
   16SAPS  H10R 2051   5.403   1.120   2.675 -0.4055  0.9445 -1.0593
   16SAPS  H10S 2052   5.532   1.038   2.769  0.6483  2.1701  1.7833
   16SAPS  C211 2053   5.575   1.062   2.556 -0.0368 -0.0733  0.3332
   16SAPS  H11R 2054   5.567   1.128   2.469 -2.7813 -3.0146 -1.9006
   16SAPS  C212 2055   5.629   0.941   2.533  0.1736 -0.6387  0.7607
   16SAPS  H12R 2056   5.663   0.895   2.439  0.3658 -4.9613  2.6705
   16SAPS  C213 2057   5.662   0.835   2.636 -0.6704 -0.6105 -0.7282
   16SAPS  H13R 2058   5.707   0.889   2.722 -1.9959  0.5158 -0.7131
   16SAPS  H13S 2059   5.730   0.757   2.594 -1.6450 -1.7274 -0.2960
   16SAPS  C214 2060   5.545   0.751   2.682 -0.0454 -0.2297 -0.1941
   16SAPS  H14R 2061   5.463   0.753   2.609  1.0095  0.5314 -1.3758
   16SAPS  C215 2062   5.545   0.677   2.793  0.2361  0.0303  0.8968
   16SAPS  H15R 2063   5.449   0.629   2.819  0.1302 -0.8904 -0.9942
   16SAPS  C216 2064   5.652   0.650   2.899  0.1980  0.1661  0.4620
   16SAPS  H16R 2065   5.756   0.669   2.867 -0.6645 -0.6867 -3.3406
   16SAPS  H16S 2066   5.659   0.540   2.916  3.2491  0.1453 -0.2800
   16SAPS  C217 2067   5.624   0.711   3.035  0.0193 -0.1404  0.3371
   16SAPS  H17R 2068   5.517   0.700   3.063 -0.9692  2.7594 -1.8196
   16SAPS  H17S 2069   5.640   0.820   3.020 -0.6619 -0.0241  0.4292
   16SAPS  C218 2070   5.721   0.660   3.139 -0.6045  0.0160  0.7862
   16SAPS  H18R 2071   5.826   0.673   3.105 -0.2365 -0.3160  1.7613
   16SAPS  H18S 2072   5.715   0.549   3.143  0.0275 -0.1085 -0.8484
   16SAPS  C219 2073   5.698   0.735   3.266 -0.2739 -0.0969 -0.0651
   16SAPS  H19R 2074   5.714   0.842   3.240 -2.6438  0.3364  0.0354
   16SAPS  H19S 2075   5.775   0.704   3.340 -1.1900 -0.3042  0.8379
   16SAPS  C220 2076   5.559   0.713   3.325 -0.2125 -0.6681 -0.0768
   16SAPS  H20R 2077   5.475   0.740   3.258 -0.0315 -2.5345 -1.1298
   16SAPS  H20S 2078   5.535   0.769   3.418 -1.8363 -1.9901  0.3461
   16SAPS  H20T 2079   5.535   0.606   3.339 -1.9626 -0.4260 -0.9160
   16SAPS   C33 2080   5.914   0.696   2.336 -0.0817  0.1673 -0.6983
   16SAPS   H3X 2081   5.860   0.759   2.409 -1.2164 -2.4376  0.8571
   16SAPS   H3Y 2082   6.021   0.722   2.354  0.2767 -1.5149 -0.2249
   16SAPS   C34 2083   5.899   0.548   2.368  0.4125  0.0545  0.1007
   16SAPS   H4X 2084   5.898   0.492   2.272 -0.3001  0.2039  0.0164
   16SAPS   H4Y 2085   5.799   0.525   2.411 -0.9308 -1.3393 -3.3791
   16SAPS   C35 2086   6.008   0.508   2.470  0.0855  0.0210 -0.3324
   16SAPS   H5X 2087   6.106   0.538   2.426 -0.6991  1.0985 -1.4282
   16SAPS   H5Y 2088   6.003   0.397   2.479 -0.0705 -0.0201 -0.8871
   16SAPS   C36 2089   5.984   0.578   2.603  1.1450 -0.6135 -0.2963
   16SAPS   H6X 2090   5.877   0.588   2.632  1.0748  2.3659 -1.2494
   16SAPS   H6Y 2091   6.018   0.684   2.598 -0.7093  0.1343  1.5230
   16SAPS   C37 2092   6.072   0.508   2.709  0.2594 -0.5411  0.0609
   16SAPS   H7X 2093   6.171   0.515   2.660  0.7236  0.7956  1.0979
   16SAPS   H7Y 2094   6.049   0.400   2.721 -0.3741 -0.2517  1.8969
   16SAPS   C38 2095   6.066   0.585   2.842  0.1650 -0.6356  0.9015
   16SAPS   H8X 2096   5.958   0.609   2.853 -0.7450 -3.5898 -0.3787
   16SAPS   H8Y 2097   6.123   0.680   2.837 -0.1973 -0.4585 -0.1331
   16SAPS   C39 2098   6.130   0.495   2.947  0.2920  0.3965 -0.7855
   16SAPS   H9X 2099   6.240   0.491   2.930  0.8983  1.7824  2.1279
   16SAPS   H9Y 2100   6.090   0.392   2.943 -0.5841  0.7359 -1.0481
   16SAPS  C310 2101   6.106   0.541   3.091 -0.2656  0.1666 -0.4006
   16SAPS  H10X 2102   6.074   0.456   3.156  0.3675  1.2349  1.4067
   16SAPS  H10Y 2103   6.019   0.610   3.095 -2.2324 -2.2360  0.5774
   16SAPS  C311 2104   6.239   0.605   3.139 -0.0479 -0.2013 -0.3376
   16SAPS  H11X 2105   6.279   0.675   3.063 -4.5303  2.5074 -0.5998
   16SAPS  H11Y 2106   6.316   0.526   3.152  2.3142  2.4481  4.0057
   16SAPS  C312 2107   6.229   0.681   3.273 -0.2252 -0.6060 -0.7517
   16SAPS  H12X 2108   6.146   0.754   3.278  0.8928  0.8417 -2.1178
   16SAPS  H12Y 2109   6.329   0.717   3.307 -0.8338  0.2513  0.1750
   16SAPS  C313 2110   6.185   0.584   3.389 -0.1266 -0.2313  0.6264
   16SAPS  H13X 2111   6.256   0.499   3.392  0.3431  0.1588  0.5953
   16SAPS  H13Y 2112   6.086   0.542   3.361 -0.3463  0.8628 -0.3276
   16SAPS  C314 2113   6.188   0.649   3.528  0.4641  0.3286  0.0606
   16SAPS  H14X 2114   6.108   0.727   3.537  1.1880  1.0690  0.1562
   16SAPS  H14Y 2115   6.283   0.703   3.545  0.3688  0.0123  1.6925
   16SAPS  C315 2116   6.169   0.547   3.641 -0.4354  0.3707  0.3609
   16SAPS  H15X 2117   6.235   0.462   3.616 -0.0115  0.2925  1.6713
   16SAPS  H15Y 2118   6.071   0.496   3.647  0.0493 -0.3945  3.9052
   16SAPS  C316 2119   6.222   0.604   3.776 -0.8585  0.2037  0.1420
   16SAPS  H16X 2120   6.330   0.629   3.768 -1.0960  0.8882 -1.4197
   16SAPS  H16Y 2121   6.209   0.514   3.838  2.1987 -1.5146 -1.4633
   16SAPS  C317 2122   6.141   0.722   3.825 -0.0167 -0.2194  0.0952
   16SAPS  H17X 2123   6.036   0.687   3.817 -0.0975  0.0547 -0.0549
   16SAPS  H17Y 2124   6.148   0.813   3.762  1.3504  0.6736  1.4829
   16SAPS  C318 2125   6.178   0.767   3.968  0.0775  0.5983  0.2331
   16SAPS  H18X 2126   6.281   0.806   3.958  0.2097 -0.0982 -1.5302
   16SAPS  H18Y 2127   6.197   0.684   4.039  0.1846 -1.7157 -2.3127
   16SAPS  H18Z 2128   6.107   0.840   4.013  0.8430  0.6222  1.4308
   17SAPS     N 2129   0.178   6.970   1.790  0.7758 -0.6841  0.3340
   17SAPS   HN1 2130   0.118   6.888   1.810  1.9925 -1.3392  1.4706
   17SAPS   HN2 2131   0.132   7.050   1.743  0.1614 -0.5229  1.1846
   17SAPS   HN3 2132   0.248   6.939   1.719 -0.1054 -1.3347 -0.2718
   17SAPS   C12 2133   0.246   7.030   1.915  0.2443 -0.0166  0.4824
   17SAPS  H12A 2134   0.165   7.062   1.979 -0.2442 -1.1925  0.4813
   17SAPS   C13 2135   0.330   6.946   2.006 -0.6260 -0.1785  0.2226
   17SAPS  O13A 2136   0.357   6.828   1.976  0.3072  0.1674  0.1043
   17SAPS  O13B 2137   0.392   7.007   2.094  0.1010 -0.0652 -0.7707
   17SAPS   C11 2138   0.340   7.146   1.856 -0.3102  0.3040  1.1691
   17SAPS  H11A 2139   0.403   7.093   1.782 -2.4816  0.6558 -1.0370
   17SAPS  H11B 2140   0.413   7.187   1.930  0.3603  0.0475  0.6569
   17SAPS     P 2141   0.211   7.377   1.884 -0.3820  0.0420  0.4510
   17SAPS   O13 2142   0.315   7.444   1.966 -0.0596  0.5527 -0.4616
   17SAPS   O14 2143   0.140   7.463   1.787  0.4104  0.0006 -0.5951
   17SAPS   O12 2144   0.272   7.257   1.795  0.0631 -0.0614  0.1229
   17SAPS   O11 2145   0.109   7.301   1.980  0.2668  0.5716  0.1749
   17SAPS    C1 2146  -0.037   7.320   1.977 -0.2967 -0.0584  0.6610
   17SAPS    HA 2147  -0.080   7.350   1.880 -0.1014 -0.5809  0.4111
   17SAPS    HB 2148  -0.081   7.224   2.011  0.0516 -0.7563 -0.7932
   17SAPS    C2 2149  -0.062   7.427   2.083  0.4996  0.3228 -0.4878
   17SAPS    HS 2150  -0.005   7.517   2.052  2.2291 -0.4836  0.1841
   17SAPS   O21 2151  -0.018   7.377   2.209 -0.4720 -0.0846 -0.0677
   17SAPS   C21 2152   0.051   7.465   2.281  0.6216  0.6093 -0.6991
   17SAPS   O22 2153   0.078   7.580   2.251 -0.0486 -0.0686  0.3132
   17SAPS   C22 2154   0.098   7.405   2.403  0.0119 -0.2544 -0.3106
   17SAPS   H2R 2155   0.135   7.301   2.392  1.3784  0.3196 -1.5333
   17SAPS   H2S 2156   0.183   7.468   2.439 -0.4822 -0.3926  1.1607
   17SAPS    C3 2157  -0.211   7.451   2.089  0.0109  0.3971  0.8308
   17SAPS    HX 2158  -0.271   7.367   2.131  0.8029  0.4841  2.1854
   17SAPS    HY 2159  -0.248   7.466   1.985 -0.0094  1.3169  0.9612
   17SAPS   O31 2160  -0.245   7.573   2.163 -0.4789  0.0038  0.1250
   17SAPS   C31 2161  -0.213   7.687   2.109 -0.7231  0.3182 -0.7551
   17SAPS   O32 2162  -0.166   7.709   2.002  0.0850 -0.1103 -0.7630
   17SAPS   C32 2163  -0.255   7.798   2.201  0.4950  0.2651 -0.6200
   17SAPS   H2X 2164  -0.366   7.803   2.192  0.1916 -0.5045  1.8259
   17SAPS   H2Y 2165  -0.214   7.889   2.154  0.0808 -0.5034 -2.5400
   17SAPS   C23 2166  -0.007   7.402   2.514  0.3664  0.3614  0.2247
   17SAPS   H3R 2167  -0.076   7.318   2.492  0.3750  0.7771 -1.4761
   17SAPS   H3S 2168  -0.072   7.491   2.501 -1.3200 -0.9974 -1.2582
   17SAPS   C24 2169   0.057   7.405   2.658 -0.0328  0.4404 -0.1521
   17SAPS   H4R 2170  -0.021   7.390   2.735 -0.1768 -0.8765 -0.5329
   17SAPS   H4S 2171   0.102   7.506   2.667 -0.0682  0.5250 -0.8615
   17SAPS   C25 2172   0.152   7.290   2.680 -0.1611  0.2199  0.3074
   17SAPS   H5R 2173   0.110   7.192   2.650 -0.9303  0.6059  0.0891
   17SAPS   C26 2174   0.283   7.303   2.716  0.5849  0.2660 -1.2877
   17SAPS   H6R 2175   0.339   7.208   2.720 -1.4815 -0.9767  0.4875
   17SAPS   C27 2176   0.352   7.435   2.746  0.4681  0.2360 -0.2830
   17SAPS   H7R 2177   0.357   7.436   2.857  1.6524  0.0265 -0.3198
   17SAPS   H7S 2178   0.290   7.522   2.717 -1.4184  0.0558  2.8205
   17SAPS   C28 2179   0.483   7.460   2.672 -0.4494 -0.3483  1.0332
   17SAPS   H8R 2180   0.474   7.459   2.562  1.2423  0.4387  0.8467
   17SAPS   C29 2181   0.604   7.462   2.725 -0.8216  0.1448 -0.0803
   17SAPS   H9R 2182   0.691   7.486   2.662  0.3719 -0.5455  1.2368
   17SAPS  C210 2183   0.642   7.453   2.871  0.4085  0.3914 -0.1330
   17SAPS  H10R 2184   0.736   7.395   2.882 -2.2613 -3.8482  4.2128
   17SAPS  H10S 2185   0.568   7.392   2.926  0.6168 -0.6176 -0.9401
   17SAPS  C211 2186   0.651   7.591   2.931 -0.6771  0.4604 -0.8072
   17SAPS  H11R 2187   0.598   7.672   2.879 -3.2338 -0.3582  0.3721
   17SAPS  C212 2188   0.717   7.628   3.046  0.3388  0.2889  0.2276
   17SAPS  H12R 2189   0.712   7.732   3.082 -2.1072 -0.6572  2.9327
   17SAPS  C213 2190   0.793   7.544   3.146  0.3737  0.4691 -0.4326
   17SAPS  H13R 2191   0.893   7.586   3.171 -1.0951  2.7147  2.1843
   17SAPS  H13S 2192   0.814   7.448   3.093  1.3998  1.1335 -1.2840
   17SAPS  C214 2193   0.698   7.537   3.265  0.1879  0.2494 -0.2064
   17SAPS  H14R 2194   0.609   7.474   3.253  0.7914 -0.2384 -2.5808
   17SAPS  C215 2195   0.704   7.597   3.383 -0.0763  0.0668  0.0494
   17SAPS  H15R 2196   0.626   7.569   3.456  0.1982 -3.5090 -0.8780
   17SAPS  C216 2197   0.812   7.692   3.418 -0.0208 -0.4705  0.0376
   17SAPS  H16R 2198   0.810   7.774   3.342 -0.8644 -0.4343  0.0899
   17SAPS  H16S 2199   0.908   7.636   3.411 -0.2439 -0.7454 -0.9890
   17SAPS  C217 2200   0.789   7.741   3.561 -0.6531  0.6228  0.4645
   17SAPS  H17R 2201   0.687   7.783   3.571 -1.1254 -0.8001  1.9172
   17SAPS  H17S 2202   0.860   7.824   3.583  0.4453  0.0690 -0.8386
   17SAPS  C218 2203   0.821   7.639   3.673 -0.0566  0.8290 -0.1664
   17SAPS  H18R 2204   0.924   7.600   3.659  0.2996  1.3786  0.8455
   17SAPS  H18S 2205   0.749   7.554   3.674 -0.9902  1.6000  1.5515
   17SAPS  C219 2206   0.816   7.697   3.814  0.1102  0.8597 -0.8923
   17SAPS  H19R 2207   0.897   7.771   3.829  1.0070 -0.4591  1.3494
   17SAPS  H19S 2208   0.840   7.617   3.888  0.1349  0.1312 -1.6663
   17SAPS  C220 2209   0.683   7.749   3.848  0.6957 -0.2108  0.5679
   17SAPS  H20R 2210   0.654   7.840   3.790 -0.5609  0.5652  2.3275
   17SAPS  H20S 2211   0.676   7.782   3.954 -3.6449 -0.1192  0.4605
   17SAPS  H20T 2212   0.603   7.673   3.834  0.7914 -0.4198  1.1534
   17SAPS   C33 2213  -0.212   7.789   2.349 -0.0921 -0.4732  0.4493
   17SAPS   H3X 2214  -0.109   7.747   2.351 -0.1512 -0.5991  1.1772
   17SAPS   H3Y 2215  -0.268   7.701   2.388  0.6549 -1.1702 -0.0220
   17SAPS   C34 2216  -0.213   7.930   2.419  0.1339  0.4228  0.3170
   17SAPS   H4X 2217  -0.311   7.973   2.386  1.2272  1.5113 -1.7427
   17SAPS   H4Y 2218  -0.128   7.987   2.378  0.0044  1.2770  1.2124
   17SAPS   C35 2219  -0.203   7.919   2.567  0.2347  0.2144 -0.0884
   17SAPS   H5X 2220  -0.264   7.831   2.597  0.0583  0.2697 -0.2816
   17SAPS   H5Y 2221  -0.239   8.014   2.614 -0.4662 -0.3299  0.4940
   17SAPS   C36 2222  -0.061   7.894   2.614 -0.1970 -0.0910 -0.2243
   17SAPS   H6X 2223  -0.003   7.988   2.599 -1.8459  1.0015  0.0444
   17SAPS   H6Y 2224  -0.020   7.813   2.550 -0.0144  0.0345 -0.2680
   17SAPS   C37 2225  -0.056   7.851   2.762 -0.5411  0.3583  0.4193
   17SAPS   H7X 2226  -0.140   7.779   2.767 -0.8481  0.5480 -1.4469
   17SAPS   H7Y 2227  -0.091   7.934   2.827  0.0239 -0.0168  1.2169
   17SAPS   C38 2228   0.089   7.805   2.792  0.2355 -0.5698 -0.2520
   17SAPS   H8X 2229   0.158   7.889   2.772  1.0960 -1.5061 -1.3379
   17SAPS   H8Y 2230   0.115   7.715   2.733  0.1151 -0.6434 -0.1949
   17SAPS   C39 2231   0.123   7.770   2.939 -0.0483 -0.5915 -0.1096
   17SAPS   H9X 2232   0.071   7.679   2.974 -0.7818 -0.8722 -1.8452
   17SAPS   H9Y 2233   0.102   7.858   3.004  0.3213 -0.1312 -0.6063
   17SAPS  C310 2234   0.273   7.740   2.958 -0.3285  0.4993  0.0168
   17SAPS  H10X 2235   0.336   7.831   2.961 -1.9185  1.7129 -1.6902
   17SAPS  H10Y 2236   0.306   7.672   2.876 -1.3486  1.1266 -0.9400
   17SAPS  C311 2237   0.305   7.669   3.087 -0.1536  0.3625  0.0781
   17SAPS  H11X 2238   0.406   7.623   3.077 -0.4422 -0.0081 -1.3712
   17SAPS  H11Y 2239   0.234   7.584   3.095 -1.0580  1.1332  0.4266
   17SAPS  C312 2240   0.304   7.756   3.214 -0.0640 -0.4163  0.8131
   17SAPS  H12X 2241   0.245   7.848   3.192  0.2703 -0.0760  1.3213
   17SAPS  H12Y 2242   0.407   7.793   3.232  0.3881 -0.5389 -1.2232
   17SAPS  C313 2243   0.249   7.676   3.331  0.3701 -0.4681  1.0184
   17SAPS  H13X 2244   0.289   7.572   3.330  1.4439 -0.0938 -1.0052
   17SAPS  H13Y 2245   0.139   7.676   3.317  0.4838 -0.1396  0.0440
   17SAPS  C314 2246   0.280   7.738   3.462  0.0484  0.1896 -0.6063
   17SAPS  H14X 2247   0.254   7.846   3.473  3.4173  0.9447  1.0610
   17SAPS  H14Y 2248   0.390   7.739   3.477  0.2351 -0.5997 -1.7518
   17SAPS  C315 2249   0.213   7.666   3.587 -0.1721 -0.2880 -0.2613
   17SAPS  H15X 2250   0.109   7.668   3.550  1.1925  1.7602 -4.5831
   17SAPS  H15Y 2251   0.218   7.726   3.681  2.6877 -0.1525 -0.4053
   17SAPS  C316 2252   0.243   7.518   3.610  0.0757 -0.6796 -0.3249
   17SAPS  H16X 2253   0.258   7.459   3.517 -1.3725 -0.1585 -0.9109
   17SAPS  H16Y 2254   0.170   7.470   3.678 -0.1361 -0.8726 -0.6880
   17SAPS  C317 2255   0.379   7.510   3.677 -0.6824  0.3401 -0.2540
   17SAPS  H17X 2256   0.372   7.560   3.776  2.2786  0.8955 -0.2416
   17SAPS  H17Y 2257   0.460   7.568   3.629  0.2390  2.0700  3.1090
   17SAPS  C318 2258   0.418   7.361   3.689 -0.2863 -0.1580 -0.6313
   17SAPS  H18X 2259   0.497   7.358   3.767 -1.0160  3.0954  0.3745
   17SAPS  H18Y 2260   0.460   7.324   3.593  0.7010  0.8983 -0.6259
   17SAPS  H18Z 2261   0.331   7.299   3.720 -0.7003  0.4966 -0.4732
   18SAPS     N 2262   4.368   1.287   6.534  0.1379  0.3987  0.0400
   18SAPS   HN1 2263   4.392   1.375   6.483  0.4731 -0.4945 -1.4227
   18SAPS   HN2 2264   4.273   1.264   6.498 -0.0885  1.9607 -0.4628
   18SAPS   HN3 2265   4.367   1.298   6.637 -0.3754 -1.3641  0.2545
   18SAPS   C12 2266   4.464   1.183   6.487 -0.1025  0.0449 -0.1469
   18SAPS  H12A 2267   4.550   1.235   6.447  0.4702 -0.4643  0.4058
   18SAPS   C13 2268   4.520   1.104   6.605 -0.2303  0.3514  0.3550
   18SAPS  O13A 2269   4.484   1.132   6.721  0.0595 -0.1068 -0.3441
   18SAPS  O13B 2270   4.604   1.009   6.586  0.2172  0.1486 -0.0373
   18SAPS   C11 2271   4.399   1.101   6.374  0.4621  0.0640  0.2113
   18SAPS  H11A 2272   4.294   1.077   6.402 -0.1616  0.1550 -1.9027
   18SAPS  H11B 2273   4.452   1.005   6.359  1.4009  0.8803 -2.0995
   18SAPS     P 2274   4.517   1.156   6.142  0.2499  0.1314  0.0257
   18SAPS   O13 2275   4.644   1.221   6.170 -0.0402  0.7064  0.8262
   18SAPS   O14 2276   4.519   1.010   6.101  0.2100 -0.0741 -0.0202
   18SAPS   O12 2277   4.410   1.184   6.252 -0.4377  0.1774 -0.3707
   18SAPS   O11 2278   4.463   1.241   6.013 -0.4755  0.0178 -0.0947
   18SAPS    C1 2279   4.402   1.373   6.033  0.1206  0.2344 -0.2871
   18SAPS    HA 2280   4.291   1.369   6.028 -0.1487  3.7902  0.3365
   18SAPS    HB 2281   4.432   1.422   6.128  1.1102  1.5196 -1.2351
   18SAPS    C2 2282   4.453   1.473   5.924  0.1375  0.4513  0.3621
   18SAPS    HS 2283   4.411   1.573   5.948 -2.4794 -0.8043  1.4375
   18SAPS   O21 2284   4.402   1.428   5.799 -0.0306  0.1169 -0.0323
   18SAPS   C21 2285   4.278   1.447   5.777 -0.3615 -0.5608  0.9852
   18SAPS   O22 2286   4.199   1.517   5.840  0.0575  0.0544 -0.0293
   18SAPS   C22 2287   4.248   1.383   5.636 -0.2508 -0.6525  0.4255
   18SAPS   H2R 2288   4.345   1.347   5.596  0.1438  0.1848  0.6102
   18SAPS   H2S 2289   4.194   1.287   5.650  1.9771 -2.3301 -1.6049
   18SAPS    C3 2290   4.611   1.495   5.925 -0.3860 -0.2644 -0.0007
   18SAPS    HX 2291   4.643   1.390   5.909 -0.3686 -0.2098 -0.3341
   18SAPS    HY 2292   4.645   1.530   6.025 -4.3785  0.6577  1.2046
   18SAPS   O31 2293   4.648   1.587   5.819  0.4030 -0.3755 -0.3283
   18SAPS   C31 2294   4.706   1.536   5.711 -0.6637  0.6028 -0.0563
   18SAPS   O32 2295   4.718   1.412   5.694 -0.3114  0.1587 -0.0614
   18SAPS   C32 2296   4.746   1.649   5.623  0.3529 -0.6280  0.2497
   18SAPS   H2X 2297   4.830   1.709   5.663  0.3990  1.2243 -2.3862
   18SAPS   H2Y 2298   4.665   1.725   5.614 -0.4314 -1.6291 -1.9336
   18SAPS   C23 2299   4.195   1.478   5.526  0.1228 -0.4355  0.3445
   18SAPS   H3R 2300   4.237   1.581   5.536 -1.1858 -0.0346  2.5377
   18SAPS   H3S 2301   4.085   1.483   5.545  0.3110 -0.8024  1.6015
   18SAPS   C24 2302   4.232   1.439   5.384 -0.3526  0.6536 -0.3129
   18SAPS   H4R 2303   4.150   1.483   5.324 -2.1801  1.2928  2.4594
   18SAPS   H4S 2304   4.210   1.331   5.371 -0.5827  0.6222  0.2992
   18SAPS   C25 2305   4.375   1.474   5.345  0.1911 -0.7426  0.2157
   18SAPS   H5R 2306   4.428   1.525   5.427  0.8557  0.6189 -0.9977
   18SAPS   C26 2307   4.434   1.442   5.230 -0.2846 -0.2303 -0.1086
   18SAPS   H6R 2308   4.535   1.482   5.211 -1.2211  1.7986 -0.9972
   18SAPS   C27 2309   4.394   1.363   5.104  0.6900 -0.0267 -0.4793
   18SAPS   H7R 2310   4.367   1.258   5.129  0.9295  0.2339  0.9880
   18SAPS   H7S 2311   4.485   1.355   5.040 -0.4278  0.4491 -2.1969
   18SAPS   C28 2312   4.293   1.431   5.017 -0.6373  1.0971  0.0638
   18SAPS   H8R 2313   4.244   1.516   5.065 -1.8302 -1.0018  2.8427
   18SAPS   C29 2314   4.258   1.395   4.896  0.5947  0.2553  1.0814
   18SAPS   H9R 2315   4.175   1.450   4.850  2.4398  2.1162 -0.1973
   18SAPS  C210 2316   4.311   1.272   4.835  0.1920  0.1601 -0.3572
   18SAPS  H10R 2317   4.230   1.237   4.767 -0.1663  3.7040 -1.9676
   18SAPS  H10S 2318   4.323   1.192   4.911  1.5795  1.5141  0.9130
   18SAPS  C211 2319   4.444   1.286   4.765 -1.1494  1.1444  0.4696
   18SAPS  H11R 2320   4.535   1.299   4.825 -0.1665 -2.3164 -0.0393
   18SAPS  C212 2321   4.460   1.286   4.629 -0.0604 -0.0134 -0.2779
   18SAPS  H12R 2322   4.560   1.313   4.593  0.2813  1.0579  1.3759
   18SAPS  C213 2323   4.350   1.267   4.529  0.3344 -0.5008 -0.3418
   18SAPS  H13R 2324   4.254   1.256   4.583  1.1168  0.1941  1.2546
   18SAPS  H13S 2325   4.369   1.173   4.472  3.7144  0.5525 -1.2306
   18SAPS  C214 2326   4.339   1.380   4.427 -0.1732 -0.3290 -0.7517
   18SAPS  H14R 2327   4.263   1.456   4.451  0.0800 -0.6294  1.1544
   18SAPS  C215 2328   4.411   1.382   4.312  0.0666  0.4308  0.0051
   18SAPS  H15R 2329   4.382   1.462   4.242  0.3576  0.7595  0.2521
   18SAPS  C216 2330   4.502   1.274   4.254  0.2854 -0.2952  0.1474
   18SAPS  H16R 2331   4.541   1.215   4.339 -2.9398 -1.3833  1.0406
   18SAPS  H16S 2332   4.584   1.334   4.210 -0.1067  1.1554  1.3059
   18SAPS  C217 2333   4.433   1.191   4.147  0.3642 -1.0049 -0.1917
   18SAPS  H17R 2334   4.410   1.249   4.054 -0.9468  1.1502  1.3691
   18SAPS  H17S 2335   4.339   1.151   4.191 -0.4211 -0.9814 -1.7754
   18SAPS  C218 2336   4.504   1.058   4.119 -0.0172 -0.0426 -0.8218
   18SAPS  H18R 2337   4.521   1.011   4.218 -1.5886  1.4427  0.2093
   18SAPS  H18S 2338   4.607   1.079   4.083  0.2857  1.2825  0.6719
   18SAPS  C219 2339   4.433   0.960   4.020 -0.0665  0.1132  0.8226
   18SAPS  H19R 2340   4.334   0.922   4.052 -0.1015 -1.7243 -1.2236
   18SAPS  H19S 2341   4.485   0.863   4.003  0.5870  0.2429  2.0108
   18SAPS  C220 2342   4.409   1.015   3.877 -0.1539 -0.0858 -0.7165
   18SAPS  H20R 2343   4.362   0.937   3.814  0.7438  0.8338 -2.5945
   18SAPS  H20S 2344   4.502   1.038   3.821 -0.6538 -1.3316 -2.1414
   18SAPS  H20T 2345   4.345   1.105   3.880  2.6808  2.1158 -1.7182
   18SAPS   C33 2346   4.798   1.610   5.486 -0.6309  0.3274 -0.1545
   18SAPS   H3X 2347   4.719   1.552   5.433 -0.4123  1.1319 -1.4239
   18SAPS   H3Y 2348   4.885   1.540   5.495 -2.4556 -2.3338 -1.6447
   18SAPS   C34 2349   4.848   1.732   5.400  0.2638  0.3835  0.6185
   18SAPS   H4X 2350   4.935   1.781   5.449  2.6986 -0.2013 -2.7837
   18SAPS   H4Y 2351   4.767   1.807   5.390  1.9206  1.9284 -4.6487
   18SAPS   C35 2352   4.909   1.703   5.259  0.1897 -1.2491 -0.1538
   18SAPS   H5X 2353   4.979   1.619   5.274 -0.0463 -1.1779  1.4953
   18SAPS   H5Y 2354   4.965   1.790   5.219 -0.8774  0.0575  1.0767
   18SAPS   C36 2355   4.815   1.648   5.153 -0.1165 -0.7108 -0.7111
   18SAPS   H6X 2356   4.732   1.719   5.134 -1.0367 -1.1254  1.4829
   18SAPS   H6Y 2357   4.765   1.557   5.194 -1.3237  1.5874  3.4148
   18SAPS   C37 2358   4.897   1.618   5.036  0.8209  0.4227 -0.0943
   18SAPS   H7X 2359   4.975   1.540   5.052  1.2755  0.8181 -0.3544
   18SAPS   H7Y 2360   4.942   1.710   4.993  1.3047  0.7585  1.0918
   18SAPS   C38 2361   4.810   1.557   4.919  0.0211  0.2820 -0.4176
   18SAPS   H8X 2362   4.705   1.592   4.918 -0.4869 -1.0553  1.2993
   18SAPS   H8Y 2363   4.810   1.446   4.927  1.5243  0.1317 -2.0023
   18SAPS   C39 2364   4.850   1.587   4.773 -0.5535  0.5423 -0.1384
   18SAPS   H9X 2365   4.961   1.582   4.776 -0.5946 -1.8716 -0.2525
   18SAPS   H9Y 2366   4.807   1.686   4.746 -1.7614  0.3420  1.0041
   18SAPS  C310 2367   4.809   1.484   4.676  0.3251  0.4285 -0.3514
   18SAPS  H10X 2368   4.698   1.488   4.672  0.2189 -1.5370 -0.3737
   18SAPS  H10Y 2369   4.832   1.382   4.715  0.1517  0.1849 -0.8819
   18SAPS  C311 2370   4.875   1.495   4.540 -0.2162  0.1609  0.4988
   18SAPS  H11X 2371   4.985   1.501   4.553  0.0702 -0.7913 -1.1408
   18SAPS  H11Y 2372   4.843   1.592   4.498 -1.8315 -0.6901 -0.3112
   18SAPS  C312 2373   4.848   1.383   4.425  0.7244  0.0807 -0.2987
   18SAPS  H12X 2374   4.738   1.383   4.414  0.6343 -1.4283  0.3444
   18SAPS  H12Y 2375   4.882   1.284   4.464  0.9072  1.5009  3.5949
   18SAPS  C313 2376   4.918   1.420   4.298 -0.7699 -0.6309  0.1021
   18SAPS  H13X 2377   5.024   1.438   4.326 -0.5902 -0.0153 -0.9214
   18SAPS  H13Y 2378   4.879   1.519   4.267  1.6868  1.2486  2.4179
   18SAPS  C314 2379   4.892   1.327   4.184  0.5673  0.0091 -0.7289
   18SAPS  H14X 2380   4.787   1.294   4.198  0.2142  0.9378 -1.1015
   18SAPS  H14Y 2381   4.954   1.241   4.217  1.0406  0.4697 -0.4105
   18SAPS  C315 2382   4.918   1.391   4.045 -0.5271 -0.3552 -0.5852
   18SAPS  H15X 2383   5.028   1.404   4.041 -0.5971  0.5583  0.2324
   18SAPS  H15Y 2384   4.872   1.492   4.040 -1.3955 -0.5949  1.6024
   18SAPS  C316 2385   4.901   1.307   3.921  0.4575  0.4817 -0.4099
   18SAPS  H16X 2386   4.809   1.245   3.928  0.3266  0.4711 -1.7853
   18SAPS  H16Y 2387   4.985   1.234   3.923  2.5522  2.7728  1.9756
   18SAPS  C317 2388   4.900   1.376   3.783  0.2612 -0.9998 -0.1910
   18SAPS  H17X 2389   5.006   1.401   3.759  0.7997 -2.5379  0.4491
   18SAPS  H17Y 2390   4.835   1.466   3.794  0.4425 -0.9119  0.1933
   18SAPS  C318 2391   4.847   1.287   3.671  0.6368 -0.1533 -0.0395
   18SAPS  H18X 2392   4.905   1.193   3.664 -0.0070 -0.6200  0.6740
   18SAPS  H18Y 2393   4.848   1.338   3.572 -0.5061 -0.3618 -0.1722
   18SAPS  H18Z 2394   4.741   1.258   3.689  0.1822  1.3051 -0.2264
   19SAPS     N 2395   4.319   3.920   1.663  0.0294 -0.3740  0.3739
   19SAPS   HN1 2396   4.354   3.870   1.579  0.4286 -0.7275  0.7442
   19SAPS   HN2 2397   4.390   3.979   1.710 -0.4534  2.4688 -2.1794
   19SAPS   HN3 2398   4.283   3.845   1.726 -4.0354 -1.5845 -2.9533
   19SAPS   C12 2399   4.214   4.009   1.619  0.1521  0.5347  0.2700
   19SAPS  H12A 2400   4.265   4.067   1.543  0.4309  0.6208  0.5254
   19SAPS   C13 2401   4.102   3.929   1.532 -0.1842  0.0867  0.3865
   19SAPS  O13A 2402   4.141   3.827   1.462  0.0596 -0.2907 -0.3538
   19SAPS  O13B 2403   4.006   3.997   1.483 -0.0328 -0.1690  0.3494
   19SAPS   C11 2404   4.141   4.099   1.729 -0.8838 -0.0862  0.1428
   19SAPS  H11A 2405   4.088   4.032   1.801 -1.5281 -0.0628 -0.2945
   19SAPS  H11B 2406   4.060   4.155   1.678  0.5961 -0.1331 -2.4233
   19SAPS     P 2407   4.201   4.265   1.923 -0.7116 -0.0677  0.1344
   19SAPS   O13 2408   4.319   4.337   1.969  0.0840 -0.9638  0.5618
   19SAPS   O14 2409   4.078   4.342   1.912 -0.3321  0.5133 -0.0821
   19SAPS   O12 2410   4.228   4.194   1.787 -0.1881 -0.4286 -0.5014
   19SAPS   O11 2411   4.182   4.153   2.029 -0.3270 -0.5744  0.4186
   19SAPS    C1 2412   4.077   4.143   2.124  0.4773 -0.5652 -0.0439
   19SAPS    HA 2413   3.987   4.117   2.065  2.2744 -0.7950 -2.8787
   19SAPS    HB 2414   4.093   4.052   2.186 -0.1398  1.0758  2.7253
   19SAPS    C2 2415   4.065   4.267   2.218  0.3727 -0.0383  0.5058
   19SAPS    HS 2416   4.038   4.341   2.140 -2.1418 -1.8347 -0.4615
   19SAPS   O21 2417   4.192   4.294   2.278 -0.1482 -0.4115  0.1349
   19SAPS   C21 2418   4.207   4.417   2.334  0.0172 -0.2868  0.3715
   19SAPS   O22 2419   4.138   4.515   2.328 -0.1160 -0.1677  0.5417
   19SAPS   C22 2420   4.340   4.407   2.412 -0.2962  0.1626  0.1406
   19SAPS   H2R 2421   4.356   4.303   2.447  1.2287  0.3595  0.0735
   19SAPS   H2S 2422   4.413   4.429   2.331  0.7604 -2.0431  0.4356
   19SAPS    C3 2423   3.947   4.270   2.315  0.0024  0.0672 -0.2121
   19SAPS    HX 2424   3.855   4.280   2.253  1.7100  1.6003 -2.6654
   19SAPS    HY 2425   3.947   4.368   2.368 -1.6358  0.3301 -0.6371
   19SAPS   O31 2426   3.948   4.158   2.403 -0.1405  0.1378 -0.6605
   19SAPS   C31 2427   3.979   4.168   2.529  0.1261 -0.3404 -0.4496
   19SAPS   O32 2428   3.994   4.272   2.593  0.5387 -0.0246  0.1497
   19SAPS   C32 2429   3.993   4.028   2.583 -0.9581  0.3677  0.6268
   19SAPS   H2X 2430   4.035   3.964   2.501 -1.1872  2.4359 -1.1950
   19SAPS   H2Y 2431   3.891   3.995   2.612 -2.1130  2.1414 -1.1406
   19SAPS   C23 2432   4.360   4.516   2.527  0.0452 -0.2688  0.1881
   19SAPS   H3R 2433   4.352   4.614   2.475  3.1124  0.9396  1.7473
   19SAPS   H3S 2434   4.463   4.516   2.569 -0.5093  1.0731  1.6532
   19SAPS   C24 2435   4.266   4.487   2.648 -0.0006  0.5425  0.1318
   19SAPS   H4R 2436   4.168   4.446   2.615  0.5222 -0.2623 -0.4481
   19SAPS   H4S 2437   4.239   4.583   2.698 -1.5261  1.1314 -1.6875
   19SAPS   C25 2438   4.319   4.373   2.734  0.1933  0.3806  0.2680
   19SAPS   H5R 2439   4.323   4.277   2.682  0.5856  2.2076 -3.3848
   19SAPS   C26 2440   4.343   4.373   2.862 -0.8593  0.0838 -0.6272
   19SAPS   H6R 2441   4.372   4.280   2.913  1.5234  1.9166  1.6503
   19SAPS   C27 2442   4.367   4.485   2.954  0.1926  0.0023  0.0453
   19SAPS   H7R 2443   4.371   4.584   2.904  1.4815  0.3842  0.8575
   19SAPS   H7S 2444   4.467   4.475   3.000 -0.7971 -0.4758  2.1870
   19SAPS   C28 2445   4.245   4.482   3.047 -0.4013  0.4871 -0.6903
   19SAPS   H8R 2446   4.143   4.476   3.004 -1.1773 -2.5301  1.2663
   19SAPS   C29 2447   4.250   4.506   3.185  0.3381 -0.2731 -0.7543
   19SAPS   H9R 2448   4.153   4.503   3.235  0.3471  1.1318 -0.6164
   19SAPS  C210 2449   4.376   4.507   3.276  0.6774 -0.0054  0.0662
   19SAPS  H10R 2450   4.389   4.604   3.328  1.5567 -0.9621  1.7084
   19SAPS  H10S 2451   4.470   4.500   3.218  1.4722 -1.1737  1.4440
   19SAPS  C211 2452   4.372   4.399   3.383  0.1063 -0.3862 -0.2673
   19SAPS  H11R 2453   4.436   4.316   3.350 -1.8033 -1.6474 -0.9845
   19SAPS  C212 2454   4.338   4.407   3.513 -0.5279  0.2725  0.6488
   19SAPS  H12R 2455   4.350   4.319   3.578  1.9823  2.3518  3.2526
   19SAPS  C213 2456   4.283   4.531   3.587  0.6031  0.0594  0.3453
   19SAPS  H13R 2457   4.175   4.540   3.565  0.7531  1.3313  0.1045
   19SAPS  H13S 2458   4.348   4.615   3.555  0.3808 -0.4603 -1.5796
   19SAPS  C214 2459   4.296   4.495   3.736 -0.0376  0.1616 -0.0510
   19SAPS  H14R 2460   4.390   4.455   3.776 -0.5419 -1.1447 -0.1315
   19SAPS  C215 2461   4.192   4.509   3.830  0.0781  0.1840 -0.1374
   19SAPS  H15R 2462   4.223   4.475   3.930 -0.1170  0.6257  0.0734
   19SAPS  C216 2463   4.055   4.573   3.816 -0.8182  0.3826 -0.3720
   19SAPS  H16R 2464   3.992   4.534   3.899 -1.9181  1.3044 -0.7515
   19SAPS  H16S 2465   4.023   4.533   3.718 -2.1591  1.1315 -0.2691
   19SAPS  C217 2466   4.050   4.724   3.791  0.1189  0.2754 -0.6343
   19SAPS  H17R 2467   4.111   4.745   3.700  0.8966 -1.0361 -0.4417
   19SAPS  H17S 2468   4.085   4.778   3.881 -1.0379  0.4863 -0.2896
   19SAPS  C218 2469   3.906   4.783   3.768 -0.0260 -0.4780  0.6857
   19SAPS  H18R 2470   3.843   4.751   3.854 -1.1106  0.2288  0.1728
   19SAPS  H18S 2471   3.875   4.727   3.677 -0.4637  0.6904  0.0966
   19SAPS  C219 2472   3.906   4.936   3.739 -0.2107 -0.4354  0.6505
   19SAPS  H19R 2473   3.814   4.976   3.691  0.2790 -0.6365 -0.4876
   19SAPS  H19S 2474   3.979   4.964   3.660 -0.6356  0.0589  0.4237
   19SAPS  C220 2475   3.943   5.038   3.851  0.1642 -0.1593  0.5947
   19SAPS  H20R 2476   4.051   5.049   3.873  0.2004  0.3495  0.1792
   19SAPS  H20S 2477   3.888   5.006   3.942 -0.8849 -2.7556 -0.8421
   19SAPS  H20T 2478   3.914   5.139   3.816  0.9667  0.4523  1.6578
   19SAPS   C33 2479   4.084   4.023   2.713  0.3460  0.3934  0.0368
   19SAPS   H3X 2480   4.163   4.102   2.705  1.7170 -0.8021  1.2725
   19SAPS   H3Y 2481   4.143   3.929   2.710  0.4732  0.4770 -0.1217
   19SAPS   C34 2482   4.009   4.033   2.843  0.3668 -0.1166 -0.3763
   19SAPS   H4X 2483   3.963   3.934   2.863 -1.6710  0.9956  0.7506
   19SAPS   H4Y 2484   3.920   4.098   2.831 -0.7683 -1.4161  0.6543
   19SAPS   C35 2485   4.095   4.081   2.959 -0.2806  0.8486  0.0241
   19SAPS   H5X 2486   4.109   4.191   2.964  1.4352  0.6263  1.2036
   19SAPS   H5Y 2487   4.196   4.033   2.955 -1.3856 -1.6010 -0.7818
   19SAPS   C36 2488   4.041   4.032   3.087  0.4228  0.1583  0.0599
   19SAPS   H6X 2489   4.062   3.923   3.095  2.4514  0.5609  0.8241
   19SAPS   H6Y 2490   3.933   4.052   3.072 -0.0142 -0.2000  2.3009
   19SAPS   C37 2491   4.087   4.099   3.213  0.3135  0.1514  0.0372
   19SAPS   H7X 2492   4.083   4.210   3.212 -0.0890  0.1369 -0.0311
   19SAPS   H7Y 2493   4.194   4.070   3.219  0.1008 -1.1410 -1.8328
   19SAPS   C38 2494   4.008   4.039   3.336  0.0348 -0.1094 -0.1906
   19SAPS   H8X 2495   3.977   3.933   3.322 -1.0989  0.4894 -2.7971
   19SAPS   H8Y 2496   3.919   4.105   3.345  0.6084  0.8677 -1.2750
   19SAPS   C39 2497   4.093   4.053   3.462  0.5449 -0.1519 -0.1161
   19SAPS   H9X 2498   4.153   4.147   3.460 -1.4518  1.1878 -0.7793
   19SAPS   H9Y 2499   4.175   3.980   3.473  0.6913  0.2997  2.1244
   19SAPS  C310 2500   4.014   4.044   3.594  0.5275  0.3898  0.8875
   19SAPS  H10X 2501   3.963   3.946   3.606  0.0325  0.4507 -0.5722
   19SAPS  H10Y 2502   3.937   4.124   3.601  3.4127  3.6415 -0.9570
   19SAPS  C311 2503   4.101   4.073   3.714 -0.2773  0.0198 -0.2050
   19SAPS  H11X 2504   4.170   4.157   3.694  0.0049  0.1942  1.3377
   19SAPS  H11Y 2505   4.163   3.981   3.726  0.5512  0.4624 -0.9816
   19SAPS  C312 2506   4.026   4.093   3.844 -0.0864 -0.8825 -0.0543
   19SAPS  H12X 2507   3.980   4.190   3.818  0.7300 -0.7697 -1.1741
   19SAPS  H12Y 2508   4.104   4.104   3.923 -0.2737 -0.5859  0.0893
   19SAPS  C313 2509   3.928   3.992   3.891 -0.2290 -0.3622 -0.0807
   19SAPS  H13X 2510   3.969   3.895   3.929 -1.8124 -0.9760  0.1577
   19SAPS  H13Y 2511   3.859   3.965   3.808 -0.9142 -2.1359  0.9954
   19SAPS  C314 2512   3.831   4.063   3.996  0.1445  0.4332 -0.2475
   19SAPS  H14X 2513   3.744   4.000   4.026 -0.3435  1.4038  0.4059
   19SAPS  H14Y 2514   3.787   4.150   3.943  1.5745  1.9706  1.0030
   19SAPS  C315 2515   3.906   4.119   4.118  0.2773 -0.4633  0.5784
   19SAPS  H15X 2516   3.984   4.190   4.083 -0.2565 -0.3259 -0.3730
   19SAPS  H15Y 2517   3.955   4.040   4.178 -0.3501 -0.9334  0.4836
   19SAPS  C316 2518   3.803   4.198   4.211 -0.2450 -0.0252  0.3690
   19SAPS  H16X 2519   3.749   4.130   4.280  0.8291 -1.7700 -0.4495
   19SAPS  H16Y 2520   3.729   4.244   4.142  0.9309  0.9224 -0.3016
   19SAPS  C317 2521   3.871   4.305   4.296  0.7358  0.1611 -0.2996
   19SAPS  H17X 2522   3.801   4.345   4.373  0.1763 -1.2394 -0.0519
   19SAPS  H17Y 2523   3.883   4.390   4.225 -0.4795  0.1931 -0.5010
   19SAPS  C318 2524   4.006   4.257   4.358 -0.4627 -0.1674  0.6439
   19SAPS  H18X 2525   3.987   4.166   4.419 -0.3778 -1.4798 -1.2160
   19SAPS  H18Y 2526   4.061   4.339   4.408 -1.2459  0.1982  0.9162
   19SAPS  H18Z 2527   4.072   4.212   4.280 -1.3376 -1.6687  0.7360
   20SAPS     N 2528   6.250   3.521   1.636 -0.0792 -0.5883 -0.2567
   20SAPS   HN1 2529   6.309   3.582   1.576  1.8470 -1.9684  0.1430
   20SAPS   HN2 2530   6.222   3.439   1.579 -0.6902  0.3323 -1.3450
   20SAPS   HN3 2531   6.166   3.580   1.653  0.0156 -1.0900  2.3870
   20SAPS   C12 2532   6.315   3.497   1.767  0.5070  0.0936  0.1654
   20SAPS  H12A 2533   6.328   3.391   1.784  0.7345 -0.2752 -2.0289
   20SAPS   C13 2534   6.456   3.561   1.797 -0.4674 -0.0321 -0.2936
   20SAPS  O13A 2535   6.511   3.625   1.703  0.0926 -0.5267 -0.4311
   20SAPS  O13B 2536   6.504   3.573   1.913 -0.0223 -0.2968  0.1022
   20SAPS   C11 2537   6.225   3.562   1.872  0.7748  0.1671  0.7024
   20SAPS  H11A 2538   6.239   3.672   1.869  0.0218  0.2486 -0.6474
   20SAPS  H11B 2539   6.255   3.533   1.975 -0.7739  1.1429  1.4600
   20SAPS     P 2540   6.004   3.413   1.884  0.0606  0.2216  0.4353
   20SAPS   O13 2541   5.901   3.394   1.779 -0.1988  0.7461 -0.0343
   20SAPS   O14 2542   6.106   3.307   1.906 -0.6019 -0.1247 -0.2614
   20SAPS   O12 2543   6.084   3.543   1.842  0.1564 -0.3989  0.0122
   20SAPS   O11 2544   5.936   3.447   2.020  0.0904 -0.2603 -0.1847
   20SAPS    C1 2545   5.911   3.588   2.050  0.2897 -0.3503  0.0393
   20SAPS    HA 2546   5.916   3.655   1.962  1.5110  1.7476  1.6178
   20SAPS    HB 2547   5.809   3.606   2.091  0.1084  2.0588 -1.2736
   20SAPS    C2 2548   6.013   3.652   2.153 -0.1766 -0.7945  0.1833
   20SAPS    HS 2549   6.105   3.656   2.089 -0.6272  0.8780 -0.4210
   20SAPS   O21 2550   6.012   3.562   2.260  0.1404  0.4461 -0.0503
   20SAPS   C21 2551   6.127   3.511   2.296 -0.3586 -0.1763 -0.3473
   20SAPS   O22 2552   6.234   3.522   2.242 -0.2930  0.4549 -0.2258
   20SAPS   C22 2553   6.108   3.443   2.436  0.4768  0.5606  0.8874
   20SAPS   H2R 2554   6.173   3.487   2.515  1.8291 -1.4014  0.9506
   20SAPS   H2S 2555   6.000   3.451   2.459  0.0235 -0.5287 -0.7307
   20SAPS    C3 2556   5.979   3.804   2.184 -0.3859 -0.3883  0.4082
   20SAPS    HX 2557   5.874   3.818   2.217 -0.6243 -2.7326  0.8135
   20SAPS    HY 2558   5.979   3.846   2.081 -0.5412  0.5180  0.7768
   20SAPS   O31 2559   6.075   3.866   2.271 -0.1861 -0.0759 -0.5064
   20SAPS   C31 2560   6.059   3.832   2.397 -0.2085 -0.4282 -0.7372
   20SAPS   O32 2561   5.962   3.761   2.431 -0.2999 -0.1719  0.4257
   20SAPS   C32 2562   6.165   3.884   2.490 -0.0450  0.1223 -0.2061
   20SAPS   H2X 2563   6.177   3.993   2.472 -1.7072  0.2178 -0.9932
   20SAPS   H2Y 2564   6.254   3.838   2.443 -0.8252 -1.2469 -0.4190
   20SAPS   C23 2565   6.145   3.291   2.445 -0.3335  0.0503  0.1661
   20SAPS   H3R 2566   6.244   3.286   2.396 -1.0310  0.4120 -1.3581
   20SAPS   H3S 2567   6.077   3.244   2.370  0.2308  0.5838 -0.6922
   20SAPS   C24 2568   6.144   3.239   2.584 -0.0751  0.0873 -0.1267
   20SAPS   H4R 2569   6.039   3.256   2.616  0.8179  2.1665  2.0594
   20SAPS   H4S 2570   6.215   3.292   2.651  1.7998 -2.2230 -0.1818
   20SAPS   C25 2571   6.197   3.093   2.567 -0.2162 -0.7652 -0.3896
   20SAPS   H5R 2572   6.140   3.033   2.495 -0.0472 -0.7578 -0.5295
   20SAPS   C26 2573   6.305   3.042   2.629  0.1986  0.1753 -0.2608
   20SAPS   H6R 2574   6.338   2.941   2.604 -0.7846 -0.6622  1.6406
   20SAPS   C27 2575   6.386   3.098   2.742  0.6658 -0.3361 -0.0355
   20SAPS   H7R 2576   6.435   3.194   2.716  0.6278 -0.4383 -0.4921
   20SAPS   H7S 2577   6.469   3.027   2.765  0.6688 -0.1063  0.6927
   20SAPS   C28 2578   6.299   3.136   2.860 -0.2942 -0.7043 -0.0546
   20SAPS   H8R 2579   6.197   3.095   2.856 -0.2818 -0.6736 -1.1735
   20SAPS   C29 2580   6.325   3.219   2.961 -0.1638  0.8348  0.7406
   20SAPS   H9R 2581   6.250   3.233   3.042 -0.4003  0.4699  0.5850
   20SAPS  C210 2582   6.463   3.273   2.993  0.6978  0.1690 -0.6082
   20SAPS  H10R 2583   6.463   3.384   2.984 -2.9965  0.2743 -0.9591
   20SAPS  H10S 2584   6.538   3.229   2.925  0.0972  0.0278 -1.1887
   20SAPS  C211 2585   6.513   3.240   3.134  0.4437 -0.0566  0.1237
   20SAPS  H11R 2586   6.530   3.131   3.142  1.2651  0.0286 -0.3485
   20SAPS  C212 2587   6.531   3.317   3.245  0.6102  1.2074 -0.3051
   20SAPS  H12R 2588   6.572   3.262   3.331  0.6901 -1.5981 -2.0520
   20SAPS  C213 2589   6.496   3.464   3.266  0.1575  0.4057 -0.4372
   20SAPS  H13R 2590   6.460   3.507   3.170 -1.8823  0.5160  0.3350
   20SAPS  H13S 2591   6.590   3.514   3.299 -0.7710 -0.4292  4.1204
   20SAPS  C214 2592   6.386   3.505   3.369  0.0363 -0.0820  0.3328
   20SAPS  H14R 2593   6.298   3.539   3.313  2.6891  0.5514 -3.9263
   20SAPS  C215 2594   6.404   3.515   3.506  0.3398 -0.2916  0.2424
   20SAPS  H15R 2595   6.312   3.542   3.561 -0.1062  1.0460 -1.0813
   20SAPS  C216 2596   6.530   3.484   3.576 -0.0421  0.3610 -0.7404
   20SAPS  H16R 2597   6.605   3.429   3.516  0.9295  2.9479 -2.0655
   20SAPS  H16S 2598   6.502   3.423   3.664  3.0526  1.0988  0.9127
   20SAPS  C217 2599   6.595   3.612   3.635  0.7362  0.0707 -0.3137
   20SAPS  H17R 2600   6.537   3.668   3.712 -2.4890 -1.1437 -1.6941
   20SAPS  H17S 2601   6.600   3.693   3.559 -0.2455 -1.9747 -2.6932
   20SAPS  C218 2602   6.731   3.587   3.702 -0.2802 -0.0818 -0.4224
   20SAPS  H18R 2603   6.803   3.576   3.618 -2.5640 -0.0314 -2.5020
   20SAPS  H18S 2604   6.728   3.497   3.767 -2.6157  1.7555  2.2823
   20SAPS  C219 2605   6.777   3.694   3.803  0.1099 -0.5460  0.0910
   20SAPS  H19R 2606   6.703   3.721   3.883  2.3598  4.9938  0.7480
   20SAPS  H19S 2607   6.793   3.783   3.739 -0.2921  0.1556  0.9466
   20SAPS  C220 2608   6.908   3.672   3.871 -0.4865 -0.5612  0.2354
   20SAPS  H20R 2609   6.903   3.583   3.938 -1.9368  0.4191  1.5157
   20SAPS  H20S 2610   6.938   3.758   3.936  3.1682 -1.5951  0.1230
   20SAPS  H20T 2611   6.991   3.656   3.799 -0.7305 -1.9037  0.2355
   20SAPS   C33 2612   6.148   3.847   2.634 -0.6735 -0.5256 -0.1588
   20SAPS   H3X 2613   6.248   3.828   2.677 -0.8076 -0.9423 -0.0257
   20SAPS   H3Y 2614   6.091   3.753   2.650 -0.0129 -0.8662  0.2206
   20SAPS   C34 2615   6.081   3.964   2.716  0.4502  0.0466  0.3182
   20SAPS   H4X 2616   5.978   3.979   2.677  1.5941  2.2776 -2.1547
   20SAPS   H4Y 2617   6.135   4.056   2.687  0.0589 -0.4205 -2.0785
   20SAPS   C35 2618   6.081   3.938   2.872  0.1201  0.1482  0.3597
   20SAPS   H5X 2619   6.179   3.957   2.922  0.0460 -3.5438  2.2206
   20SAPS   H5Y 2620   6.061   3.829   2.884 -1.2841  0.2733 -0.6246
   20SAPS   C36 2621   5.973   4.026   2.937  0.0559  0.7578 -0.2581
   20SAPS   H6X 2622   5.872   3.998   2.901  0.6534 -0.4107 -1.0766
   20SAPS   H6Y 2623   5.981   4.130   2.898 -0.3984  0.9268  0.0881
   20SAPS   C37 2624   5.966   4.019   3.091 -0.1530 -0.4115 -0.4228
   20SAPS   H7X 2625   6.050   4.061   3.151 -1.8079  0.5571  1.3467
   20SAPS   H7Y 2626   5.960   3.909   3.109  0.1000 -0.5103 -0.9317
   20SAPS   C38 2627   5.843   4.086   3.139  0.6949  0.3534 -0.1844
   20SAPS   H8X 2628   5.751   4.049   3.089 -1.6061  3.2430  1.6094
   20SAPS   H8Y 2629   5.847   4.195   3.119 -1.9645  0.2539 -1.7331
   20SAPS   C39 2630   5.834   4.072   3.294 -0.2104  0.5104 -0.1641
   20SAPS   H9X 2631   5.929   4.095   3.346 -0.3486 -0.4207  0.5207
   20SAPS   H9Y 2632   5.810   3.969   3.326 -2.5869  1.1023  0.1883
   20SAPS  C310 2633   5.733   4.157   3.364 -0.1765 -0.0339  0.1854
   20SAPS  H10X 2634   5.638   4.149   3.306  1.4516  0.5058 -2.7695
   20SAPS  H10Y 2635   5.758   4.265   3.366  1.8633 -0.4853  0.3885
   20SAPS  C311 2636   5.728   4.116   3.511  0.0486 -0.1144  0.3447
   20SAPS  H11X 2637   5.729   4.006   3.524 -1.6143  0.1431  3.9068
   20SAPS  H11Y 2638   5.632   4.153   3.554 -0.4660 -1.5419  0.4609
   20SAPS  C312 2639   5.841   4.178   3.601 -0.6995 -0.2993  0.6156
   20SAPS  H12X 2640   5.864   4.285   3.580  3.3448 -1.0898  0.1952
   20SAPS  H12Y 2641   5.937   4.124   3.587  0.6663  2.2304 -0.3705
   20SAPS  C313 2642   5.822   4.154   3.752  0.2238 -0.0456  0.5029
   20SAPS  H13X 2643   5.735   4.216   3.781 -0.8719 -1.4953  0.4116
   20SAPS  H13Y 2644   5.913   4.176   3.812 -0.3272 -0.0892  1.3652
   20SAPS  C314 2645   5.783   4.008   3.786 -0.7020 -0.1054  0.3849
   20SAPS  H14X 2646   5.858   3.942   3.737  2.5053  2.4950  1.3968
   20SAPS  H14Y 2647   5.676   3.988   3.763 -0.7368 -0.7079  1.0188
   20SAPS  C315 2648   5.803   3.980   3.931  0.0620  0.4707  0.0844
   20SAPS  H15X 2649   5.910   3.979   3.961  0.1413 -1.0474 -0.1731
   20SAPS  H15Y 2650   5.770   3.876   3.954  0.9651  0.4539  1.4024
   20SAPS  C316 2651   5.716   4.063   4.033  0.5255  0.2681 -0.1780
   20SAPS  H16X 2652   5.611   4.058   3.996  0.1450 -1.5361  1.0390
   20SAPS  H16Y 2653   5.744   4.171   4.025  0.2198  0.2041 -3.4714
   20SAPS  C317 2654   5.705   4.013   4.175 -1.0703 -0.1080 -0.7755
   20SAPS  H17X 2655   5.674   3.907   4.188  1.4062 -0.7757  0.3180
   20SAPS  H17Y 2656   5.624   4.068   4.229  0.0202 -0.5830  1.4932
   20SAPS  C318 2657   5.832   4.026   4.269  0.2352  0.2640  1.2209
   20SAPS  H18X 2658   5.922   3.979   4.224  0.7642  2.2534  0.0778
   20SAPS  H18Y 2659   5.815   3.967   4.362 -3.2687 -2.9209 -1.1470
   20SAPS  H18Z 2660   5.848   4.135   4.283  0.5481  0.1467  1.8152
   21CHL1    C3 2661   0.995   2.119   6.051  0.0300  0.4843 -0.1764
   21CHL1    H3 2662   1.071   2.148   6.127  0.3285 -0.3136 -0.1629
   21CHL1    O3 2663   0.894   2.045   6.121 -0.2686 -0.1896  0.4928
   21CHL1   H3' 2664   0.914   1.952   6.113  1.7230  0.3153 -1.6793
   21CHL1    C4 2665   0.937   2.240   5.977 -0.4236 -0.5012 -0.2326
   21CHL1   H4A 2666   0.851   2.208   5.915 -0.8220 -0.0466  0.0761
   21CHL1   H4B 2667   0.901   2.315   6.051  1.9159  2.3297 -1.7418
   21CHL1    C5 2668   1.039   2.306   5.884  0.7513 -0.3753 -0.1578
   21CHL1    C6 2669   1.053   2.437   5.888 -0.4323 -0.2673  0.0648
   21CHL1    H6 2670   0.996   2.507   5.951 -0.4202  2.2240 -2.4711
   21CHL1    C7 2671   1.151   2.519   5.804  0.2445 -0.1897 -0.5806
   21CHL1   H7A 2672   1.095   2.605   5.760  0.0933  1.2278  2.1665
   21CHL1   H7B 2673   1.241   2.540   5.866  0.7657 -2.6049 -0.4321
   21CHL1    C8 2674   1.205   2.429   5.687  0.1277  0.4921 -0.2568
   21CHL1    H8 2675   1.124   2.421   5.611 -2.6498  0.2393  2.5306
   21CHL1   C14 2676   1.339   2.491   5.644 -0.6937 -0.1859  0.5503
   21CHL1   H14 2677   1.396   2.487   5.739 -2.9081  0.0990  1.9553
   21CHL1   C15 2678   1.336   2.638   5.602 -0.0141  0.2583 -0.6591
   21CHL1  H15A 2679   1.256   2.659   5.528  2.6414  3.4926 -2.9611
   21CHL1  H15B 2680   1.321   2.710   5.685 -0.0340  0.1551 -0.5743
   21CHL1   C16 2681   1.469   2.666   5.526  0.1140  0.6410  0.7199
   21CHL1  H16A 2682   1.453   2.708   5.424 -0.0829 -2.0206 -0.4160
   21CHL1  H16B 2683   1.530   2.736   5.587 -1.8487  3.6877 -0.5309
   21CHL1   C17 2684   1.521   2.525   5.508  0.2948  0.1163 -0.4954
   21CHL1   H17 2685   1.575   2.505   5.603 -0.4971 -0.3501 -0.1260
   21CHL1   C13 2686   1.409   2.421   5.530 -0.0237 -0.5938  0.0276
   21CHL1   C18 2687   1.318   2.412   5.407 -0.1394  0.8306  0.2132
   21CHL1  H18A 2688   1.269   2.507   5.377 -0.3745  0.5396 -0.3378
   21CHL1  H18B 2689   1.367   2.361   5.322 -1.9838  0.6417 -0.7957
   21CHL1  H18C 2690   1.232   2.345   5.433  2.9326 -3.4309  0.4480
   21CHL1   C12 2691   1.450   2.282   5.588  0.2171  0.0108 -0.4339
   21CHL1  H12A 2692   1.509   2.228   5.510  0.8950  0.3248 -0.1426
   21CHL1  H12B 2693   1.515   2.272   5.678 -0.3168 -1.3671 -0.1651
   21CHL1   C11 2694   1.321   2.203   5.631  0.3638 -0.8139 -0.3331
   21CHL1  H11A 2695   1.251   2.198   5.545 -0.6893  1.1120  0.3423
   21CHL1  H11B 2696   1.339   2.099   5.665  0.7593  0.0149  2.1579
   21CHL1    C9 2697   1.242   2.286   5.737 -0.1480  0.1375 -0.6358
   21CHL1    H9 2698   1.315   2.299   5.819 -1.3062 -0.8908  0.6073
   21CHL1   C10 2699   1.116   2.211   5.795 -0.6064 -0.7259  0.2853
   21CHL1   C19 2700   1.043   2.157   5.676  0.0881 -0.1100  0.5073
   21CHL1  H19A 2701   1.029   2.225   5.589  2.0457 -2.7266 -2.0554
   21CHL1  H19B 2702   1.102   2.074   5.632 -1.2155  0.0913 -1.7784
   21CHL1  H19C 2703   0.946   2.113   5.709  0.1406 -1.3308 -0.8768
   21CHL1    C1 2704   1.174   2.093   5.881  0.3212 -0.2064 -0.0320
   21CHL1   H1A 2705   1.226   2.022   5.814 -3.5183 -2.2109 -1.1565
   21CHL1   H1B 2706   1.254   2.135   5.946 -0.1487 -0.1671  0.5302
   21CHL1    C2 2707   1.067   2.020   5.954  0.2688 -0.1415  0.1021
   21CHL1   H2A 2708   1.120   1.947   6.018  3.4011  1.0406 -0.9587
   21CHL1   H2B 2709   0.987   1.982   5.886 -1.1608  2.9792 -0.1711
   21CHL1   C20 2710   1.617   2.506   5.387 -0.3978  0.4740 -0.3481
   21CHL1   H20 2711   1.635   2.396   5.382  4.2462  0.9215  1.4785
   21CHL1   C21 2712   1.757   2.569   5.427  0.5571 -0.2250  0.4502
   21CHL1  H21A 2713   1.835   2.548   5.350 -0.9542 -1.7476 -0.7532
   21CHL1  H21B 2714   1.799   2.531   5.522  3.2989  2.1607  0.3360
   21CHL1  H21C 2715   1.750   2.680   5.433 -0.9886 -0.1232 -1.7279
   21CHL1   C22 2716   1.568   2.575   5.258 -0.5011 -0.1431 -0.7913
   21CHL1  H22A 2717   1.458   2.569   5.261 -0.6821  1.4347 -2.3731
   21CHL1  H22B 2718   1.582   2.685   5.258  0.3411 -0.1733  2.3918
   21CHL1   C23 2719   1.616   2.506   5.130  0.5379 -0.3734 -0.2416
   21CHL1  H23A 2720   1.727   2.508   5.135  0.6028  1.6191 -1.3056
   21CHL1  H23B 2721   1.573   2.404   5.134 -0.5871  0.1012  0.1473
   21CHL1   C24 2722   1.592   2.574   4.993  0.7840 -0.3531 -0.1312
   21CHL1  H24A 2723   1.641   2.521   4.909  1.3520  0.2737 -0.2092
   21CHL1  H24B 2724   1.481   2.570   4.984  0.4670  1.0952  2.2609
   21CHL1   C25 2725   1.643   2.718   4.987 -0.1185 -0.4950  0.5839
   21CHL1   H25 2726   1.599   2.768   5.077 -1.0222 -2.5270  1.3203
   21CHL1   C26 2727   1.796   2.727   5.002  0.2211 -0.2310  0.3247
   21CHL1  H26A 2728   1.849   2.649   4.942  0.2339 -1.5759  2.0037
   21CHL1  H26B 2729   1.834   2.829   4.981 -1.1114  0.0160 -1.0737
   21CHL1  H26C 2730   1.825   2.697   5.105  0.4476 -0.1447  0.2863
   21CHL1   C27 2731   1.587   2.784   4.859 -0.7587  0.5199 -0.3915
   21CHL1  H27A 2732   1.479   2.772   4.838 -0.3744 -0.0013 -2.2223
   21CHL1  H27B 2733   1.625   2.889   4.859  2.7504 -0.5963  0.3235
   21CHL1  H27C 2734   1.635   2.731   4.774  0.9582  2.5379 -0.7720
   22CHL1    C3 2735   3.837   1.775   5.753  0.5193 -0.2950  0.7324
   22CHL1    H3 2736   3.921   1.703   5.766 -0.6248 -2.2570 -1.7934
   22CHL1    O3 2737   3.775   1.818   5.873 -0.3601 -0.4765 -0.0194
   22CHL1   H3' 2738   3.732   1.739   5.905 -0.1436  0.0687  1.7391
   22CHL1    C4 2739   3.871   1.900   5.671  0.4881  0.1831 -0.0578
   22CHL1   H4A 2740   3.787   1.973   5.674  2.2381  2.2975  0.1479
   22CHL1   H4B 2741   3.957   1.941   5.728 -0.2980 -0.2668  1.5337
   22CHL1    C5 2742   3.903   1.879   5.525 -0.3562 -0.8014 -1.1349
   22CHL1    C6 2743   4.016   1.933   5.472  0.0484  0.6952 -0.6175
   22CHL1    H6 2744   4.083   1.999   5.529  1.9136 -0.9175 -0.8491
   22CHL1    C7 2745   4.056   1.921   5.332 -0.3824  0.3485 -0.1937
   22CHL1   H7A 2746   4.094   2.021   5.302 -0.2353  0.9352  1.7640
   22CHL1   H7B 2747   4.144   1.855   5.320 -1.3206 -1.0502  0.4044
   22CHL1    C8 2748   3.951   1.868   5.235  0.0169  0.4862  0.3192
   22CHL1    H8 2749   3.879   1.952   5.227 -0.3083  0.1541 -0.3033
   22CHL1   C14 2750   4.005   1.820   5.100 -0.3555  0.2135  0.2970
   22CHL1   H14 2751   4.045   1.719   5.125  0.7209  1.1565  2.6350
   22CHL1   C15 2752   4.113   1.898   5.034  0.4690 -0.5584  0.0311
   22CHL1  H15A 2753   4.093   2.007   5.028  0.6624 -0.5025  0.3596
   22CHL1  H15B 2754   4.215   1.881   5.075  0.8690  0.3155 -0.5607
   22CHL1   C16 2755   4.111   1.843   4.892  0.3650 -0.4796  0.2855
   22CHL1  H16A 2756   4.112   1.938   4.834 -0.1016 -0.1450  0.8195
   22CHL1  H16B 2757   4.206   1.786   4.878  0.0450 -1.0987  0.6208
   22CHL1   C17 2758   3.979   1.757   4.873  0.7942 -0.0069 -0.3979
   22CHL1   H17 2759   4.010   1.652   4.889  3.4009  0.7770  0.2377
   22CHL1   C13 2760   3.898   1.793   5.001  0.1384  1.2055 -0.6398
   22CHL1   C18 2761   3.808   1.923   4.981 -0.9942 -0.2070  0.0010
   22CHL1  H18A 2762   3.739   1.921   4.894 -0.2627 -0.0908 -0.5943
   22CHL1  H18B 2763   3.741   1.932   5.069 -0.5064 -1.3310  0.5093
   22CHL1  H18C 2764   3.873   2.013   4.970  0.9287 -1.7961 -3.2285
   22CHL1   C12 2765   3.821   1.672   5.067 -0.2205  0.1099  0.0168
   22CHL1  H12A 2766   3.729   1.648   5.010 -1.2251 -0.1374  1.6760
   22CHL1  H12B 2767   3.879   1.578   5.078 -2.8568 -1.5856  0.4070
   22CHL1   C11 2768   3.759   1.700   5.205  0.0512  0.7651 -0.3963
   22CHL1  H11A 2769   3.679   1.777   5.195 -2.2904 -1.1645  2.0377
   22CHL1  H11B 2770   3.714   1.610   5.252  1.4522  0.1395 -0.1925
   22CHL1    C9 2771   3.863   1.764   5.304 -0.0028  0.0905  0.3324
   22CHL1    H9 2772   3.938   1.689   5.338 -1.0731 -0.4708  1.5554
   22CHL1   C10 2773   3.806   1.800   5.449 -0.5764 -0.1021  0.3297
   22CHL1   C19 2774   3.670   1.872   5.429  0.7718 -0.1663  0.0365
   22CHL1  H19A 2775   3.674   1.938   5.340  0.5870  3.1983  2.3408
   22CHL1  H19B 2776   3.588   1.799   5.413  0.4958 -0.3068  1.9214
   22CHL1  H19C 2777   3.649   1.952   5.502  1.6570 -0.5268  0.7112
   22CHL1    C1 2778   3.785   1.674   5.531 -0.4630 -0.1343  0.3005
   22CHL1   H1A 2779   3.706   1.614   5.481 -0.6561 -1.9181  2.5867
   22CHL1   H1B 2780   3.876   1.610   5.526 -0.8119 -0.5577 -3.2478
   22CHL1    C2 2781   3.733   1.693   5.678  0.2642  0.0240 -0.2253
   22CHL1   H2A 2782   3.704   1.596   5.724 -2.9985  2.1328  2.6203
   22CHL1   H2B 2783   3.642   1.757   5.668 -0.0317 -0.4326 -0.5097
   22CHL1   C20 2784   3.910   1.777   4.738 -1.1221 -0.1662  0.2974
   22CHL1   H20 2785   3.884   1.885   4.742 -0.2439  0.0475  0.5306
   22CHL1   C21 2786   3.780   1.691   4.727 -0.7004 -0.7967  0.0919
   22CHL1  H21A 2787   3.699   1.731   4.791 -2.2278  1.9423 -3.2062
   22CHL1  H21B 2788   3.800   1.591   4.770 -0.1960 -0.2480  1.1521
   22CHL1  H21C 2789   3.749   1.683   4.620  2.7544 -1.2889 -1.0287
   22CHL1   C22 2790   4.017   1.740   4.627  0.5505 -0.4431  0.5606
   22CHL1  H22A 2791   4.098   1.816   4.624  1.5665 -1.4248  2.1342
   22CHL1  H22B 2792   4.052   1.635   4.635 -2.1005 -1.4456 -0.1279
   22CHL1   C23 2793   3.957   1.742   4.483 -0.2958 -0.1988 -0.3369
   22CHL1  H23A 2794   3.886   1.657   4.485 -1.2609  0.5214  3.1495
   22CHL1  H23B 2795   3.906   1.836   4.455 -1.3191 -0.2249  1.3091
   22CHL1   C24 2796   4.063   1.712   4.379 -0.2152  0.3217 -0.2248
   22CHL1  H24A 2797   4.140   1.790   4.363 -1.3283  1.3862 -0.5376
   22CHL1  H24B 2798   4.106   1.611   4.397 -0.2803  0.8052  3.3960
   22CHL1   C25 2799   4.011   1.691   4.235  0.2237  0.0393  0.7787
   22CHL1   H25 2800   3.931   1.614   4.233  1.2326 -1.1579  2.9815
   22CHL1   C26 2801   3.950   1.828   4.183 -0.2485  0.4738  0.6497
   22CHL1  H26A 2802   3.892   1.827   4.088  1.2876  0.7188 -0.3334
   22CHL1  H26B 2803   3.877   1.878   4.250 -2.2327  0.3661 -1.3322
   22CHL1  H26C 2804   4.038   1.896   4.174 -0.6359  0.8999  0.0030
   22CHL1   C27 2805   4.113   1.643   4.133 -0.0605  0.0229 -0.2085
   22CHL1  H27A 2806   4.158   1.553   4.181 -0.6377  0.0904  0.4787
   22CHL1  H27B 2807   4.051   1.621   4.044 -0.5577 -1.6270  0.5091
   22CHL1  H27C 2808   4.191   1.721   4.118  1.1064 -0.6009  2.1966
   23CHL1    C3 2809   0.505   3.233   5.562  0.8450  0.0697  0.4865
   23CHL1    H3 2810   0.411   3.184   5.528  1.7230 -1.5065  0.2323
   23CHL1    O3 2811   0.495   3.260   5.702  0.2123  0.0353 -0.1867
   23CHL1   H3' 2812   0.561   3.330   5.710 -0.5938  0.7301  0.6709
   23CHL1    C4 2813   0.620   3.141   5.532 -0.8178  0.3558  0.4793
   23CHL1   H4A 2814   0.705   3.192   5.583 -0.2126 -1.1160  1.0018
   23CHL1   H4B 2815   0.609   3.044   5.584  0.0611 -1.0593 -1.8168
   23CHL1    C5 2816   0.644   3.120   5.376  0.7569  0.1815 -0.5932
   23CHL1    C6 2817   0.652   2.996   5.321 -0.4407  0.0393 -0.4985
   23CHL1    H6 2818   0.635   2.910   5.387 -1.0754  0.4309 -0.1357
   23CHL1    C7 2819   0.675   2.970   5.173  0.4243  0.4297  0.4623
   23CHL1   H7A 2820   0.755   2.894   5.168 -0.2121 -0.1754 -0.9457
   23CHL1   H7B 2821   0.583   2.918   5.138  0.2691  0.7431  0.3997
   23CHL1    C8 2822   0.711   3.101   5.097 -0.0240  0.2376  0.1563
   23CHL1    H8 2823   0.812   3.131   5.134 -0.8529  2.0247  1.0963
   23CHL1   C14 2824   0.688   3.089   4.946 -0.5445  0.4716  0.1232
   23CHL1   H14 2825   0.581   3.060   4.937 -0.4772  0.1368  0.3839
   23CHL1   C15 2826   0.745   2.964   4.876 -0.1642 -0.3606  1.1110
   23CHL1  H15A 2827   0.853   2.952   4.898  0.9184  2.8841 -1.5482
   23CHL1  H15B 2828   0.689   2.875   4.914  1.7462 -3.1467 -2.0407
   23CHL1   C16 2829   0.720   2.992   4.731  0.6553 -0.0270  0.1662
   23CHL1  H16A 2830   0.793   2.968   4.651  0.1865  1.4626 -0.7389
   23CHL1  H16B 2831   0.633   2.931   4.701  2.4380 -1.9623 -1.3583
   23CHL1   C17 2832   0.705   3.144   4.721  0.1482 -1.0238 -0.3147
   23CHL1   H17 2833   0.596   3.157   4.706  0.0836 -0.4074  0.6067
   23CHL1   C13 2834   0.727   3.210   4.861 -0.0180  0.4083  0.1166
   23CHL1   C18 2835   0.872   3.256   4.885 -0.2481 -0.2135 -0.3050
   23CHL1  H18A 2836   0.951   3.182   4.856  0.5000  0.6594 -0.5443
   23CHL1  H18B 2837   0.905   3.349   4.833  1.7125 -1.0496 -0.6549
   23CHL1  H18C 2838   0.892   3.280   4.991 -2.2726 -0.5798  0.1831
   23CHL1   C12 2839   0.624   3.319   4.900  0.0993  0.4037  0.5933
   23CHL1  H12A 2840   0.635   3.412   4.841  1.4006 -0.5461 -0.7507
   23CHL1  H12B 2841   0.524   3.277   4.878 -0.0678  0.5035  1.1397
   23CHL1   C11 2842   0.627   3.347   5.053  0.0807 -0.0959  0.5307
   23CHL1  H11A 2843   0.718   3.408   5.074 -0.3417  0.7113  0.0690
   23CHL1  H11B 2844   0.538   3.409   5.080  1.1904  3.2658 -2.6148
   23CHL1    C9 2845   0.622   3.216   5.143  0.4328 -0.1952  0.1185
   23CHL1    H9 2846   0.517   3.179   5.140 -0.1427  1.3068  0.7490
   23CHL1   C10 2847   0.649   3.253   5.294 -0.0377  0.0868 -0.5544
   23CHL1   C19 2848   0.794   3.313   5.317  0.4185  0.2325 -0.1988
   23CHL1  H19A 2849   0.811   3.320   5.427 -0.4396 -0.5235 -0.0026
   23CHL1  H19B 2850   0.869   3.249   5.266 -0.3319 -1.9815  1.3172
   23CHL1  H19C 2851   0.796   3.416   5.275  0.5333 -0.0321 -0.8511
   23CHL1    C1 2852   0.532   3.347   5.347  0.1262 -0.3139  0.7302
   23CHL1   H1A 2853   0.540   3.445   5.294 -4.2818 -0.3855 -0.5160
   23CHL1   H1B 2854   0.435   3.309   5.309 -0.1284  0.8689  0.1425
   23CHL1    C2 2855   0.522   3.364   5.493  1.1149 -0.7052 -0.3018
   23CHL1   H2A 2856   0.431   3.421   5.521  2.8305  1.7259  0.6953
   23CHL1   H2B 2857   0.613   3.417   5.526 -0.9453  1.9515  1.5284
   23CHL1   C20 2858   0.765   3.214   4.604  0.0286  0.1022  0.3212
   23CHL1   H20 2859   0.775   3.321   4.631  1.6194  0.0554  0.0342
   23CHL1   C21 2860   0.658   3.202   4.489  0.0548 -0.3256  0.5127
   23CHL1  H21A 2861   0.656   3.097   4.453 -0.6619  0.1116 -0.7929
   23CHL1  H21B 2862   0.693   3.262   4.402 -0.2939  2.1069  1.9869
   23CHL1  H21C 2863   0.555   3.239   4.508  0.6097  2.5505 -1.4351
   23CHL1   C22 2864   0.911   3.171   4.562  0.6501  0.2165  0.6925
   23CHL1  H22A 2865   0.970   3.149   4.654  1.1561 -0.8572  0.1267
   23CHL1  H22B 2866   0.905   3.078   4.502 -0.7927  0.4099  0.4922
   23CHL1   C23 2867   0.978   3.280   4.482  0.0752 -0.4398 -0.1472
   23CHL1  H23A 2868   0.922   3.302   4.388  0.7290 -1.7635 -0.8789
   23CHL1  H23B 2869   0.973   3.364   4.554 -3.6399 -2.3590  2.1164
   23CHL1   C24 2870   1.119   3.249   4.431 -0.1893  0.3441 -0.9229
   23CHL1  H24A 2871   1.186   3.214   4.513  0.3831  1.9832 -0.6504
   23CHL1  H24B 2872   1.106   3.164   4.361 -0.4994 -1.7393  1.4979
   23CHL1   C25 2873   1.187   3.374   4.365 -0.1976 -0.2189 -0.4540
   23CHL1   H25 2874   1.186   3.454   4.442  1.7342  0.0042 -0.6280
   23CHL1   C26 2875   1.331   3.345   4.318  1.2866  0.2383 -0.2421
   23CHL1  H26A 2876   1.339   3.295   4.219  1.9458  1.2642 -0.7266
   23CHL1  H26B 2877   1.382   3.444   4.311  2.1874 -0.1288  0.9398
   23CHL1  H26C 2878   1.375   3.283   4.398 -0.5125  0.0665  0.6671
   23CHL1   C27 2879   1.115   3.411   4.241 -0.7271  0.5606  0.3386
   23CHL1  H27A 2880   1.163   3.504   4.204  0.3274  0.6967  1.9600
   23CHL1  H27B 2881   1.120   3.331   4.164 -0.8828  0.3071  0.5885
   23CHL1  H27C 2882   1.006   3.428   4.256 -0.5677  0.5329  1.6213
   24CHL1    C3 2883   2.763   2.460   5.539 -0.3582  0.3111 -0.2277
   24CHL1    H3 2884   2.668   2.515   5.525 -1.2950 -1.3972 -0.8658
   24CHL1    O3 2885   2.787   2.445   5.679  0.0212 -0.0535 -0.1531
   24CHL1   H3' 2886   2.872   2.402   5.689 -0.4688 -0.7860  1.0257
   24CHL1    C4 2887   2.760   2.324   5.471  0.0396 -0.1546  0.9546
   24CHL1   H4A 2888   2.851   2.263   5.488  0.3740  0.0116 -0.1334
   24CHL1   H4B 2889   2.678   2.265   5.519 -0.3897 -0.5994 -0.2892
   24CHL1    C5 2890   2.749   2.337   5.317  0.6824  0.2572  0.6517
   24CHL1    C6 2891   2.638   2.287   5.261 -0.5560  0.4583  0.5052
   24CHL1    H6 2892   2.565   2.231   5.322 -0.1823 -1.9011 -1.0414
   24CHL1    C7 2893   2.615   2.299   5.116 -0.2885 -1.0595  0.0062
   24CHL1   H7A 2894   2.588   2.204   5.066  0.9082 -1.4820  0.1419
   24CHL1   H7B 2895   2.526   2.363   5.098 -0.0971 -0.6427  0.5009
   24CHL1    C8 2896   2.732   2.350   5.034 -0.1721  0.2473 -0.2152
   24CHL1    H8 2897   2.793   2.258   5.018  0.2130  0.7113 -1.6397
   24CHL1   C14 2898   2.685   2.402   4.897  0.3633  0.2277 -0.0207
   24CHL1   H14 2899   2.632   2.497   4.919  1.3384  1.5376 -2.7892
   24CHL1   C15 2900   2.584   2.321   4.819  0.1849 -0.4890  0.3148
   24CHL1  H15A 2901   2.602   2.212   4.832  1.0906 -0.1615  2.1663
   24CHL1  H15B 2902   2.481   2.326   4.862  0.4566  0.9247  0.8858
   24CHL1   C16 2903   2.600   2.365   4.678  1.1716  0.7390 -0.1468
   24CHL1  H16A 2904   2.628   2.271   4.625 -0.8116 -1.0646  1.7547
   24CHL1  H16B 2905   2.502   2.399   4.640  0.6946  0.0223  0.3987
   24CHL1   C17 2906   2.710   2.469   4.677 -0.1761 -0.2680  0.2387
   24CHL1   H17 2907   2.659   2.564   4.703 -0.2314  0.1733 -1.4081
   24CHL1   C13 2908   2.802   2.443   4.797 -0.4936 -0.3077 -0.5093
   24CHL1   C18 2909   2.888   2.323   4.766 -0.0173 -0.1521  0.2277
   24CHL1  H18A 2910   2.941   2.277   4.852  1.0836  2.0803  0.8074
   24CHL1  H18B 2911   2.830   2.239   4.720 -0.9988  0.0151  1.1143
   24CHL1  H18C 2912   2.963   2.346   4.687 -2.8823  0.1990 -2.5978
   24CHL1   C12 2913   2.875   2.555   4.867 -0.0045 -0.1704  0.1876
   24CHL1  H12A 2914   2.974   2.573   4.819  0.6541  1.1354  1.9319
   24CHL1  H12B 2915   2.820   2.651   4.860 -1.0522 -0.3042  4.0900
   24CHL1   C11 2916   2.925   2.528   5.013  0.5150 -0.2601 -0.1042
   24CHL1  H11A 2917   2.998   2.445   5.006  0.5542 -0.1791 -0.7433
   24CHL1  H11B 2918   2.953   2.626   5.059 -2.6663  0.3848  0.7010
   24CHL1    C9 2919   2.809   2.464   5.103 -0.1675 -0.4873  0.1787
   24CHL1    H9 2920   2.732   2.544   5.107 -0.1520 -0.2043 -2.9492
   24CHL1   C10 2921   2.849   2.428   5.255 -0.7430 -0.1919  0.8102
   24CHL1   C19 2922   2.990   2.355   5.260  0.0442  0.4696  0.3648
   24CHL1  H19A 2923   3.005   2.303   5.357 -1.0718 -4.0116 -1.6116
   24CHL1  H19B 2924   2.982   2.281   5.178 -0.9219  0.9856 -0.0247
   24CHL1  H19C 2925   3.079   2.420   5.246  0.0597  0.2220 -0.7556
   24CHL1    C1 2926   2.858   2.565   5.328 -0.1331 -0.0115 -0.7073
   24CHL1   H1A 2927   2.939   2.633   5.296  0.4806  0.1846  1.1178
   24CHL1   H1B 2928   2.763   2.620   5.308 -1.3645 -1.4785  0.7809
   24CHL1    C2 2929   2.872   2.542   5.482  0.2461 -0.4234 -0.3188
   24CHL1   H2A 2930   2.875   2.637   5.540 -1.4681 -0.1274 -0.6526
   24CHL1   H2B 2931   2.973   2.503   5.503  0.1786 -0.5173 -0.1661
   24CHL1   C20 2932   2.765   2.499   4.534 -0.3499 -0.1793 -0.6559
   24CHL1   H20 2933   2.816   2.405   4.505 -0.8439 -0.3252 -1.0820
   24CHL1   C21 2934   2.874   2.606   4.543 -0.5584  0.6901 -0.3198
   24CHL1  H21A 2935   2.829   2.700   4.580 -0.9495  1.3422 -2.3150
   24CHL1  H21B 2936   2.919   2.620   4.442  0.5295 -0.7276 -0.0702
   24CHL1  H21C 2937   2.962   2.573   4.603  0.5718  3.0268 -0.5806
   24CHL1   C22 2938   2.650   2.550   4.435 -0.6793 -0.1716 -0.2316
   24CHL1  H22A 2939   2.554   2.499   4.457  1.1014 -2.5255  2.8647
   24CHL1  H22B 2940   2.629   2.659   4.445 -1.2844 -0.1000 -1.9139
   24CHL1   C23 2941   2.681   2.508   4.295 -0.3969 -0.0385  0.6602
   24CHL1  H23A 2942   2.594   2.545   4.236 -0.2590 -0.3662  0.2502
   24CHL1  H23B 2943   2.777   2.555   4.267  0.5162 -1.3791  1.4170
   24CHL1   C24 2944   2.708   2.358   4.269 -0.1816  0.2745  0.5095
   24CHL1  H24A 2945   2.812   2.340   4.302  0.6126  3.3482  0.0510
   24CHL1  H24B 2946   2.636   2.302   4.332  0.1812  0.7633  1.3747
   24CHL1   C25 2947   2.684   2.315   4.125  0.5513 -0.5799  0.0395
   24CHL1   H25 2948   2.579   2.338   4.099  0.7675 -1.2579 -1.6101
   24CHL1   C26 2949   2.784   2.380   4.029 -0.3886  0.0979  0.3067
   24CHL1  H26A 2950   2.887   2.347   4.054 -0.5295 -0.3956  0.2546
   24CHL1  H26B 2951   2.765   2.344   3.926 -0.6635 -0.9780  0.7174
   24CHL1  H26C 2952   2.784   2.491   4.030 -0.0949  0.1382  2.7568
   24CHL1   C27 2953   2.693   2.160   4.104  0.0338  0.2693  0.1362
   24CHL1  H27A 2954   2.637   2.101   4.179  0.7553 -0.1575  0.3440
   24CHL1  H27B 2955   2.630   2.129   4.018  0.2614 -3.5941  1.1954
   24CHL1  H27C 2956   2.797   2.123   4.093  0.3361  0.7805  1.1162
   25CHL1    C3 2957   4.761   5.116   5.658  0.5230  0.8606  0.2816
   25CHL1    H3 2958   4.845   5.050   5.626 -0.1242  0.8222 -1.4608
   25CHL1    O3 2959   4.766   5.163   5.784  0.1060 -0.3741  0.0580
   25CHL1   H3' 2960   4.764   5.085   5.840  1.4191 -0.6083 -0.1842
   25CHL1    C4 2961   4.759   5.243   5.568 -0.8397 -0.4814  0.6693
   25CHL1   H4A 2962   4.670   5.309   5.580 -1.5892 -1.4596  0.6184
   25CHL1   H4B 2963   4.855   5.293   5.593 -0.2421 -0.5298 -1.3552
   25CHL1    C5 2964   4.756   5.204   5.414  0.4492  0.5353 -0.3405
   25CHL1    C6 2965   4.850   5.244   5.333  0.6971 -0.8158 -0.3296
   25CHL1    H6 2966   4.928   5.307   5.378 -0.6168 -0.3078  1.3167
   25CHL1    C7 2967   4.860   5.215   5.184  0.1768 -0.4165  0.0098
   25CHL1   H7A 2968   4.868   5.311   5.129 -2.0223 -0.0809  0.1680
   25CHL1   H7B 2969   4.932   5.135   5.156  0.1580 -0.2741 -0.4592
   25CHL1    C8 2970   4.718   5.159   5.136 -0.4312  0.0503 -0.2640
   25CHL1    H8 2971   4.649   5.245   5.124  1.9159  1.8504 -1.6682
   25CHL1   C14 2972   4.740   5.087   5.000 -0.3639 -0.8344 -0.5648
   25CHL1   H14 2973   4.811   5.003   5.017 -0.8360 -1.1622 -0.1961
   25CHL1   C15 2974   4.802   5.157   4.883  0.2946 -0.0086 -0.0434
   25CHL1  H15A 2975   4.749   5.255   4.870  0.2089  0.1724  1.5135
   25CHL1  H15B 2976   4.909   5.174   4.904 -0.2927  2.2113  1.5605
   25CHL1   C16 2977   4.755   5.076   4.756  0.0076 -0.4112 -0.5785
   25CHL1  H16A 2978   4.697   5.155   4.704  1.7439  2.4287  1.5214
   25CHL1  H16B 2979   4.847   5.044   4.702 -0.0325  1.4793 -1.8459
   25CHL1   C17 2980   4.672   4.956   4.813 -0.1502  0.3377  0.8064
   25CHL1   H17 2981   4.745   4.874   4.830 -1.0396 -0.6198  0.0902
   25CHL1   C13 2982   4.618   5.009   4.945  0.4119 -0.0085  0.1316
   25CHL1   C18 2983   4.490   5.101   4.928  0.3739  0.7207 -0.1600
   25CHL1  H18A 2984   4.479   5.160   5.022 -1.5670  2.4310 -1.3744
   25CHL1  H18B 2985   4.505   5.176   4.847  0.0171  1.1973  0.2073
   25CHL1  H18C 2986   4.397   5.041   4.926  1.6740 -1.3719 -0.7895
   25CHL1   C12 2987   4.582   4.908   5.047 -0.8853  0.2081  0.4817
   25CHL1  H12A 2988   4.484   4.862   5.023 -0.0583 -0.4911 -1.8088
   25CHL1  H12B 2989   4.657   4.827   5.036 -3.0989 -2.0989  1.3725
   25CHL1   C11 2990   4.562   4.966   5.186 -0.2758 -0.2202 -0.0080
   25CHL1  H11A 2991   4.466   5.022   5.190  0.5731  1.3160 -0.5843
   25CHL1  H11B 2992   4.551   4.882   5.258  2.2326  0.6598  1.5385
   25CHL1    C9 2993   4.674   5.055   5.239 -0.1835 -0.6041 -0.2392
   25CHL1    H9 2994   4.764   4.993   5.257 -0.7298 -1.0881  0.9493
   25CHL1   C10 2995   4.640   5.113   5.374 -0.8660 -0.7916 -0.1657
   25CHL1   C19 2996   4.512   5.196   5.382 -0.0772 -0.2519 -0.5000
   25CHL1  H19A 2997   4.512   5.276   5.304 -0.3097 -1.2994 -1.6060
   25CHL1  H19B 2998   4.420   5.136   5.365 -1.3851  0.9300  1.9013
   25CHL1  H19C 2999   4.514   5.240   5.484  2.4196  0.6302 -0.8558
   25CHL1    C1 3000   4.629   5.000   5.484  0.2241  0.1290 -0.7300
   25CHL1   H1A 3001   4.536   4.946   5.457 -1.5963  2.9524 -0.5899
   25CHL1   H1B 3002   4.709   4.927   5.462 -0.0708 -0.6507  0.6739
   25CHL1    C2 3003   4.631   5.039   5.627 -0.1380 -0.2680 -0.8568
   25CHL1   H2A 3004   4.635   4.945   5.686 -0.1778  0.6296  0.6175
   25CHL1   H2B 3005   4.552   5.111   5.655 -0.3304 -0.1637 -1.6512
   25CHL1   C20 3006   4.570   4.919   4.704 -0.1247  0.0050 -0.4833
   25CHL1   H20 3007   4.510   5.012   4.699  0.2365  0.3549  1.3270
   25CHL1   C21 3008   4.494   4.796   4.753 -0.0760 -0.3454  0.4652
   25CHL1  H21A 3009   4.419   4.831   4.828 -0.4501 -2.3926  1.1022
   25CHL1  H21B 3010   4.563   4.728   4.807 -0.0164 -0.7726 -0.1380
   25CHL1  H21C 3011   4.442   4.754   4.664 -1.1669  0.1695  0.8388
   25CHL1   C22 3012   4.628   4.894   4.558 -0.2467 -0.1770  0.8433
   25CHL1  H22A 3013   4.540   4.869   4.495 -1.1899  0.3955  1.8863
   25CHL1  H22B 3014   4.676   4.988   4.522 -0.2837 -0.5417 -0.1815
   25CHL1   C23 3015   4.732   4.787   4.553  0.1209  0.5020  0.4633
   25CHL1  H23A 3016   4.819   4.810   4.619 -0.5246  1.4940  1.0017
   25CHL1  H23B 3017   4.685   4.690   4.582  0.8080  0.5129  1.7056
   25CHL1   C24 3018   4.772   4.758   4.413  0.4378  0.5450  0.2449
   25CHL1  H24A 3019   4.680   4.739   4.353 -0.2656 -0.5343  1.6082
   25CHL1  H24B 3020   4.820   4.850   4.375  0.2001  0.5563 -0.0323
   25CHL1   C25 3021   4.869   4.636   4.393 -0.1339  0.1584  0.0201
   25CHL1   H25 3022   4.804   4.549   4.416 -0.1624 -0.2773 -1.5461
   25CHL1   C26 3023   4.903   4.638   4.244 -0.0536 -0.7310 -0.0371
   25CHL1  H26A 3024   4.986   4.709   4.224 -0.5538  0.0352  0.5739
   25CHL1  H26B 3025   4.932   4.534   4.216 -1.2338 -1.4566  1.3333
   25CHL1  H26C 3026   4.819   4.670   4.178  3.0645  0.4522 -3.8699
   25CHL1   C27 3027   4.993   4.643   4.482  0.0180  0.2206  0.0434
   25CHL1  H27A 3028   4.957   4.636   4.587  0.9755 -2.2728  0.2803
   25CHL1  H27B 3029   5.060   4.558   4.459  0.2965  0.4729 -0.0820
   25CHL1  H27C 3030   5.041   4.742   4.464  3.0337 -1.4956 -2.1846
   26CHL1    C3 3031   5.780   1.355   5.642 -0.7111 -0.9439  0.5065
   26CHL1    H3 3032   5.749   1.250   5.626 -0.6458 -0.6125 -2.3936
   26CHL1    O3 3033   5.801   1.416   5.772 -0.6046 -0.4581 -0.2996
   26CHL1   H3' 3034   5.715   1.435   5.810  0.0913  1.1219  0.5704
   26CHL1    C4 3035   5.915   1.387   5.571  0.1567 -0.2362  0.2305
   26CHL1   H4A 3036   5.929   1.496   5.590 -2.7205  0.1665  0.4939
   26CHL1   H4B 3037   6.008   1.335   5.603  0.5806 -1.4983 -2.6905
   26CHL1    C5 3038   5.900   1.356   5.424  0.1194  0.1993 -0.0039
   26CHL1    C6 3039   5.993   1.275   5.376  1.3507 -0.5067  0.4852
   26CHL1    H6 3040   6.065   1.234   5.449  1.0991  1.0347  1.6622
   26CHL1    C7 3041   6.012   1.241   5.238 -0.4898  0.4939  0.1056
   26CHL1   H7A 3042   6.119   1.264   5.215 -0.7689  2.2091  0.4330
   26CHL1   H7B 3043   5.991   1.132   5.232  1.3806  0.1634 -2.5688
   26CHL1    C8 3044   5.913   1.315   5.138  0.0107 -0.2044 -0.2918
   26CHL1    H8 3045   5.952   1.419   5.138 -1.5135  0.3868  0.2449
   26CHL1   C14 3046   5.909   1.255   5.000 -0.8859 -0.2424  0.4797
   26CHL1   H14 3047   5.883   1.149   5.022  2.5225 -1.0417  1.3442
   26CHL1   C15 3048   6.042   1.250   4.924  0.4077 -0.6670 -0.4000
   26CHL1  H15A 3049   6.106   1.340   4.933  1.2016 -1.2365 -0.2484
   26CHL1  H15B 3050   6.106   1.165   4.956 -0.4236 -1.3296 -0.4365
   26CHL1   C16 3051   5.997   1.223   4.778  0.0400 -0.5743  0.0121
   26CHL1  H16A 3052   6.037   1.312   4.724 -1.3690 -0.9379 -1.7353
   26CHL1  H16B 3053   6.053   1.136   4.738 -1.5959 -1.2084 -0.9917
   26CHL1   C17 3054   5.844   1.232   4.774 -0.6230  0.0587  0.5448
   26CHL1   H17 3055   5.810   1.128   4.792  0.1872 -0.1236  1.0641
   26CHL1   C13 3056   5.811   1.310   4.904  0.3919  0.4089 -0.3053
   26CHL1   C18 3057   5.835   1.459   4.873  0.8374  0.2167 -0.1951
   26CHL1  H18A 3058   5.857   1.517   4.965  1.5814  2.6964 -1.8455
   26CHL1  H18B 3059   5.922   1.477   4.806  0.6801  1.6182 -0.0433
   26CHL1  H18C 3060   5.738   1.496   4.834  0.3389 -0.3331  0.4989
   26CHL1   C12 3061   5.674   1.283   4.975 -0.4743  0.0570 -1.2733
   26CHL1  H12A 3062   5.593   1.311   4.905  1.3612  1.1051 -3.0757
   26CHL1  H12B 3063   5.660   1.176   5.001 -3.3507  0.5043 -0.6675
   26CHL1   C11 3064   5.664   1.359   5.104  0.4698 -0.7111 -0.4078
   26CHL1  H11A 3065   5.659   1.468   5.086  1.7593 -0.2354  1.7856
   26CHL1  H11B 3066   5.571   1.330   5.158 -0.5816  1.5796 -0.8895
   26CHL1    C9 3067   5.776   1.322   5.208  0.0787 -0.2192  0.3286
   26CHL1    H9 3068   5.756   1.218   5.241  1.7711 -0.8810 -0.6098
   26CHL1   C10 3069   5.782   1.402   5.341 -0.4604 -0.2745 -0.0513
   26CHL1   C19 3070   5.806   1.553   5.314 -0.0792 -0.0230  0.6466
   26CHL1  H19A 3071   5.888   1.576   5.243 -1.1242 -0.0483 -0.6057
   26CHL1  H19B 3072   5.719   1.606   5.271  1.3600  2.2505  0.3622
   26CHL1  H19C 3073   5.818   1.612   5.407 -2.2281 -1.8362  2.1902
   26CHL1    C1 3074   5.651   1.388   5.427 -0.2696  0.3285  0.1707
   26CHL1   H1A 3075   5.560   1.440   5.391 -2.0253 -2.3473  0.3958
   26CHL1   H1B 3076   5.621   1.281   5.419  0.3341  0.2445 -1.5116
   26CHL1    C2 3077   5.666   1.435   5.576 -0.1181 -0.5400  0.2028
   26CHL1   H2A 3078   5.570   1.409   5.626  0.0966  0.6877  1.3007
   26CHL1   H2B 3079   5.694   1.542   5.580  1.0757 -0.8091 -0.3480
   26CHL1   C20 3080   5.792   1.282   4.638  0.5418 -0.3425  0.0526
   26CHL1   H20 3081   5.817   1.389   4.619 -0.9290 -0.3974 -2.6734
   26CHL1   C21 3082   5.647   1.253   4.634  0.1933  1.0207 -0.3547
   26CHL1  H21A 3083   5.624   1.147   4.660 -0.1099  0.3632 -3.0687
   26CHL1  H21B 3084   5.594   1.272   4.539 -0.2864 -0.0287 -0.3165
   26CHL1  H21C 3085   5.581   1.312   4.701 -0.9481 -0.4055 -0.1620
   26CHL1   C22 3086   5.844   1.209   4.512 -0.3094  0.1987  0.6162
   26CHL1  H22A 3087   5.950   1.186   4.534 -0.7320 -2.3366  0.2665
   26CHL1  H22B 3088   5.788   1.115   4.494  1.3751 -0.9406  1.1295
   26CHL1   C23 3089   5.846   1.293   4.380 -0.4335 -0.0280 -0.0461
   26CHL1  H23A 3090   5.754   1.351   4.356 -0.2393 -0.8240 -3.0534
   26CHL1  H23B 3091   5.927   1.368   4.394  2.0229 -2.4616 -0.3376
   26CHL1   C24 3092   5.898   1.207   4.265  0.0176  0.0106  0.0644
   26CHL1  H24A 3093   5.990   1.153   4.296  0.6142  0.7454 -0.4026
   26CHL1  H24B 3094   5.817   1.135   4.241 -0.5878  1.7674 -3.9936
   26CHL1   C25 3095   5.948   1.273   4.139  0.7048  0.8210 -0.4419
   26CHL1   H25 3096   5.986   1.193   4.073 -0.4214  1.4240 -1.8898
   26CHL1   C26 3097   5.841   1.355   4.066 -0.1305 -0.5861  0.2417
   26CHL1  H26A 3098   5.765   1.279   4.037  0.1158 -0.1582 -1.6428
   26CHL1  H26B 3099   5.795   1.440   4.121  1.8932  0.5479  0.2848
   26CHL1  H26C 3100   5.883   1.396   3.971 -0.1820 -2.0298 -0.4239
   26CHL1   C27 3101   6.070   1.366   4.164  0.0979  0.3771  0.3136
   26CHL1  H27A 3102   6.124   1.398   4.072  0.5945 -0.2555  0.3774
   26CHL1  H27B 3103   6.030   1.462   4.203 -1.6264  0.6531 -1.9011
   26CHL1  H27C 3104   6.146   1.325   4.235  3.2038  0.4940 -2.6741
   27CHL1    C3 3105   1.543   1.237   5.862 -0.4607 -0.4043 -0.0340
   27CHL1    H3 3106   1.632   1.172   5.858 -0.3520 -0.6129  3.2179
   27CHL1    O3 3107   1.513   1.262   5.998 -0.2497 -0.0559  0.2319
   27CHL1   H3' 3108   1.477   1.179   6.031 -1.7774  1.1008  1.6181
   27CHL1    C4 3109   1.587   1.368   5.785 -0.0580  0.6525  0.2388
   27CHL1   H4A 3110   1.500   1.438   5.789  0.7153  1.8510 -2.1219
   27CHL1   H4B 3111   1.665   1.420   5.845 -1.3269  2.2592  0.5859
   27CHL1    C5 3112   1.617   1.341   5.642  0.3755 -0.1798 -0.6634
   27CHL1    C6 3113   1.734   1.370   5.592  0.5123 -0.6234 -0.0587
   27CHL1    H6 3114   1.811   1.404   5.664 -0.1405 -1.0669  0.8734
   27CHL1    C7 3115   1.770   1.353   5.447  0.1926 -0.3389 -0.0905
   27CHL1   H7A 3116   1.822   1.445   5.412  0.7948  0.1883  2.0242
   27CHL1   H7B 3117   1.845   1.275   5.423  2.7095  2.1617 -0.9368
   27CHL1    C8 3118   1.645   1.329   5.352  0.0356 -0.6747  0.9312
   27CHL1    H8 3119   1.589   1.423   5.332  2.2686  0.3220 -1.1199
   27CHL1   C14 3120   1.683   1.260   5.220  0.2485 -0.0258  0.0491
   27CHL1   H14 3121   1.735   1.164   5.241  1.0854  0.4457  0.1659
   27CHL1   C15 3122   1.782   1.335   5.134 -0.0179 -0.1371  0.9342
   27CHL1  H15A 3123   1.762   1.444   5.147  1.9244  0.3201  0.4830
   27CHL1  H15B 3124   1.887   1.311   5.162  0.5053 -0.0108 -0.8002
   27CHL1   C16 3125   1.766   1.272   4.992 -0.4933  0.2884 -0.5764
   27CHL1  H16A 3126   1.746   1.342   4.908 -0.5836  1.7249  0.5941
   27CHL1  H16B 3127   1.856   1.211   4.969 -0.0988 -0.6271  2.8172
   27CHL1   C17 3128   1.642   1.177   5.010  0.2838 -0.1302  1.1776
   27CHL1   H17 3129   1.680   1.081   5.050  1.3642  0.3264  1.2754
   27CHL1   C13 3130   1.562   1.226   5.129  0.2107 -0.0201  0.2698
   27CHL1   C18 3131   1.486   1.346   5.084  0.4692 -0.0863 -0.2581
   27CHL1  H18A 3132   1.430   1.400   5.163 -1.2978 -2.9576  0.6029
   27CHL1  H18B 3133   1.556   1.421   5.041  0.1685 -0.6720 -1.8418
   27CHL1  H18C 3134   1.414   1.325   5.002 -0.6006  0.2360  0.5758
   27CHL1   C12 3135   1.480   1.119   5.192  0.4015 -0.4324 -1.0767
   27CHL1  H12A 3136   1.385   1.109   5.136  0.2685 -0.2544 -0.8818
   27CHL1  H12B 3137   1.535   1.024   5.213 -1.2037 -1.6611 -2.1042
   27CHL1   C11 3138   1.437   1.167   5.330 -0.0008 -0.7308  0.0854
   27CHL1  H11A 3139   1.356   1.242   5.318 -0.2723 -0.7116  1.7230
   27CHL1  H11B 3140   1.388   1.089   5.392 -0.8183 -0.8382 -0.6615
   27CHL1    C9 3141   1.551   1.231   5.423  0.4905  0.4760  0.5585
   27CHL1    H9 3142   1.615   1.144   5.449 -1.1808 -0.9270  0.1931
   27CHL1   C10 3143   1.503   1.281   5.556  0.5706 -0.6401 -0.2323
   27CHL1   C19 3144   1.393   1.389   5.535 -0.2605 -0.7929 -0.0072
   27CHL1  H19A 3145   1.321   1.365   5.455  0.2790 -1.5743 -0.2662
   27CHL1  H19B 3146   1.338   1.386   5.632  0.3677 -1.7104  0.3432
   27CHL1  H19C 3147   1.439   1.490   5.526 -0.9450 -0.5079 -0.3425
   27CHL1    C1 3148   1.449   1.165   5.640  0.3729 -0.1746 -0.4026
   27CHL1   H1A 3149   1.347   1.151   5.600 -1.1628  2.3838  2.2240
   27CHL1   H1B 3150   1.500   1.067   5.627  3.1787  0.3945  4.1633
   27CHL1    C2 3151   1.420   1.186   5.789  0.4979 -0.1446  0.5150
   27CHL1   H2A 3152   1.395   1.085   5.827 -2.3459  0.1046 -0.5025
   27CHL1   H2B 3153   1.332   1.252   5.804  0.4177  0.2875 -1.6150
   27CHL1   C20 3154   1.577   1.140   4.879 -0.5138 -0.2777 -0.3813
   27CHL1   H20 3155   1.478   1.092   4.894 -3.0403  4.2638 -0.7786
   27CHL1   C21 3156   1.666   1.040   4.804  0.8065  0.5927 -0.4638
   27CHL1  H21A 3157   1.694   0.948   4.859 -1.1272 -1.2511 -2.3736
   27CHL1  H21B 3158   1.752   1.089   4.753 -0.5012  2.3777 -1.0740
   27CHL1  H21C 3159   1.602   1.001   4.722 -1.7336  1.5452  0.9710
   27CHL1   C22 3160   1.558   1.259   4.775  0.1282 -0.0306  0.4324
   27CHL1  H22A 3161   1.541   1.359   4.819  2.0522  0.6186 -0.2060
   27CHL1  H22B 3162   1.648   1.279   4.712 -0.2041 -0.6509 -0.2554
   27CHL1   C23 3163   1.440   1.240   4.682  0.5167  0.0047 -0.5272
   27CHL1  H23A 3164   1.453   1.137   4.642 -0.6857 -0.1698 -0.5086
   27CHL1  H23B 3165   1.348   1.241   4.745  1.2811  1.1688  0.6222
   27CHL1   C24 3166   1.426   1.343   4.574 -0.4228  0.3054 -0.0536
   27CHL1  H24A 3167   1.387   1.434   4.624  1.9083  1.9381 -1.0405
   27CHL1  H24B 3168   1.528   1.364   4.536 -0.8948  1.0664 -0.9309
   27CHL1   C25 3169   1.348   1.299   4.448  0.4955 -0.2456  0.3514
   27CHL1   H25 3170   1.369   1.191   4.430 -1.4369 -0.6266  0.1600
   27CHL1   C26 3171   1.190   1.311   4.457 -0.2879 -0.9217 -0.3949
   27CHL1  H26A 3172   1.163   1.412   4.494  1.8322 -1.0362  1.6627
   27CHL1  H26B 3173   1.133   1.288   4.364 -1.0138 -2.1388  0.3162
   27CHL1  H26C 3174   1.164   1.249   4.546 -1.9750  1.0732  0.5845
   27CHL1   C27 3175   1.385   1.375   4.316 -0.1966 -0.6807  0.8097
   27CHL1  H27A 3176   1.334   1.321   4.233  0.8796 -0.3426 -0.0907
   27CHL1  H27B 3177   1.493   1.358   4.300  0.0273  0.5013  1.0060
   27CHL1  H27C 3178   1.358   1.482   4.308 -0.1458 -0.6439  1.1332
   28CHL1    C3 3179   0.235   0.256   5.596  0.8063 -0.0860  0.6512
   28CHL1    H3 3180   0.306   0.174   5.573  2.0359  0.7760  1.2665
   28CHL1    O3 3181   0.232   0.266   5.734 -0.5289 -0.1495  0.7911
   28CHL1   H3' 3182   0.159   0.328   5.740 -0.6057 -0.2976  1.5498
   28CHL1    C4 3183   0.283   0.390   5.542 -0.1437  0.2219  0.2004
   28CHL1   H4A 3184   0.230   0.483   5.571  1.5149  1.1932  0.2962
   28CHL1   H4B 3185   0.384   0.410   5.584 -1.1720  2.5257  1.7681
   28CHL1    C5 3186   0.279   0.385   5.392 -0.0184  0.6182  0.1233
   28CHL1    C6 3187   0.388   0.409   5.319  0.1853 -0.0569 -0.0442
   28CHL1    H6 3188   0.478   0.442   5.373 -1.7953 -0.4620  3.8979
   28CHL1    C7 3189   0.388   0.422   5.167  0.3609  0.4537  0.3042
   28CHL1   H7A 3190   0.465   0.497   5.137  1.2580 -0.5471  0.0389
   28CHL1   H7B 3191   0.442   0.329   5.139  1.7354  1.4849 -0.6445
   28CHL1    C8 3192   0.257   0.439   5.105  1.0963  0.4041  0.5166
   28CHL1    H8 3193   0.218   0.539   5.132 -0.6397  0.2430 -1.1622
   28CHL1   C14 3194   0.265   0.415   4.952 -0.1522 -0.7377 -0.3401
   28CHL1   H14 3195   0.297   0.310   4.937 -0.5960 -0.6539 -2.0043
   28CHL1   C15 3196   0.346   0.512   4.872  0.1164  0.2882 -0.1344
   28CHL1  H15A 3197   0.340   0.620   4.899 -3.7972 -0.1025  1.1418
   28CHL1  H15B 3198   0.450   0.476   4.888  0.5723  0.5530 -2.1932
   28CHL1   C16 3199   0.297   0.498   4.733  0.5528  0.6407  0.0667
   28CHL1  H16A 3200   0.284   0.596   4.682  2.1059  0.3715 -0.9435
   28CHL1  H16B 3201   0.365   0.443   4.663 -1.5064  1.7553 -3.0445
   28CHL1   C17 3202   0.162   0.415   4.735  0.2862 -0.2863 -0.3096
   28CHL1   H17 3203   0.190   0.308   4.726  1.0709  0.0232 -1.8227
   28CHL1   C13 3204   0.124   0.419   4.883  0.7913 -0.6428  0.0163
   28CHL1   C18 3205   0.053   0.558   4.913 -0.1186  0.0363 -0.0584
   28CHL1  H18A 3206   0.060   0.582   5.021 -2.5805  2.1097 -0.2468
   28CHL1  H18B 3207   0.099   0.638   4.850  1.8067  1.8227  3.3176
   28CHL1  H18C 3208  -0.056   0.541   4.902 -0.3360  1.1001  0.2671
   28CHL1   C12 3209   0.027   0.317   4.944 -0.2974 -0.0494  0.4641
   28CHL1  H12A 3210  -0.070   0.304   4.891 -0.2952 -0.2994  0.5180
   28CHL1  H12B 3211   0.078   0.220   4.928 -0.0793 -0.6393  3.8757
   28CHL1   C11 3212   0.013   0.332   5.094  0.0915 -0.4649  0.0004
   28CHL1  H11A 3213  -0.044   0.424   5.115 -2.2938 -1.6439 -0.9438
   28CHL1  H11B 3214  -0.041   0.245   5.138 -0.3309 -0.6673 -0.8992
   28CHL1    C9 3215   0.155   0.331   5.167 -0.3092 -0.0126 -0.5177
   28CHL1    H9 3216   0.190   0.228   5.141  2.9201  0.7094  0.6163
   28CHL1   C10 3217   0.142   0.352   5.328  0.0961  0.1917  0.3736
   28CHL1   C19 3218   0.030   0.455   5.356  0.7074  0.1761  0.2846
   28CHL1  H19A 3219   0.022   0.487   5.462 -2.4203 -0.9844  0.5069
   28CHL1  H19B 3220   0.046   0.549   5.300 -0.4245 -0.0507 -0.4605
   28CHL1  H19C 3221  -0.074   0.417   5.343 -0.4129  1.8262  3.3008
   28CHL1    C1 3222   0.104   0.213   5.382 -0.3399 -0.4257  0.2317
   28CHL1   H1A 3223   0.015   0.175   5.327  0.5070 -0.6859 -1.0166
   28CHL1   H1B 3224   0.184   0.144   5.346  0.6213  0.1755  1.1593
   28CHL1    C2 3225   0.097   0.220   5.535  0.0742 -0.0770 -0.4344
   28CHL1   H2A 3226   0.066   0.127   5.587  0.1578  0.1392  0.0010
   28CHL1   H2B 3227   0.029   0.305   5.556 -1.0946 -1.1258  0.2010
   28CHL1   C20 3228   0.060   0.463   4.626  0.1470  0.0691 -1.0849
   28CHL1   H20 3229   0.045   0.571   4.646  3.6906  0.5686 -0.4015
   28CHL1   C21 3230  -0.072   0.387   4.634  0.1503  0.1596  0.0221
   28CHL1  H21A 3231  -0.057   0.277   4.623 -2.3133 -0.2200 -0.0545
   28CHL1  H21B 3232  -0.141   0.419   4.554 -0.7671  1.4567  1.2746
   28CHL1  H21C 3233  -0.129   0.398   4.729 -0.1625  1.8422 -0.3306
   28CHL1   C22 3234   0.135   0.463   4.486  0.8503  0.3522  0.5263
   28CHL1  H22A 3235   0.212   0.540   4.469 -1.1395  1.8462 -2.7531
   28CHL1  H22B 3236   0.182   0.363   4.476  2.5307  0.8843  2.4885
   28CHL1   C23 3237   0.028   0.497   4.373  0.0015  0.1682  0.1224
   28CHL1  H23A 3238  -0.049   0.420   4.349  0.1368 -0.7266  2.3100
   28CHL1  H23B 3239  -0.030   0.579   4.420 -0.8651 -0.0887 -0.4761
   28CHL1   C24 3240   0.088   0.533   4.242  0.6768  0.0009  0.1343
   28CHL1  H24A 3241   0.163   0.613   4.259  0.3800  0.6462 -1.4132
   28CHL1  H24B 3242   0.140   0.440   4.212  0.1835 -0.8556  1.7814
   28CHL1   C25 3243  -0.013   0.572   4.130 -0.3650  0.3356 -0.0223
   28CHL1   H25 3244  -0.097   0.500   4.127  1.6184 -2.1252 -0.4232
   28CHL1   C26 3245  -0.052   0.719   4.147 -0.0891  0.5703  0.3239
   28CHL1  H26A 3246   0.044   0.774   4.137 -0.0156  0.3566 -0.1913
   28CHL1  H26B 3247  -0.113   0.755   4.061  0.2519  0.3968  0.0060
   28CHL1  H26C 3248  -0.095   0.750   4.245  0.8157  1.7522  0.3777
   28CHL1   C27 3249   0.062   0.563   3.991  0.2942  0.4146 -0.6666
   28CHL1  H27A 3250  -0.011   0.575   3.908 -2.5164 -0.3977  1.5240
   28CHL1  H27B 3251   0.134   0.647   3.978 -0.4790  0.7744 -2.9835
   28CHL1  H27C 3252   0.107   0.462   3.981 -0.7228 -0.2683  1.1767
   29CHL1    C3 3253   0.982   3.011   5.764 -0.2529 -0.5509 -0.4196
   29CHL1    H3 3254   0.882   3.029   5.721  1.5280  0.8561 -4.4466
   29CHL1    O3 3255   0.982   3.023   5.902 -0.4886 -0.0732 -0.4969
   29CHL1   H3' 3256   0.930   3.101   5.920 -0.3461  0.2133 -1.3113
   29CHL1    C4 3257   1.041   2.882   5.714  0.9226 -0.1172 -0.4829
   29CHL1   H4A 3258   1.136   2.864   5.768 -0.0487  0.4048  1.4947
   29CHL1   H4B 3259   0.972   2.801   5.746 -0.5254  1.6371  1.1239
   29CHL1    C5 3260   1.060   2.878   5.562 -0.1406  0.2066  1.0072
   29CHL1    C6 3261   1.007   2.777   5.488 -0.3013  0.3573  0.3060
   29CHL1    H6 3262   0.949   2.701   5.541  0.5385 -0.6760 -0.2126
   29CHL1    C7 3263   1.023   2.764   5.342 -0.1068  0.1971  0.6223
   29CHL1   H7A 3264   1.055   2.659   5.323  1.0077  0.7733 -0.8858
   29CHL1   H7B 3265   0.926   2.790   5.295  0.1362  1.6246  0.8924
   29CHL1    C8 3266   1.130   2.865   5.284  0.8140 -0.2256  0.3203
   29CHL1    H8 3267   1.227   2.822   5.317 -0.3796 -4.7791 -1.3217
   29CHL1   C14 3268   1.120   2.872   5.129  0.0545 -0.6249  0.0806
   29CHL1   H14 3269   1.020   2.905   5.095  0.0099  0.8446  1.5231
   29CHL1   C15 3270   1.124   2.735   5.056 -0.6690  0.2911  0.4475
   29CHL1  H15A 3271   1.200   2.663   5.094  0.5920 -0.0295 -2.3802
   29CHL1  H15B 3272   1.025   2.685   5.051  0.2739 -1.6133 -0.2833
   29CHL1   C16 3273   1.160   2.772   4.908 -0.4869 -0.0115  0.0616
   29CHL1  H16A 3274   1.255   2.717   4.891  0.5897  1.4564  1.0432
   29CHL1  H16B 3275   1.086   2.740   4.832 -0.5065  1.5982 -0.6337
   29CHL1   C17 3276   1.183   2.928   4.912 -0.2470 -0.1865 -0.1990
   29CHL1   H17 3277   1.090   2.980   4.882  0.7507 -0.0213 -3.3540
   29CHL1   C13 3278   1.212   2.964   5.059 -0.5064  0.2153 -0.2056
   29CHL1   C18 3279   1.358   2.929   5.084  0.0499  0.1449 -0.5206
   29CHL1  H18A 3280   1.388   2.942   5.190  0.1927  0.4081 -0.5914
   29CHL1  H18B 3281   1.382   2.821   5.071  1.9193  0.1344  2.2897
   29CHL1  H18C 3282   1.424   3.004   5.036 -0.1185  0.8135  0.2646
   29CHL1   C12 3283   1.170   3.104   5.111 -0.3076 -0.4416 -0.5927
   29CHL1  H12A 3284   1.234   3.185   5.071  1.8661  0.8672  4.6715
   29CHL1  H12B 3285   1.063   3.126   5.089 -0.2555  0.8659  0.3365
   29CHL1   C11 3286   1.192   3.111   5.270  0.0837 -0.4170  0.1770
   29CHL1  H11A 3287   1.301   3.106   5.294  0.1970 -1.9416 -0.5898
   29CHL1  H11B 3288   1.152   3.210   5.301  0.6113  0.1756 -0.9610
   29CHL1    C9 3289   1.110   3.001   5.339  0.0855 -0.1732 -0.6583
   29CHL1    H9 3290   1.001   3.019   5.321 -0.4584 -2.5006 -0.0724
   29CHL1   C10 3291   1.132   2.998   5.497  0.4897 -0.7516 -0.5124
   29CHL1   C19 3292   1.281   3.003   5.527  0.2272  0.7493  0.9643
   29CHL1  H19A 3293   1.339   2.930   5.466  1.7607  1.9946  0.8766
   29CHL1  H19B 3294   1.320   3.099   5.487  0.9726 -0.0467 -0.3220
   29CHL1  H19C 3295   1.300   2.990   5.635  0.6487 -1.7239  0.6611
   29CHL1    C1 3296   1.055   3.126   5.557 -0.6411  0.1875 -0.1919
   29CHL1   H1A 3297   1.107   3.216   5.516  1.1904 -1.1759 -1.0104
   29CHL1   H1B 3298   0.950   3.127   5.522 -0.8382 -0.0965  0.3825
   29CHL1    C2 3299   1.061   3.127   5.706 -0.0984  0.4437 -0.4497
   29CHL1   H2A 3300   1.018   3.224   5.739  0.5241  0.5823 -0.0460
   29CHL1   H2B 3301   1.166   3.117   5.738  1.1089  0.6748 -3.8668
   29CHL1   C20 3302   1.272   2.982   4.800 -0.0835 -0.4964 -0.4627
   29CHL1   H20 3303   1.376   2.958   4.829  0.3282 -0.0864 -1.5407
   29CHL1   C21 3304   1.276   3.142   4.796  0.1553  1.4837  0.7201
   29CHL1  H21A 3305   1.172   3.181   4.794 -0.8739 -1.1014 -0.5958
   29CHL1  H21B 3306   1.340   3.173   4.710 -0.6389 -1.7992 -1.2207
   29CHL1  H21C 3307   1.323   3.173   4.892  0.4887  0.6465  0.8417
   29CHL1   C22 3308   1.242   2.925   4.656 -0.1089  0.1238  0.0073
   29CHL1  H22A 3309   1.224   2.815   4.662  0.8919  0.0235  1.9020
   29CHL1  H22B 3310   1.147   2.970   4.621 -0.6725 -1.6651 -0.8944
   29CHL1   C23 3311   1.341   2.952   4.545  0.1812 -0.5837  0.2003
   29CHL1  H23A 3312   1.347   3.062   4.532 -0.6910 -0.5011  0.4224
   29CHL1  H23B 3313   1.440   2.923   4.584  0.3764  0.2047  0.3165
   29CHL1   C24 3314   1.301   2.888   4.412  0.2577  0.1369  0.3543
   29CHL1  H24A 3315   1.318   2.779   4.424  0.2440 -0.1027 -1.4943
   29CHL1  H24B 3316   1.193   2.903   4.394 -0.0289 -0.1025  1.7492
   29CHL1   C25 3317   1.381   2.917   4.287  1.4294 -0.7282  0.2448
   29CHL1   H25 3318   1.407   3.025   4.297 -0.8489 -0.1217  0.1883
   29CHL1   C26 3319   1.524   2.860   4.283 -0.2895 -0.0568  0.1624
   29CHL1  H26A 3320   1.568   2.861   4.385  1.9074 -0.2579 -0.7323
   29CHL1  H26B 3321   1.510   2.757   4.245 -1.0183  0.4824 -1.0924
   29CHL1  H26C 3322   1.585   2.924   4.216  1.7391  0.7599  2.6430
   29CHL1   C27 3323   1.311   2.891   4.156  0.2488  0.2108 -0.0976
   29CHL1  H27A 3324   1.363   2.931   4.067  2.5983 -0.9716  0.6482
   29CHL1  H27B 3325   1.287   2.784   4.135 -2.1945  1.0852 -2.3725
   29CHL1  H27C 3326   1.211   2.938   4.143 -0.1775 -1.0284 -1.5794
   30CHL1    C3 3327   3.705   3.318   5.605 -0.2985 -1.0680 -0.3369
   30CHL1    H3 3328   3.670   3.423   5.591  0.9917 -0.2769  1.9513
   30CHL1    O3 3329   3.658   3.277   5.735  0.2167 -0.1850 -0.3786
   30CHL1   H3' 3330   3.641   3.183   5.726  0.7726 -0.3253 -0.0280
   30CHL1    C4 3331   3.637   3.223   5.503  1.0292 -0.5309 -0.0868
   30CHL1   H4A 3332   3.647   3.117   5.535 -0.7319 -1.3214 -1.9316
   30CHL1   H4B 3333   3.530   3.244   5.523  0.9861 -0.4947 -0.3523
   30CHL1    C5 3334   3.672   3.230   5.358 -0.1162  0.4327 -0.4463
   30CHL1    C6 3335   3.592   3.262   5.258  0.0760 -0.4057  0.0285
   30CHL1    H6 3336   3.486   3.279   5.284  0.5442 -0.6737  2.2684
   30CHL1    C7 3337   3.634   3.282   5.111  0.2043 -0.7207 -0.5047
   30CHL1   H7A 3338   3.560   3.231   5.044  1.6538 -1.7531 -1.3767
   30CHL1   H7B 3339   3.629   3.390   5.089 -0.1173 -0.4717  0.7406
   30CHL1    C8 3340   3.772   3.213   5.097 -0.2296  0.4417  0.2051
   30CHL1    H8 3341   3.766   3.103   5.087  1.5608  0.4066 -0.9428
   30CHL1   C14 3342   3.822   3.265   4.962 -0.0362 -0.2923 -0.0263
   30CHL1   H14 3343   3.823   3.375   4.978  2.6647  0.0128 -1.6292
   30CHL1   C15 3344   3.731   3.237   4.840 -0.5254 -0.4064  0.4640
   30CHL1  H15A 3345   3.696   3.132   4.833 -1.8192 -0.0363  1.0545
   30CHL1  H15B 3346   3.648   3.311   4.846 -0.4752 -0.1482 -1.2789
   30CHL1   C16 3347   3.818   3.264   4.721 -0.2449  0.3836 -0.2427
   30CHL1  H16A 3348   3.841   3.174   4.660  0.9630  0.5229 -0.0193
   30CHL1  H16B 3349   3.788   3.341   4.647 -0.9096 -0.8390 -1.2748
   30CHL1   C17 3350   3.961   3.304   4.784  0.2289  0.9892 -0.3985
   30CHL1   H17 3351   3.960   3.413   4.808 -0.1557  1.4302 -2.2847
   30CHL1   C13 3352   3.965   3.235   4.926 -0.6496 -0.2179  0.0268
   30CHL1   C18 3353   3.973   3.083   4.909 -0.5960 -0.0964  0.1712
   30CHL1  H18A 3354   3.888   3.054   4.842 -0.1791 -0.7317 -0.0885
   30CHL1  H18B 3355   4.058   3.046   4.849 -1.8272  0.8299 -2.2983
   30CHL1  H18C 3356   3.981   3.028   5.005 -1.4168 -0.8921 -0.1998
   30CHL1   C12 3357   4.060   3.297   5.034 -0.3490 -0.4324  0.1139
   30CHL1  H12A 3358   4.169   3.286   5.017 -0.2773 -1.5842  1.2123
   30CHL1  H12B 3359   4.034   3.405   5.038 -0.0306 -0.3719  3.1229
   30CHL1   C11 3360   4.020   3.237   5.165 -0.3699 -0.0219  0.4338
   30CHL1  H11A 3361   4.041   3.128   5.173  2.7076  0.5820  1.7654
   30CHL1  H11B 3362   4.098   3.282   5.231  1.1538  0.7265 -1.7647
   30CHL1    C9 3363   3.866   3.261   5.203  0.2384  0.1275  0.4731
   30CHL1    H9 3364   3.870   3.372   5.208  4.2466  0.1225  0.7717
   30CHL1   C10 3365   3.827   3.217   5.342  0.5500  0.4701 -0.2699
   30CHL1   C19 3366   3.878   3.071   5.372  0.0571 -0.2541  0.1179
   30CHL1  H19A 3367   3.820   3.035   5.460 -0.3951 -1.4763 -0.6479
   30CHL1  H19B 3368   3.846   3.004   5.290  1.0699  0.6145 -1.0297
   30CHL1  H19C 3369   3.989   3.065   5.377  0.0557 -0.8245 -0.4820
   30CHL1    C1 3370   3.896   3.311   5.451 -0.0154  0.2481  0.0097
   30CHL1   H1A 3371   4.005   3.298   5.438 -0.1502  0.9541 -2.3138
   30CHL1   H1B 3372   3.890   3.420   5.432 -0.1068  0.1470 -0.5788
   30CHL1    C2 3373   3.853   3.302   5.594  0.7399  0.3531 -0.6715
   30CHL1   H2A 3374   3.917   3.360   5.664 -0.2467 -0.1375  0.6909
   30CHL1   H2B 3375   3.863   3.198   5.634 -1.7427 -0.2618 -1.4848
   30CHL1   C20 3376   4.078   3.289   4.695 -0.9819  0.3270  0.0281
   30CHL1   H20 3377   4.089   3.180   4.673  0.5393  0.7541 -1.5488
   30CHL1   C21 3378   4.209   3.338   4.760 -0.0972 -0.5250 -0.3252
   30CHL1  H21A 3379   4.251   3.264   4.831  0.4783  1.3673  1.3969
   30CHL1  H21B 3380   4.197   3.440   4.801  0.2376 -0.0218 -1.4308
   30CHL1  H21C 3381   4.292   3.359   4.689  1.8385 -2.2097  1.3226
   30CHL1   C22 3382   4.073   3.357   4.553 -0.1858 -0.4657  0.4011
   30CHL1  H22A 3383   4.169   3.328   4.504  0.2859  0.2382  0.8831
   30CHL1  H22B 3384   3.985   3.303   4.513  0.1722 -1.6845  1.1986
   30CHL1   C23 3385   4.054   3.506   4.547  0.6569  0.1147 -0.1559
   30CHL1  H23A 3386   3.984   3.534   4.629 -0.2434 -0.5351 -0.6837
   30CHL1  H23B 3387   4.143   3.566   4.572  0.3643  0.1456  0.8485
   30CHL1   C24 3388   3.998   3.545   4.414  0.0097 -1.0480 -0.0849
   30CHL1  H24A 3389   4.082   3.533   4.341 -0.4203 -0.7730 -0.6293
   30CHL1  H24B 3390   3.915   3.474   4.394 -1.7730  1.6878 -3.5828
   30CHL1   C25 3391   3.934   3.685   4.392 -0.2143  0.2519  1.0722
   30CHL1   H25 3392   3.948   3.726   4.290  0.1691  2.5563  1.9879
   30CHL1   C26 3393   3.784   3.694   4.419 -0.3846  0.1372  0.2731
   30CHL1  H26A 3394   3.727   3.600   4.403  1.0130 -1.3508  3.2847
   30CHL1  H26B 3395   3.782   3.723   4.526 -2.0861 -2.0102  0.8901
   30CHL1  H26C 3396   3.732   3.779   4.370 -1.5057 -0.8212 -0.2226
   30CHL1   C27 3397   4.010   3.787   4.473 -0.3214  0.4092  0.6814
   30CHL1  H27A 3398   3.967   3.887   4.451 -2.1192 -0.7325 -1.4557
   30CHL1  H27B 3399   3.995   3.761   4.580 -1.0744  0.1034  0.5083
   30CHL1  H27C 3400   4.118   3.792   4.447  0.1143 -2.3008  1.6255
   31CHL1    C3 3401   1.409   3.215   5.960 -0.1775 -1.1069 -0.4984
   31CHL1    H3 3402   1.332   3.148   5.916  0.4468 -0.9752 -1.8298
   31CHL1    O3 3403   1.400   3.221   6.102  0.4233 -0.1063  0.0538
   31CHL1   H3' 3404   1.307   3.220   6.126  0.4585  0.8913  0.2778
   31CHL1    C4 3405   1.540   3.152   5.921  0.1536  0.6372  0.2945
   31CHL1   H4A 3406   1.619   3.214   5.968  3.7597  0.2294 -4.4811
   31CHL1   H4B 3407   1.569   3.055   5.967  0.1562 -0.9556 -2.8530
   31CHL1    C5 3408   1.568   3.154   5.772  0.2884 -0.0581 -0.3754
   31CHL1    C6 3409   1.585   3.043   5.709  0.1069  0.8430  0.6095
   31CHL1    H6 3410   1.585   2.946   5.760 -0.1837  0.9052  0.7260
   31CHL1    C7 3411   1.634   3.038   5.570  0.6695  0.1519 -0.1036
   31CHL1   H7A 3412   1.735   2.992   5.570 -0.1893 -1.8761 -0.7303
   31CHL1   H7B 3413   1.563   2.981   5.506  0.0075 -0.4913  1.1771
   31CHL1    C8 3414   1.645   3.171   5.497  0.0110 -0.4661  0.0578
   31CHL1    H8 3415   1.751   3.200   5.511  0.1066 -2.0217  3.3764
   31CHL1   C14 3416   1.622   3.161   5.344 -0.0508  0.2759 -0.4769
   31CHL1   H14 3417   1.512   3.153   5.331  0.3053 -3.8542 -2.5800
   31CHL1   C15 3418   1.693   3.042   5.273 -0.0117  0.5772  0.1380
   31CHL1  H15A 3419   1.791   3.022   5.323 -1.2283 -1.0314  2.0320
   31CHL1  H15B 3420   1.634   2.949   5.289 -0.6325  1.1382  1.1806
   31CHL1   C16 3421   1.705   3.080   5.131 -0.1398 -0.3371  0.2477
   31CHL1  H16A 3422   1.812   3.085   5.103  0.4153 -0.5563  2.1531
   31CHL1  H16B 3423   1.652   3.022   5.053 -0.4767  1.3621 -0.8538
   31CHL1   C17 3424   1.650   3.230   5.125  0.3084  0.1233 -0.4152
   31CHL1   H17 3425   1.540   3.217   5.113  0.5757 -0.6876 -2.2246
   31CHL1   C13 3426   1.665   3.289   5.268  0.1151 -0.0705 -0.3925
   31CHL1   C18 3427   1.812   3.327   5.291  0.1307 -0.3408  0.0301
   31CHL1  H18A 3428   1.860   3.382   5.207  0.3353 -3.4172 -2.0745
   31CHL1  H18B 3429   1.829   3.372   5.391  1.7927  0.1135 -0.4219
   31CHL1  H18C 3430   1.869   3.232   5.301  0.3281 -0.0365  2.1698
   31CHL1   C12 3431   1.567   3.395   5.323  0.0849  0.1951 -0.2227
   31CHL1  H12A 3432   1.584   3.496   5.279  2.5975  0.2299  0.6878
   31CHL1  H12B 3433   1.467   3.362   5.288  0.1372 -0.5006  0.2649
   31CHL1   C11 3434   1.572   3.414   5.475 -0.4734  0.0667  0.6422
   31CHL1  H11A 3435   1.668   3.466   5.495  1.0508 -2.5078  0.4960
   31CHL1  H11B 3436   1.482   3.473   5.503 -1.6711 -0.9988 -0.7396
   31CHL1    C9 3437   1.554   3.283   5.553 -0.0536  0.5257  0.0668
   31CHL1    H9 3438   1.454   3.252   5.515 -0.3901 -0.1512  1.4487
   31CHL1   C10 3439   1.558   3.294   5.702 -0.2824  0.6791 -0.3969
   31CHL1   C19 3440   1.678   3.385   5.735 -0.0935 -0.5736 -0.3806
   31CHL1  H19A 3441   1.646   3.489   5.713  1.1315  0.2777  1.5955
   31CHL1  H19B 3442   1.715   3.358   5.836  0.1848 -0.2044 -0.3818
   31CHL1  H19C 3443   1.759   3.353   5.665  0.7307  1.4522 -0.4264
   31CHL1    C1 3444   1.419   3.352   5.748 -0.5000 -0.1973 -0.1025
   31CHL1   H1A 3445   1.400   3.453   5.705 -1.0355  0.9964  2.7073
   31CHL1   H1B 3446   1.332   3.289   5.719  1.2303 -1.3777 -3.1642
   31CHL1    C2 3447   1.403   3.359   5.904 -0.0623  0.2680 -0.1746
   31CHL1   H2A 3448   1.304   3.407   5.919 -0.8679 -1.4728  0.4034
   31CHL1   H2B 3449   1.488   3.417   5.946 -0.2127  0.2847  0.1041
   31CHL1   C20 3450   1.690   3.309   4.998  0.7243 -0.4639 -0.0253
   31CHL1   H20 3451   1.800   3.326   4.999  0.8220 -0.9891  1.6736
   31CHL1   C21 3452   1.630   3.447   4.994  0.0357  0.1844  0.2737
   31CHL1  H21A 3453   1.668   3.516   4.916 -0.4963  0.7950  0.5490
   31CHL1  H21B 3454   1.649   3.498   5.091  1.0803 -0.0871  0.2296
   31CHL1  H21C 3455   1.519   3.446   4.993 -0.0239  2.2943  0.5563
   31CHL1   C22 3456   1.652   3.231   4.867  0.3581 -0.5825 -0.1565
   31CHL1  H22A 3457   1.692   3.128   4.881  1.0304 -0.5219 -1.5630
   31CHL1  H22B 3458   1.542   3.224   4.848  0.1912  1.1957 -0.0181
   31CHL1   C23 3459   1.705   3.286   4.729 -0.0385 -0.1311 -0.2053
   31CHL1  H23A 3460   1.660   3.386   4.709 -2.0414 -0.6971  1.1568
   31CHL1  H23B 3461   1.813   3.301   4.750 -0.5957  2.4258  1.3179
   31CHL1   C24 3462   1.687   3.185   4.609 -0.1046  0.2809  0.1436
   31CHL1  H24A 3463   1.730   3.089   4.645  1.3325  0.4530 -1.0597
   31CHL1  H24B 3464   1.579   3.173   4.585  0.4031 -1.4647 -1.5066
   31CHL1   C25 3465   1.775   3.227   4.491  0.0393 -0.3083  0.1248
   31CHL1   H25 3466   1.881   3.244   4.522  0.0787 -1.4216  0.6665
   31CHL1   C26 3467   1.774   3.124   4.376 -0.7385  0.2510 -0.0307
   31CHL1  H26A 3468   1.825   3.154   4.282 -1.3292  0.7261 -0.2073
   31CHL1  H26B 3469   1.808   3.022   4.403 -1.2665 -1.3563 -4.6104
   31CHL1  H26C 3470   1.666   3.108   4.355 -0.2181 -1.0070 -2.0461
   31CHL1   C27 3471   1.724   3.364   4.439  0.7911 -0.2764  0.3322
   31CHL1  H27A 3472   1.624   3.360   4.389 -0.5893  1.6142  2.6929
   31CHL1  H27B 3473   1.721   3.449   4.511  0.4391  0.9859 -1.1070
   31CHL1  H27C 3474   1.803   3.400   4.370 -0.0156 -1.1828 -1.1250
   32CHL1    C3 3475   4.676   1.104   5.586 -0.9790 -0.0641  0.2848
   32CHL1    H3 3476   4.654   0.996   5.600  1.0789 -1.2205 -3.7437
   32CHL1    O3 3477   4.653   1.162   5.713  0.4365  0.9351 -0.1476
   32CHL1   H3' 3478   4.691   1.248   5.692 -0.9896  1.5036 -0.5182
   32CHL1    C4 3479   4.824   1.123   5.546  0.6415 -0.0653  0.8958
   32CHL1   H4A 3480   4.855   1.228   5.564  0.4442  0.2142 -0.3110
   32CHL1   H4B 3481   4.889   1.069   5.619 -1.1646 -1.6849  1.3797
   32CHL1    C5 3482   4.851   1.076   5.402  0.4165  0.5370 -0.0874
   32CHL1    C6 3483   4.952   0.995   5.368  0.2151 -0.9206 -0.1303
   32CHL1    H6 3484   5.023   0.980   5.451 -0.3151  1.6778  0.9104
   32CHL1    C7 3485   4.992   0.939   5.238  0.7068 -0.3905  0.6973
   32CHL1   H7A 3486   5.101   0.930   5.220  0.4234 -1.4022 -0.6722
   32CHL1   H7B 3487   4.950   0.836   5.246 -0.1540  0.0023  1.5145
   32CHL1    C8 3488   4.906   1.006   5.121 -0.2611 -1.0619  0.0082
   32CHL1    H8 3489   4.950   1.107   5.110 -1.2444 -0.7394 -1.1291
   32CHL1   C14 3490   4.917   0.930   4.996  0.0473  0.8386 -0.0073
   32CHL1   H14 3491   4.886   0.826   5.021  0.6720  0.8513  0.8841
   32CHL1   C15 3492   5.046   0.912   4.937 -0.1161 -0.4676 -0.4078
   32CHL1  H15A 3493   5.102   1.008   4.934 -0.0508 -0.0265  5.2739
   32CHL1  H15B 3494   5.115   0.846   4.992  0.6469  1.4371  1.0361
   32CHL1   C16 3495   5.025   0.869   4.793 -0.3401  0.0474 -0.2681
   32CHL1  H16A 3496   5.095   0.925   4.729 -0.8387 -1.0149 -1.7854
   32CHL1  H16B 3497   5.053   0.765   4.766  0.2478  0.0440  0.3360
   32CHL1   C17 3498   4.878   0.893   4.762  0.2752  0.3455  0.9245
   32CHL1   H17 3499   4.825   0.796   4.777 -1.0277  0.9859  0.6609
   32CHL1   C13 3500   4.836   0.988   4.881  0.7569  0.6572  0.4242
   32CHL1   C18 3501   4.877   1.133   4.836  0.2578  0.0459 -0.2823
   32CHL1  H18A 3502   4.802   1.168   4.761 -0.9082  0.2981  0.9514
   32CHL1  H18B 3503   4.877   1.202   4.923  0.3074  1.6776 -1.5371
   32CHL1  H18C 3504   4.973   1.129   4.781  2.4028  0.0228  3.1972
   32CHL1   C12 3505   4.689   0.982   4.924 -0.4282 -0.3313  0.1372
   32CHL1  H12A 3506   4.623   1.024   4.846  1.0460 -0.1343 -1.0549
   32CHL1  H12B 3507   4.669   0.877   4.956 -0.6522  0.3867  2.5736
   32CHL1   C11 3508   4.669   1.074   5.042  0.1466 -0.0591  0.7613
   32CHL1  H11A 3509   4.697   1.178   5.013  1.5137 -0.5908  0.0611
   32CHL1  H11B 3510   4.563   1.074   5.074 -0.4083  3.8774 -0.4812
   32CHL1    C9 3511   4.761   1.028   5.162 -0.0245 -0.0240 -0.0991
   32CHL1    H9 3512   4.727   0.925   5.184  0.6025  0.0483  1.3431
   32CHL1   C10 3513   4.746   1.111   5.293 -0.6081 -0.1365 -0.1125
   32CHL1   C19 3514   4.769   1.264   5.268 -0.4260  0.0996  0.0866
   32CHL1  H19A 3515   4.694   1.288   5.189 -3.1670 -2.3404  1.7536
   32CHL1  H19B 3516   4.754   1.318   5.364  0.3013 -2.4008  1.6892
   32CHL1  H19C 3517   4.867   1.290   5.222  0.1522  0.3485  1.4090
   32CHL1    C1 3518   4.598   1.096   5.341  0.2458  0.7261 -0.1363
   32CHL1   H1A 3519   4.533   1.163   5.280 -0.2387  2.4300  2.1021
   32CHL1   H1B 3520   4.557   0.993   5.336  3.2825 -0.5885 -0.4169
   32CHL1    C2 3521   4.578   1.155   5.478  0.5961  0.6552  0.4062
   32CHL1   H2A 3522   4.475   1.146   5.518  0.3725  1.8912  0.1384
   32CHL1   H2B 3523   4.580   1.265   5.461 -0.3241  0.4090 -1.5915
   32CHL1   C20 3524   4.847   0.938   4.620 -0.2660  0.7845 -0.1153
   32CHL1   H20 3525   4.893   1.037   4.596 -1.6482  1.2438 -0.9738
   32CHL1   C21 3526   4.688   0.950   4.612  0.2986  0.1563 -0.6183
   32CHL1  H21A 3527   4.653   0.938   4.507 -0.3409  1.2690 -0.5513
   32CHL1  H21B 3528   4.649   1.048   4.649 -0.9916 -0.0767 -1.2939
   32CHL1  H21C 3529   4.645   0.861   4.662 -0.9485 -0.1527 -2.1578
   32CHL1   C22 3530   4.918   0.845   4.516  0.0830  1.1566 -0.5877
   32CHL1  H22A 3531   5.028   0.846   4.536 -0.1845 -0.7402  1.2018
   32CHL1  H22B 3532   4.896   0.739   4.539  0.7284  0.6877 -2.0341
   32CHL1   C23 3533   4.887   0.885   4.377  0.3598  0.5064 -0.0393
   32CHL1  H23A 3534   4.778   0.883   4.358  0.3324 -1.5624  0.1405
   32CHL1  H23B 3535   4.929   0.985   4.354 -1.0586  0.7866 -1.4992
   32CHL1   C24 3536   4.954   0.792   4.273  0.0639 -0.2189 -0.0052
   32CHL1  H24A 3537   5.059   0.759   4.290  0.3331  0.2681 -0.7003
   32CHL1  H24B 3538   4.889   0.702   4.274  0.6871 -0.6826 -0.1477
   32CHL1   C25 3539   4.947   0.849   4.126 -0.1966  0.6732 -0.0423
   32CHL1   H25 3540   4.964   0.762   4.059  0.2694  0.1465  0.7474
   32CHL1   C26 3541   4.811   0.909   4.107 -0.0656  0.3789  0.2433
   32CHL1  H26A 3542   4.722   0.842   4.119  1.2022 -1.4055  0.1550
   32CHL1  H26B 3543   4.799   1.007   4.157 -1.1954 -0.2166  1.2014
   32CHL1  H26C 3544   4.799   0.940   4.001 -1.6425  1.6732  0.7642
   32CHL1   C27 3545   5.064   0.954   4.109  0.5973  0.5169  0.7439
   32CHL1  H27A 3546   5.037   1.054   4.147 -0.6555  0.7039 -0.5643
   32CHL1  H27B 3547   5.157   0.925   4.163  0.5017 -0.3619  0.4481
   32CHL1  H27C 3548   5.078   0.970   4.000  2.0624 -0.1828  0.7993
   33CHL1    C3 3549   0.528   1.421   5.975  0.3268 -0.3476 -0.2182
   33CHL1    H3 3550   0.428   1.468   5.966 -0.1373 -0.8781  1.6642
   33CHL1    O3 3551   0.556   1.420   6.111  0.4457  0.7645 -0.1847
   33CHL1   H3' 3552   0.587   1.331   6.127  1.5085  1.2572  0.6399
   33CHL1    C4 3553   0.536   1.271   5.918  0.1491  0.9523  0.0229
   33CHL1   H4A 3554   0.639   1.230   5.926  0.3243  0.0548 -4.1252
   33CHL1   H4B 3555   0.468   1.206   5.976 -0.3539  0.2444 -1.3163
   33CHL1    C5 3556   0.495   1.278   5.769  0.1376  0.2495 -0.4607
   33CHL1    C6 3557   0.383   1.214   5.722 -0.1198  0.4969 -0.6354
   33CHL1    H6 3558   0.319   1.158   5.792  0.7258 -0.0887 -0.3162
   33CHL1    C7 3559   0.344   1.217   5.571  0.4508 -1.2475 -0.4369
   33CHL1   H7A 3560   0.316   1.115   5.538 -0.3425 -1.5161  0.9728
   33CHL1   H7B 3561   0.258   1.287   5.567  0.5218 -1.0688  0.7691
   33CHL1    C8 3562   0.448   1.286   5.480 -0.9137  0.8701 -0.1235
   33CHL1    H8 3563   0.524   1.209   5.456 -0.6077  1.0189  0.3492
   33CHL1   C14 3564   0.391   1.329   5.346 -0.2601  0.5755  0.6251
   33CHL1   H14 3565   0.317   1.408   5.369  0.1703  1.0023  0.5521
   33CHL1   C15 3566   0.304   1.226   5.263 -1.0758 -0.0556 -0.3524
   33CHL1  H15A 3567   0.357   1.129   5.268 -0.6707  0.0808 -1.6262
   33CHL1  H15B 3568   0.204   1.222   5.312 -0.2942 -0.8421  1.2568
   33CHL1   C16 3569   0.294   1.289   5.127  0.0207 -0.1450  0.6928
   33CHL1  H16A 3570   0.317   1.210   5.052  0.2147  0.9591 -0.4508
   33CHL1  H16B 3571   0.190   1.326   5.112 -0.3241 -1.5925 -0.8503
   33CHL1   C17 3572   0.390   1.412   5.123 -0.1372 -0.4424 -0.3689
   33CHL1   H17 3573   0.324   1.500   5.139  0.0313 -0.3294 -0.2933
   33CHL1   C13 3574   0.484   1.390   5.240  0.3621  1.0582 -0.0848
   33CHL1   C18 3575   0.583   1.283   5.199 -0.2342 -0.2512  0.2113
   33CHL1  H18A 3576   0.531   1.197   5.152 -1.1901  0.9036 -0.9264
   33CHL1  H18B 3577   0.650   1.322   5.119 -2.3044  0.6514 -1.1451
   33CHL1  H18C 3578   0.648   1.253   5.284 -0.7526  0.7163  0.9609
   33CHL1   C12 3579   0.550   1.511   5.308 -0.1668 -0.1465  0.1046
   33CHL1  H12A 3580   0.624   1.554   5.237  0.5856  1.7183  1.9023
   33CHL1  H12B 3581   0.472   1.590   5.319 -0.4856 -0.2478 -1.2096
   33CHL1   C11 3582   0.615   1.480   5.445 -0.8225  0.2035  0.1617
   33CHL1  H11A 3583   0.704   1.419   5.418 -0.9270  0.7429 -1.4929
   33CHL1  H11B 3584   0.645   1.579   5.484 -0.2462  0.0455  0.1304
   33CHL1    C9 3585   0.516   1.404   5.548 -0.7677 -0.2846 -0.2421
   33CHL1    H9 3586   0.438   1.480   5.573  1.0749  1.2635  1.1377
   33CHL1   C10 3587   0.585   1.371   5.681 -0.2545 -0.2219 -1.0008
   33CHL1   C19 3588   0.727   1.303   5.659 -0.0168 -0.0328  0.8290
   33CHL1  H19A 3589   0.756   1.259   5.756  0.5199  2.2146  1.7603
   33CHL1  H19B 3590   0.723   1.225   5.580 -1.3268  1.4200 -0.6275
   33CHL1  H19C 3591   0.803   1.382   5.638  0.0489  0.6968  3.5265
   33CHL1    C1 3592   0.609   1.508   5.747  0.7190  0.2406 -1.0327
   33CHL1   H1A 3593   0.686   1.575   5.705  0.4331  1.5690  0.4652
   33CHL1   H1B 3594   0.516   1.568   5.735  0.7866  0.4774 -0.4428
   33CHL1    C2 3595   0.633   1.507   5.903  0.4912  0.3916 -0.2998
   33CHL1   H2A 3596   0.625   1.611   5.939 -0.2320  0.2195  0.0416
   33CHL1   H2B 3597   0.737   1.473   5.926  0.6966  2.2911  1.9387
   33CHL1   C20 3598   0.440   1.445   4.983 -0.2079  0.6033  0.3467
   33CHL1   H20 3599   0.499   1.357   4.948 -1.4308 -0.0033 -0.2624
   33CHL1   C21 3600   0.525   1.575   4.979  0.4317  0.2208  0.1181
   33CHL1  H21A 3601   0.559   1.604   4.878  1.2818  0.5295  0.4853
   33CHL1  H21B 3602   0.621   1.562   5.035 -0.4437 -0.1385  1.6014
   33CHL1  H21C 3603   0.469   1.660   5.024 -0.7541 -0.7193  0.4947
   33CHL1   C22 3604   0.324   1.452   4.875 -0.3186 -0.5824  0.6350
   33CHL1  H22A 3605   0.259   1.363   4.883  0.0708 -1.2514 -2.4509
   33CHL1  H22B 3606   0.260   1.538   4.904  0.8597  1.1768 -1.6837
   33CHL1   C23 3607   0.365   1.453   4.727  0.6924  0.4214  0.9637
   33CHL1  H23A 3608   0.442   1.530   4.703 -0.3844  0.3878 -3.3301
   33CHL1  H23B 3609   0.408   1.356   4.696  0.4607  0.4529  0.5407
   33CHL1   C24 3610   0.248   1.491   4.628  0.7483  0.4024 -0.1573
   33CHL1  H24A 3611   0.179   1.404   4.637  1.4841 -0.4012 -1.9592
   33CHL1  H24B 3612   0.201   1.588   4.655  1.0912  0.5905 -0.2314
   33CHL1   C25 3613   0.295   1.515   4.480  0.1769 -0.8134 -0.6069
   33CHL1   H25 3614   0.376   1.591   4.483  1.8245 -2.5078 -0.7155
   33CHL1   C26 3615   0.350   1.400   4.411 -0.3380 -0.2738  0.2471
   33CHL1  H26A 3616   0.277   1.321   4.383  0.0729 -0.7018  0.3566
   33CHL1  H26B 3617   0.408   1.425   4.319 -0.6025 -0.9213 -0.1021
   33CHL1  H26C 3618   0.424   1.354   4.480  0.5271  3.6395  2.2046
   33CHL1   C27 3619   0.176   1.571   4.409  0.4293  0.2278 -0.8884
   33CHL1  H27A 3620   0.215   1.601   4.309 -0.9380  1.8630 -0.9701
   33CHL1  H27B 3621   0.104   1.487   4.411 -2.8420  2.8440  0.6002
   33CHL1  H27C 3622   0.131   1.660   4.458 -1.9079 -1.5569  0.3389
   34CHL1    C3 3623   3.105   2.950   5.929  0.0771 -0.2915 -0.3347
   34CHL1    H3 3624   3.216   2.948   5.930  0.1019  0.0747 -1.6069
   34CHL1    O3 3625   3.063   2.915   6.061  0.1243  0.6549 -0.0570
   34CHL1   H3' 3626   3.019   2.996   6.089 -0.9220  0.1437 -0.1845
   34CHL1    C4 3627   3.041   3.077   5.880  0.0053 -0.0075  0.8130
   34CHL1   H4A 3628   2.931   3.089   5.896  0.0635 -0.3704  1.4884
   34CHL1   H4B 3629   3.081   3.154   5.948  0.5472 -0.3952  0.9365
   34CHL1    C5 3630   3.078   3.104   5.731 -0.5306  1.2771  0.3984
   34CHL1    C6 3631   3.142   3.214   5.689 -0.4237  1.0742  0.0917
   34CHL1    H6 3632   3.168   3.294   5.760  0.4596  1.2228 -0.3833
   34CHL1    C7 3633   3.179   3.237   5.545  0.0436  0.3618  0.2795
   34CHL1   H7A 3634   3.142   3.338   5.518  1.3231  0.1904 -2.5229
   34CHL1   H7B 3635   3.288   3.223   5.529  0.0680  0.8096  0.0363
   34CHL1    C8 3636   3.102   3.138   5.447 -0.1834  0.5545  0.5387
   34CHL1    H8 3637   2.994   3.164   5.453  0.3289  3.3770 -0.7687
   34CHL1   C14 3638   3.154   3.143   5.305  0.8374 -0.1371  0.1703
   34CHL1   H14 3639   3.257   3.104   5.321  0.6139 -0.4004  1.0331
   34CHL1   C15 3640   3.179   3.280   5.251  0.8091  0.4072  0.5872
   34CHL1  H15A 3641   3.085   3.337   5.270  0.8127  1.1751 -1.5157
   34CHL1  H15B 3642   3.262   3.323   5.310 -0.4808  0.3100  2.5898
   34CHL1   C16 3643   3.198   3.255   5.099  0.9126 -0.9814  0.6458
   34CHL1  H16A 3644   3.132   3.325   5.043  1.1694  0.8196  2.4909
   34CHL1  H16B 3645   3.303   3.269   5.066 -0.0032 -0.9780 -2.7098
   34CHL1   C17 3646   3.163   3.102   5.067  0.0332  0.0772 -0.1037
   34CHL1   H17 3647   3.263   3.054   5.056  0.5398  1.0984  0.0063
   34CHL1   C13 3648   3.091   3.056   5.200  0.0762  0.1240  0.4141
   34CHL1   C18 3649   2.938   3.083   5.186  0.1224  0.8048  0.0452
   34CHL1  H18A 3650   2.885   3.017   5.114 -2.6987  0.2849  2.3951
   34CHL1  H18B 3651   2.880   3.082   5.281 -0.4254 -1.2485 -0.2563
   34CHL1  H18C 3652   2.933   3.188   5.151 -0.3430  0.5522 -0.6785
   34CHL1   C12 3653   3.110   2.908   5.248 -0.6036 -0.2193  0.7683
   34CHL1  H12A 3654   3.068   2.834   5.177 -0.4969 -0.5659  1.0613
   34CHL1  H12B 3655   3.218   2.883   5.244 -0.3037  0.6584  2.4602
   34CHL1   C11 3656   3.064   2.880   5.394  0.4751  0.0164 -0.1187
   34CHL1  H11A 3657   2.953   2.873   5.391  0.5150 -0.8400  0.0790
   34CHL1  H11B 3658   3.097   2.779   5.427 -0.7286 -0.4171 -0.1880
   34CHL1    C9 3659   3.106   2.994   5.496  0.2790  0.1490 -0.5131
   34CHL1    H9 3660   3.216   2.981   5.504  0.5590  1.9459 -1.1226
   34CHL1   C10 3661   3.044   2.984   5.637 -0.2703  0.3124  0.3772
   34CHL1   C19 3662   2.890   2.987   5.632 -0.2371  0.0776 -0.0297
   34CHL1  H19A 3663   2.855   2.887   5.599 -1.6629  0.2860  0.7587
   34CHL1  H19B 3664   2.846   3.001   5.733  0.6682 -0.5324  0.4591
   34CHL1  H19C 3665   2.855   3.068   5.564  2.5870  0.2879 -1.3938
   34CHL1    C1 3666   3.097   2.846   5.695  0.0481  0.8823  0.2253
   34CHL1   H1A 3667   3.057   2.756   5.644 -0.8513  1.0857  0.5426
   34CHL1   H1B 3668   3.207   2.853   5.700  0.0916 -0.0017  0.6433
   34CHL1    C2 3669   3.054   2.833   5.841 -0.3862 -0.2812 -0.3532
   34CHL1   H2A 3670   3.082   2.734   5.883  0.1021  1.0265  2.6882
   34CHL1   H2B 3671   2.944   2.826   5.853 -0.4050  2.7077  2.3282
   34CHL1   C20 3672   3.090   3.084   4.938  0.2139 -0.1314  0.4474
   34CHL1   H20 3673   2.981   3.103   4.946  0.1345 -0.5530  0.3807
   34CHL1   C21 3674   3.095   2.930   4.918  0.2479 -0.5460  0.4790
   34CHL1  H21A 3675   3.036   2.870   4.990 -1.9195 -1.3058 -1.8086
   34CHL1  H21B 3676   3.201   2.896   4.913  0.6587  0.8295 -1.1416
   34CHL1  H21C 3677   3.058   2.908   4.816 -0.0651 -0.3491  0.5483
   34CHL1   C22 3678   3.145   3.140   4.806 -0.2980  0.2320 -0.5132
   34CHL1  H22A 3679   3.090   3.115   4.713  0.6654  1.2889 -1.3930
   34CHL1  H22B 3680   3.141   3.249   4.829  1.6870 -0.1598  2.1816
   34CHL1   C23 3681   3.289   3.117   4.770 -1.2247  0.2744  0.2635
   34CHL1  H23A 3682   3.351   3.143   4.858 -0.6084 -0.8871  0.1919
   34CHL1  H23B 3683   3.297   3.006   4.760 -0.6726  0.1133  2.1191
   34CHL1   C24 3684   3.350   3.194   4.648 -0.2910 -0.5531 -0.1696
   34CHL1  H24A 3685   3.459   3.176   4.637 -0.3445 -1.1012  0.1655
   34CHL1  H24B 3686   3.304   3.146   4.559 -0.9486  0.9331 -0.6586
   34CHL1   C25 3687   3.323   3.351   4.633  0.1258 -0.0609 -0.8238
   34CHL1   H25 3688   3.212   3.357   4.625  0.2200  2.2138 -1.0875
   34CHL1   C26 3689   3.358   3.431   4.758  0.3713  0.4262 -0.1882
   34CHL1  H26A 3690   3.319   3.534   4.745  0.7714  0.9953  2.5603
   34CHL1  H26B 3691   3.310   3.384   4.847 -0.9710 -2.7470 -2.4034
   34CHL1  H26C 3692   3.468   3.442   4.774  0.5613  2.1326 -2.2441
   34CHL1   C27 3693   3.391   3.412   4.509  0.4406 -0.2041 -0.5475
   34CHL1  H27A 3694   3.338   3.389   4.414 -0.6425 -2.0853  0.4466
   34CHL1  H27B 3695   3.405   3.521   4.523  1.3105 -0.3875  0.1017
   34CHL1  H27C 3696   3.497   3.378   4.503  0.9669  1.6398 -3.0807
   35CHL1    C3 3697   3.593   0.090   5.752 -0.0961 -0.3120  0.8202
   35CHL1    H3 3698   3.667   0.008   5.737  1.1622  0.3817  2.8714
   35CHL1    O3 3699   3.562   0.097   5.890 -0.4384  0.8274 -0.1484
   35CHL1   H3' 3700   3.476   0.055   5.895 -0.8594  1.3281 -2.1704
   35CHL1    C4 3701   3.655   0.225   5.696  0.9746  0.5141 -0.3358
   35CHL1   H4A 3702   3.591   0.313   5.716  0.3598  0.1702 -0.7868
   35CHL1   H4B 3703   3.749   0.234   5.755  0.2780  1.1034  0.7112
   35CHL1    C5 3704   3.679   0.220   5.544 -0.0179 -0.2801 -0.0914
   35CHL1    C6 3705   3.801   0.254   5.494 -0.1197  0.7338 -0.1219
   35CHL1    H6 3706   3.879   0.292   5.561  0.1562  1.6990 -0.9664
   35CHL1    C7 3707   3.833   0.260   5.346 -0.0305  0.5800 -0.8729
   35CHL1   H7A 3708   3.879   0.358   5.322 -1.8150  1.3173 -1.4277
   35CHL1   H7B 3709   3.905   0.179   5.320 -1.2510 -1.2908  1.2379
   35CHL1    C8 3710   3.704   0.250   5.260  0.0924  0.2480 -0.4435
   35CHL1    H8 3711   3.646   0.345   5.267 -0.3412 -0.0206 -0.3674
   35CHL1   C14 3712   3.747   0.205   5.119 -0.3725  0.2168 -0.0624
   35CHL1   H14 3713   3.804   0.110   5.128 -2.5356 -1.3661 -1.9698
   35CHL1   C15 3714   3.838   0.300   5.045  0.0272 -0.0867 -0.3199
   35CHL1  H15A 3715   3.799   0.403   5.063 -0.0408 -0.3246  0.9433
   35CHL1  H15B 3716   3.941   0.297   5.086  0.4210  0.3649 -1.2480
   35CHL1   C16 3717   3.833   0.267   4.900  0.8095  0.1819 -0.2714
   35CHL1  H16A 3718   3.836   0.356   4.834  1.7710  2.1643  2.2857
   35CHL1  H16B 3719   3.922   0.210   4.864 -1.3726 -1.8562 -2.8238
   35CHL1   C17 3720   3.707   0.169   4.888 -0.4489 -0.0631  0.2336
   35CHL1   H17 3721   3.749   0.066   4.898  2.2190  1.0607  1.6240
   35CHL1   C13 3722   3.630   0.184   5.022 -0.4197 -1.2022  0.1158
   35CHL1   C18 3723   3.543   0.314   5.002 -0.1970 -0.0519 -0.7092
   35CHL1  H18A 3724   3.457   0.305   4.931 -1.2209  1.3450  0.2999
   35CHL1  H18B 3725   3.490   0.333   5.098 -0.8001 -0.8553 -0.8743
   35CHL1  H18C 3726   3.598   0.404   4.967 -0.6853  0.9150  0.9175
   35CHL1   C12 3727   3.549   0.064   5.070  1.0987 -0.1058  0.0072
   35CHL1  H12A 3728   3.460   0.054   5.004 -0.4555  0.7145  1.8581
   35CHL1  H12B 3729   3.606  -0.030   5.061 -1.4769 -1.5530 -3.2730
   35CHL1   C11 3730   3.500   0.087   5.210 -0.2596 -0.6047  0.9982
   35CHL1  H11A 3731   3.426   0.169   5.198 -0.6746 -1.3037 -2.2122
   35CHL1  H11B 3732   3.445  -0.003   5.246 -1.1729 -0.8425 -0.8443
   35CHL1    C9 3733   3.611   0.136   5.311  0.3387  0.1546 -0.9223
   35CHL1    H9 3734   3.676   0.046   5.313  1.3472  0.7967 -2.7624
   35CHL1   C10 3735   3.561   0.169   5.460  0.5033  0.3591 -0.0357
   35CHL1   C19 3736   3.451   0.278   5.456 -0.1144  0.2605  0.5794
   35CHL1  H19A 3737   3.363   0.246   5.396  0.3645  0.8050 -0.4484
   35CHL1  H19B 3738   3.418   0.298   5.561 -0.2311  1.2856  0.3629
   35CHL1  H19C 3739   3.497   0.370   5.414  0.2980 -0.2733 -0.1682
   35CHL1    C1 3740   3.501   0.036   5.526  0.2965 -0.7136 -0.3623
   35CHL1   H1A 3741   3.409   0.015   5.467  0.6228  0.9876 -1.5468
   35CHL1   H1B 3742   3.578  -0.044   5.520  0.7747 -0.3577  0.7536
   35CHL1    C2 3743   3.466   0.042   5.678  0.5016 -0.1847 -0.4723
   35CHL1   H2A 3744   3.418  -0.051   5.714 -1.0143  1.3448  1.7755
   35CHL1   H2B 3745   3.399   0.131   5.688 -0.6649 -0.3036 -4.8671
   35CHL1   C20 3746   3.625   0.182   4.759 -0.3007  0.1319  0.1824
   35CHL1   H20 3747   3.521   0.158   4.789  0.2391  0.8669  2.9285
   35CHL1   C21 3748   3.677   0.064   4.671  0.7759  0.9715 -0.1113
   35CHL1  H21A 3749   3.785   0.085   4.653  0.4981  1.6576 -0.9967
   35CHL1  H21B 3750   3.620   0.047   4.578  1.2936 -3.3436  0.1182
   35CHL1  H21C 3751   3.675  -0.030   4.731 -0.3501 -0.6778 -2.5572
   35CHL1   C22 3752   3.635   0.318   4.681  0.1522  0.6034  0.2577
   35CHL1  H22A 3753   3.593   0.403   4.740 -0.5768  0.5999 -0.2432
   35CHL1  H22B 3754   3.742   0.321   4.653  0.7265 -1.9781  1.8871
   35CHL1   C23 3755   3.547   0.312   4.553  0.0371 -0.0567 -0.0914
   35CHL1  H23A 3756   3.602   0.245   4.483  0.9508 -2.4720  2.7147
   35CHL1  H23B 3757   3.451   0.261   4.577  0.2733  0.2342  1.5960
   35CHL1   C24 3758   3.530   0.450   4.493  0.8890  0.4655  0.7518
   35CHL1  H24A 3759   3.476   0.513   4.567  0.3273 -0.8365  1.4756
   35CHL1  H24B 3760   3.630   0.496   4.477  1.0777  0.3667  1.6026
   35CHL1   C25 3761   3.450   0.457   4.359  0.2174 -0.0879  0.1792
   35CHL1   H25 3762   3.373   0.377   4.354  1.3910 -1.2806  0.6206
   35CHL1   C26 3763   3.368   0.590   4.346 -0.3366 -0.5987 -0.0395
   35CHL1  H26A 3764   3.420   0.670   4.403  0.2456  1.4189 -3.1484
   35CHL1  H26B 3765   3.361   0.606   4.236 -1.5838 -0.0657  0.1081
   35CHL1  H26C 3766   3.268   0.585   4.393  0.5666 -1.1396  1.8997
   35CHL1   C27 3767   3.539   0.443   4.236  0.6757 -0.3713 -0.0236
   35CHL1  H27A 3768   3.472   0.447   4.147 -1.7858 -0.7519  1.6997
   35CHL1  H27B 3769   3.607   0.530   4.243 -1.0544  1.3976 -2.8975
   35CHL1  H27C 3770   3.594   0.347   4.226  0.6930 -0.2763 -1.0361
   36CHL1    C3 3771   6.937   3.187   5.401 -0.7865  0.2904  0.6712
   36CHL1    H3 3772   6.946   3.076   5.409 -2.0364  0.0507 -0.8053
   36CHL1    O3 3773   6.908   3.233   5.530 -0.5231  0.2765  0.8348
   36CHL1   H3' 3774   6.814   3.216   5.539 -0.6887 -0.1214 -1.2350
   36CHL1    C4 3775   7.071   3.252   5.355 -0.0110 -0.0753  0.6683
   36CHL1   H4A 3776   7.064   3.358   5.385  2.7632  0.4231 -0.1280
   36CHL1   H4B 3777   7.146   3.212   5.426  0.8133  0.3142  0.0295
   36CHL1    C5 3778   7.099   3.230   5.206  0.0204 -0.1345  0.3031
   36CHL1    C6 3779   7.222   3.193   5.162  0.2688  0.6102 -0.3101
   36CHL1    H6 3780   7.301   3.162   5.231 -0.4065 -1.0916 -0.2408
   36CHL1    C7 3781   7.250   3.190   5.013 -0.3408  0.1743 -0.1740
   36CHL1   H7A 3782   7.344   3.246   4.997 -0.0509 -0.0760  0.5970
   36CHL1   H7B 3783   7.280   3.089   4.977 -1.1040 -0.1500  0.0797
   36CHL1    C8 3784   7.144   3.243   4.912  0.0771  0.2942  0.2752
   36CHL1    H8 3785   7.160   3.353   4.912  3.2681 -0.0703 -0.4240
   36CHL1   C14 3786   7.166   3.196   4.771 -0.3174 -0.8403  0.4009
   36CHL1   H14 3787   7.149   3.086   4.778  1.5673 -1.3519 -1.7740
   36CHL1   C15 3788   7.307   3.207   4.704 -0.2983 -0.0126  0.5905
   36CHL1  H15A 3789   7.340   3.313   4.702  0.3222 -0.2007  0.5803
   36CHL1  H15B 3790   7.381   3.146   4.760 -0.3621  0.9596  1.7899
   36CHL1   C16 3791   7.270   3.184   4.552  0.0595  0.7354  0.2023
   36CHL1  H16A 3792   7.290   3.283   4.507  1.1929  0.4708  0.0996
   36CHL1  H16B 3793   7.333   3.103   4.509  2.5830  1.1483  2.8123
   36CHL1   C17 3794   7.115   3.166   4.545 -0.0097 -0.9536 -0.2089
   36CHL1   H17 3795   7.099   3.060   4.573 -1.1091 -0.6740  0.2658
   36CHL1   C13 3796   7.060   3.240   4.669 -0.5352  0.1172  0.5587
   36CHL1   C18 3797   7.073   3.389   4.647  0.3300 -0.3918  0.2345
   36CHL1  H18A 3798   7.177   3.427   4.657  0.5930 -1.1948  0.6496
   36CHL1  H18B 3799   7.035   3.415   4.546 -0.2568  1.1447  0.8344
   36CHL1  H18C 3800   7.003   3.430   4.722  0.7299  1.7165 -0.4875
   36CHL1   C12 3801   6.916   3.193   4.717  0.0436 -0.5687 -0.2574
   36CHL1  H12A 3802   6.844   3.251   4.654 -1.0904 -1.8628 -0.2005
   36CHL1  H12B 3803   6.908   3.084   4.697 -1.2460 -1.1193  2.7548
   36CHL1   C11 3804   6.891   3.232   4.861 -0.5642 -0.0363  0.2694
   36CHL1  H11A 3805   6.872   3.342   4.864  2.5465  0.5754  0.4997
   36CHL1  H11B 3806   6.797   3.178   4.885 -1.0450  0.0723 -1.2461
   36CHL1    C9 3807   7.002   3.205   4.964  0.3125 -0.3731 -0.1522
   36CHL1    H9 3808   7.013   3.097   4.988  0.7207  0.0321  1.5633
   36CHL1   C10 3809   6.979   3.262   5.109 -0.4400  0.4451  0.8368
   36CHL1   C19 3810   6.961   3.412   5.103  0.3265 -0.1061  0.8139
   36CHL1  H19A 3811   6.893   3.458   5.028 -0.2430 -0.2272  1.2424
   36CHL1  H19B 3812   6.928   3.441   5.205 -0.3261 -0.9892  0.8706
   36CHL1  H19C 3813   7.061   3.459   5.090  0.5968 -0.3943  1.7493
   36CHL1    C1 3814   6.852   3.196   5.158 -0.7414 -0.0845  0.2180
   36CHL1   H1A 3815   6.766   3.238   5.101  0.6548  0.0623 -1.8817
   36CHL1   H1B 3816   6.855   3.086   5.143  0.4736  0.2070 -2.3008
   36CHL1    C2 3817   6.817   3.221   5.307  0.0181 -0.1545 -0.0191
   36CHL1   H2A 3818   6.730   3.158   5.335 -0.4739  0.8850  0.8871
   36CHL1   H2B 3819   6.796   3.329   5.323  2.3744  0.7439 -2.2621
   36CHL1   C20 3820   7.040   3.189   4.408  0.1124 -0.1846 -0.1004
   36CHL1   H20 3821   6.940   3.233   4.426  0.0576  0.0431 -0.9051
   36CHL1   C21 3822   7.019   3.046   4.356 -0.2836 -0.4436  0.5092
   36CHL1  H21A 3823   7.121   3.005   4.341 -0.0276  0.3477  0.0276
   36CHL1  H21B 3824   6.975   3.056   4.254  0.6006  0.2954  0.1830
   36CHL1  H21C 3825   6.949   2.987   4.419 -0.0484 -0.2134  0.9910
   36CHL1   C22 3826   7.107   3.281   4.303  0.5962 -0.2513  0.2208
   36CHL1  H22A 3827   7.017   3.321   4.251  0.0268 -0.2594  1.1709
   36CHL1  H22B 3828   7.146   3.367   4.362  0.7107 -0.1468 -0.0028
   36CHL1   C23 3829   7.219   3.222   4.214  0.1194 -0.8325  0.0642
   36CHL1  H23A 3830   7.289   3.160   4.273  0.2140 -0.1053  0.7394
   36CHL1  H23B 3831   7.179   3.171   4.123  1.6353 -1.3346 -0.3453
   36CHL1   C24 3832   7.311   3.329   4.152 -0.0884  0.3900 -0.4541
   36CHL1  H24A 3833   7.238   3.403   4.113 -1.0900  1.7947  3.5702
   36CHL1  H24B 3834   7.376   3.378   4.229 -0.8841  1.2452 -0.3074
   36CHL1   C25 3835   7.404   3.274   4.040  0.4037 -0.3280  0.0196
   36CHL1   H25 3836   7.338   3.225   3.966  2.3251 -1.5070 -0.9925
   36CHL1   C26 3837   7.475   3.378   3.952 -0.0184 -0.3991 -0.1283
   36CHL1  H26A 3838   7.543   3.440   4.013  0.3732  0.6732 -1.5919
   36CHL1  H26B 3839   7.527   3.329   3.867 -0.1006 -0.2639 -0.2575
   36CHL1  H26C 3840   7.409   3.456   3.906  2.1422  1.7877  0.2897
   36CHL1   C27 3841   7.515   3.180   4.095  0.2248  0.0019 -0.2854
   36CHL1  H27A 3842   7.582   3.234   4.165  1.0085  3.2414 -3.1926
   36CHL1  H27B 3843   7.465   3.094   4.144  0.2698  0.8343  1.2771
   36CHL1  H27C 3844   7.574   3.153   4.005 -0.2232  1.6519 -1.1223
   37CHL1    C3 3845   2.184   0.022   5.605 -0.0184 -0.0655  0.2893
   37CHL1    H3 3846   2.087   0.073   5.584  0.3451  1.7389  2.6037
   37CHL1    O3 3847   2.240   0.097   5.715  0.2874 -0.0145  0.6457
   37CHL1   H3' 3848   2.324   0.058   5.736  1.2811  1.3778 -0.5045
   37CHL1    C4 3849   2.167  -0.118   5.642 -0.0238  1.0153  0.2383
   37CHL1   H4A 3850   2.268  -0.149   5.676 -0.3622 -0.9652 -0.4253
   37CHL1   H4B 3851   2.099  -0.123   5.730 -0.6426 -0.0638 -0.2777
   37CHL1    C5 3852   2.112  -0.214   5.535  0.0872  0.6772  0.3013
   37CHL1    C6 3853   2.002  -0.294   5.552  0.6477  0.0916  0.3734
   37CHL1    H6 3854   1.964  -0.301   5.655  1.3133 -3.2296  0.5161
   37CHL1    C7 3855   1.940  -0.390   5.456  0.1206 -0.1633  0.1654
   37CHL1   H7A 3856   1.929  -0.492   5.499  2.2298  0.3308  2.0270
   37CHL1   H7B 3857   1.837  -0.363   5.422 -0.1088 -2.1724 -0.8858
   37CHL1    C8 3858   2.039  -0.403   5.330 -0.8032  0.5757  0.4661
   37CHL1    H8 3859   2.121  -0.468   5.365 -0.8739  0.4742  0.4437
   37CHL1   C14 3860   1.967  -0.466   5.215  1.2111 -0.0179 -0.5357
   37CHL1   H14 3861   1.894  -0.384   5.198  1.0217  0.8647  3.5077
   37CHL1   C15 3862   1.879  -0.586   5.235 -0.0281 -0.1837 -0.4625
   37CHL1  H15A 3863   1.943  -0.672   5.264  2.7238  1.1603 -2.1619
   37CHL1  H15B 3864   1.797  -0.578   5.310 -0.2550 -0.6726 -0.6511
   37CHL1   C16 3865   1.830  -0.626   5.094 -0.6217 -0.4405  0.0722
   37CHL1  H16A 3866   1.844  -0.736   5.091 -1.0603 -0.4750 -1.7797
   37CHL1  H16B 3867   1.720  -0.621   5.078 -0.5179  0.9084 -0.3344
   37CHL1   C17 3868   1.933  -0.546   4.995 -0.3875 -0.3135  0.7788
   37CHL1   H17 3869   1.877  -0.454   4.967  1.9345  1.0039  0.1025
   37CHL1   C13 3870   2.044  -0.480   5.085  0.5712 -0.1117 -0.2471
   37CHL1   C18 3871   2.156  -0.577   5.099  0.1323 -0.0014 -0.4056
   37CHL1  H18A 3872   2.129  -0.684   5.091  0.7957 -0.2002 -0.0822
   37CHL1  H18B 3873   2.236  -0.561   5.023  0.5538 -3.2253 -0.7774
   37CHL1  H18C 3874   2.201  -0.564   5.199 -2.3866 -0.1207  0.8114
   37CHL1   C12 3875   2.096  -0.339   5.044  0.1008 -0.2376 -0.4076
   37CHL1  H12A 3876   2.150  -0.350   4.947 -3.0260 -0.1637 -2.3049
   37CHL1  H12B 3877   2.009  -0.270   5.036  0.3533  0.4590  2.0173
   37CHL1   C11 3878   2.187  -0.288   5.161 -0.0277 -0.8405  0.2701
   37CHL1  H11A 3879   2.276  -0.353   5.172  0.2642 -1.0523 -2.5792
   37CHL1  H11B 3880   2.220  -0.187   5.127 -0.2637 -0.2513  1.7217
   37CHL1    C9 3881   2.109  -0.272   5.290  0.1622  0.0688  0.0625
   37CHL1    H9 3882   2.021  -0.209   5.264 -1.8369 -2.7372 -0.4335
   37CHL1   C10 3883   2.188  -0.207   5.406 -0.5200 -0.0050 -0.5332
   37CHL1   C19 3884   2.333  -0.265   5.425  0.5683  0.4109  0.4376
   37CHL1  H19A 3885   2.391  -0.219   5.508  1.1545  0.7250 -0.1399
   37CHL1  H19B 3886   2.326  -0.375   5.439  0.3253  0.4516  0.6433
   37CHL1  H19C 3887   2.391  -0.244   5.333 -0.5017 -2.7527 -1.1178
   37CHL1    C1 3888   2.222  -0.059   5.368  0.4209  0.5452 -0.1366
   37CHL1   H1A 3889   2.299  -0.072   5.289 -0.4309 -2.4010 -0.6250
   37CHL1   H1B 3890   2.135  -0.018   5.313 -0.0292 -1.4004 -0.9934
   37CHL1    C2 3891   2.275   0.036   5.478  0.0766  0.0170  0.2389
   37CHL1   H2A 3892   2.282   0.145   5.458  2.0489  0.0026  0.6329
   37CHL1   H2B 3893   2.373   0.007   5.520  0.5156  1.1644  0.0348
   37CHL1   C20 3894   1.968  -0.628   4.864  0.1278  0.4055  0.1584
   37CHL1   H20 3895   2.057  -0.691   4.886  0.5654  0.3820 -1.5831
   37CHL1   C21 3896   2.009  -0.529   4.751  0.0806 -0.4562  0.4377
   37CHL1  H21A 3897   2.037  -0.585   4.659 -0.5837 -0.8526  0.4704
   37CHL1  H21B 3898   2.088  -0.458   4.783  0.9190  0.2435 -2.8470
   37CHL1  H21C 3899   1.931  -0.461   4.713  0.2221  0.2177  1.3144
   37CHL1   C22 3900   1.862  -0.730   4.827  0.2606  0.0840 -0.0532
   37CHL1  H22A 3901   1.868  -0.807   4.907 -0.0736  0.5824  0.4535
   37CHL1  H22B 3902   1.760  -0.687   4.830  0.7443  1.7544 -3.2477
   37CHL1   C23 3903   1.894  -0.801   4.694 -0.5196  0.5414 -0.0734
   37CHL1  H23A 3904   1.881  -0.722   4.618 -2.4108 -0.8123 -1.2432
   37CHL1  H23B 3905   2.002  -0.825   4.695 -0.5739  0.2503 -0.9761
   37CHL1   C24 3906   1.811  -0.926   4.662 -0.3714 -0.6150 -0.0182
   37CHL1  H24A 3907   1.843  -0.959   4.561 -1.0354 -2.1559  0.2518
   37CHL1  H24B 3908   1.837  -1.010   4.730 -0.1832 -0.3223  0.2730
   37CHL1   C25 3909   1.664  -0.915   4.660  0.2978  0.1974  0.7203
   37CHL1   H25 3910   1.628  -0.852   4.745  0.8072  0.5256  0.6941
   37CHL1   C26 3911   1.608  -0.848   4.539  0.1833 -0.3285  0.1914
   37CHL1  H26A 3912   1.643  -0.888   4.441 -2.5132  0.5039 -1.1950
   37CHL1  H26B 3913   1.498  -0.843   4.532  0.1996 -0.7950 -0.5058
   37CHL1  H26C 3914   1.646  -0.744   4.548 -0.0589 -0.1559 -0.7137
   37CHL1   C27 3915   1.591  -1.055   4.671 -0.5668 -0.3588 -0.8972
   37CHL1  H27A 3916   1.631  -1.122   4.591 -1.1249 -2.8977  0.8249
   37CHL1  H27B 3917   1.620  -1.097   4.770 -1.5355  1.3990  0.1809
   37CHL1  H27C 3918   1.481  -1.048   4.658 -0.3015 -0.9215 -4.4955
   38CHL1    C3 3919   3.888   5.968   6.239 -0.5152 -0.1660 -0.3212
   38CHL1    H3 3920   3.904   6.078   6.235 -1.2860 -0.0661 -3.6440
   38CHL1    O3 3921   3.902   5.927   6.371 -0.4276  0.3480 -0.0992
   38CHL1   H3' 3922   3.997   5.919   6.383 -0.2733 -2.8394 -2.3059
   38CHL1    C4 3923   3.758   5.928   6.175  0.3761 -0.1659  0.5913
   38CHL1   H4A 3924   3.746   5.818   6.182 -1.5959  0.0833  1.9219
   38CHL1   H4B 3925   3.677   5.975   6.235 -0.9726 -0.6038 -0.8278
   38CHL1    C5 3926   3.751   5.983   6.037  0.4497 -0.0758 -0.4293
   38CHL1    C6 3927   3.654   6.072   6.005  0.1029 -0.5453  0.2066
   38CHL1    H6 3928   3.579   6.096   6.082  1.1088  2.1712  0.4624
   38CHL1    C7 3929   3.639   6.123   5.856 -0.2336  0.6023  0.0101
   38CHL1   H7A 3930   3.531   6.133   5.832 -1.1947 -1.7522  2.7633
   38CHL1   H7B 3931   3.679   6.224   5.831 -1.6420  1.2348  0.2513
   38CHL1    C8 3932   3.713   6.032   5.754  0.0002  0.0964  0.0881
   38CHL1    H8 3933   3.647   5.943   5.752 -0.2124  0.2653 -0.8518
   38CHL1   C14 3934   3.713   6.099   5.620  0.0358 -0.2880  0.4774
   38CHL1   H14 3935   3.766   6.197   5.618 -1.4467  0.5421 -1.2489
   38CHL1   C15 3936   3.573   6.142   5.569 -0.5629  0.2405 -0.3545
   38CHL1  H15A 3937   3.491   6.069   5.584  0.6317 -1.5603 -2.1444
   38CHL1  H15B 3938   3.541   6.232   5.626  1.4309  0.6931  0.1374
   38CHL1   C16 3939   3.595   6.155   5.421  0.2350 -0.3546  0.4593
   38CHL1  H16A 3940   3.531   6.077   5.375 -1.6149  1.7211 -0.6225
   38CHL1  H16B 3941   3.559   6.249   5.375 -0.7133 -0.7418  0.3967
   38CHL1   C17 3942   3.745   6.110   5.385  0.1382  0.6310  0.4335
   38CHL1   H17 3943   3.809   6.200   5.389  0.2204  0.5414  1.3246
   38CHL1   C13 3944   3.779   6.021   5.503  0.7951  0.2850 -0.5155
   38CHL1   C18 3945   3.703   5.887   5.507  0.4532  0.4259  0.0960
   38CHL1  H18A 3946   3.725   5.832   5.412  1.1668  1.1818 -0.1823
   38CHL1  H18B 3947   3.728   5.821   5.593  0.5011  1.9017  1.2386
   38CHL1  H18C 3948   3.593   5.903   5.510  0.5971  1.8908 -1.2010
   38CHL1   C12 3949   3.923   6.004   5.545  0.2887 -0.2031  0.7977
   38CHL1  H12A 3950   3.981   5.944   5.471 -2.3630  0.7794 -2.3070
   38CHL1  H12B 3951   3.967   6.104   5.563  1.0785 -0.6219  1.2484
   38CHL1   C11 3952   3.933   5.926   5.681  0.2037 -0.3108 -0.1679
   38CHL1  H11A 3953   3.915   5.818   5.658 -0.7342 -0.6746  2.0436
   38CHL1  H11B 3954   4.038   5.930   5.717 -0.4762 -0.9312  2.0578
   38CHL1    C9 3955   3.855   5.991   5.798 -0.1436 -0.1332  0.4855
   38CHL1    H9 3956   3.906   6.088   5.816 -1.9956  0.7972  0.9196
   38CHL1   C10 3957   3.855   5.925   5.939 -0.3163 -0.6163 -0.1105
   38CHL1   C19 3958   3.860   5.775   5.928 -0.2937  0.6773 -0.6970
   38CHL1  H19A 3959   3.962   5.760   5.886 -0.9825 -0.9218 -1.8854
   38CHL1  H19B 3960   3.854   5.725   6.027  0.4914 -0.6994 -1.3148
   38CHL1  H19C 3961   3.790   5.737   5.850  0.5959 -0.7514 -0.8394
   38CHL1    C1 3962   3.988   5.961   6.013 -0.5124  0.0421  0.3623
   38CHL1   H1A 3963   4.074   5.919   5.958  0.2190  0.3954  1.2167
   38CHL1   H1B 3964   3.992   6.072   6.023  3.0018  0.0044  0.3877
   38CHL1    C2 3965   4.010   5.915   6.160  0.9476 -0.2237  0.6341
   38CHL1   H2A 3966   4.105   5.958   6.199  1.8662  0.3777 -2.0505
   38CHL1   H2B 3967   4.000   5.804   6.162  0.9160 -0.2510 -0.4212
   38CHL1   C20 3968   3.732   6.050   5.244 -0.0181  0.7063  0.2580
   38CHL1   H20 3969   3.655   5.970   5.242 -0.1139  0.7863  0.7433
   38CHL1   C21 3970   3.862   5.961   5.219  0.4971 -0.0867 -0.0086
   38CHL1  H21A 3971   3.869   5.865   5.275  2.9498  0.4788  0.7605
   38CHL1  H21B 3972   3.953   6.024   5.220 -0.0080  0.6616  1.3836
   38CHL1  H21C 3973   3.832   5.922   5.119 -1.4391 -1.1309  0.9016
   38CHL1   C22 3974   3.707   6.156   5.131  0.3976  0.4725 -0.0669
   38CHL1  H22A 3975   3.650   6.244   5.167 -0.2962 -0.4326  1.1105
   38CHL1  H22B 3976   3.809   6.198   5.120  0.9000 -0.5400  0.5216
   38CHL1   C23 3977   3.648   6.105   5.006  0.3035  0.1553  0.1008
   38CHL1  H23A 3978   3.694   6.009   4.975 -0.1986 -0.0923  0.1230
   38CHL1  H23B 3979   3.545   6.069   5.026  1.3051 -2.2948  1.2466
   38CHL1   C24 3980   3.648   6.201   4.886  0.1638 -0.2383  0.4177
   38CHL1  H24A 3981   3.605   6.299   4.913  0.6205 -0.3610  1.6793
   38CHL1  H24B 3982   3.753   6.227   4.859  0.2882  1.9168  2.6789
   38CHL1   C25 3983   3.559   6.156   4.756 -0.5047  0.0248 -0.1388
   38CHL1   H25 3984   3.608   6.063   4.720  1.4311  0.9309 -0.0227
   38CHL1   C26 3985   3.419   6.111   4.794  0.3753  0.5954  0.5873
   38CHL1  H26A 3986   3.346   6.089   4.713  0.9270  1.8590 -0.2804
   38CHL1  H26B 3987   3.421   6.021   4.860 -0.8477 -1.2998 -1.8175
   38CHL1  H26C 3988   3.366   6.193   4.848 -2.6855  0.9716 -2.5991
   38CHL1   C27 3989   3.552   6.274   4.656 -0.0310  0.4646 -0.2618
   38CHL1  H27A 3990   3.483   6.350   4.696 -0.5071 -0.6135  1.0345
   38CHL1  H27B 3991   3.650   6.321   4.632 -0.1374 -0.4595 -2.9561
   38CHL1  H27C 3992   3.515   6.236   4.558 -2.8141  0.2042  0.7953
   39CHL1    C3 3993   3.181   6.327   5.622 -0.2531  0.0002  0.1074
   39CHL1    H3 3994   3.287   6.347   5.651 -0.9394  1.3828  1.8497
   39CHL1    O3 3995   3.122   6.261   5.728 -0.1555 -0.7801  0.0146
   39CHL1   H3' 3996   3.036   6.231   5.698 -0.4025 -0.8589  0.7880
   39CHL1    C4 3997   3.097   6.453   5.597  0.2795  0.2807  0.0404
   39CHL1   H4A 3998   2.989   6.439   5.578 -0.0433  0.9199  1.2982
   39CHL1   H4B 3999   3.095   6.526   5.681  1.5140 -0.5282  0.8232
   39CHL1    C5 4000   3.137   6.517   5.467  0.4988 -1.3588 -0.4143
   39CHL1    C6 4001   3.170   6.648   5.464 -0.9035 -0.1071  0.1380
   39CHL1    H6 4002   3.168   6.699   5.562 -0.3558 -0.6347  0.4263
   39CHL1    C7 4003   3.194   6.732   5.337 -0.1170 -0.1580 -0.1633
   39CHL1   H7A 4004   3.125   6.818   5.350 -0.6405 -0.9674  3.4624
   39CHL1   H7B 4005   3.298   6.771   5.341  0.5759 -1.7685 -1.3354
   39CHL1    C8 4006   3.166   6.654   5.206  0.0310 -0.0452  0.1827
   39CHL1    H8 4007   3.055   6.645   5.196  0.1896 -1.7340 -0.4012
   39CHL1   C14 4008   3.235   6.712   5.081 -0.2783 -0.0318  0.2090
   39CHL1   H14 4009   3.345   6.705   5.092  0.0062  1.7760 -0.9968
   39CHL1   C15 4010   3.224   6.867   5.058 -0.0206  0.4323  0.0495
   39CHL1  H15A 4011   3.127   6.910   5.091  1.3514  3.2886  0.6927
   39CHL1  H15B 4012   3.290   6.912   5.135 -2.0463 -0.3706  2.4130
   39CHL1   C16 4013   3.253   6.876   4.909 -0.3271  0.0423 -0.3768
   39CHL1  H16A 4014   3.163   6.916   4.857 -0.1253 -0.7895 -1.4017
   39CHL1  H16B 4015   3.344   6.934   4.882 -0.1724  0.4832  1.0459
   39CHL1   C17 4016   3.273   6.732   4.849 -0.4478 -0.2508 -0.6451
   39CHL1   H17 4017   3.377   6.696   4.863 -0.9839 -1.8958 -0.6711
   39CHL1   C13 4018   3.201   6.636   4.952 -0.0302 -0.0447  0.4959
   39CHL1   C18 4019   3.054   6.642   4.918 -0.2021 -0.0188  0.0409
   39CHL1  H18A 4020   3.029   6.739   4.869  1.7759  0.5669  0.1006
   39CHL1  H18B 4021   3.030   6.568   4.839 -2.1770  0.3769  0.2049
   39CHL1  H18C 4022   2.985   6.621   5.002 -0.3467  0.5752  0.0787
   39CHL1   C12 4023   3.253   6.494   4.961 -0.3745  0.0106 -0.1859
   39CHL1  H12A 4024   3.215   6.433   4.876 -1.5556 -0.6543  0.7814
   39CHL1  H12B 4025   3.363   6.486   4.950 -0.4317 -0.9600 -0.1799
   39CHL1   C11 4026   3.193   6.425   5.084 -0.5178  0.4752 -0.2919
   39CHL1  H11A 4027   3.087   6.412   5.054 -0.1089 -1.8867 -0.9421
   39CHL1  H11B 4028   3.223   6.318   5.087  0.1068  0.6741  1.4451
   39CHL1    C9 4029   3.205   6.504   5.217  0.1846 -0.1774 -0.0106
   39CHL1    H9 4030   3.314   6.509   5.238  0.2446  0.5240 -0.4565
   39CHL1   C10 4031   3.143   6.430   5.340 -0.1494  0.3558  0.4443
   39CHL1   C19 4032   3.001   6.387   5.301  0.0526  0.0953 -0.1142
   39CHL1  H19A 4033   2.993   6.302   5.230 -4.0983  0.2203 -0.0452
   39CHL1  H19B 4034   2.952   6.339   5.388 -0.1169 -0.2374 -0.3867
   39CHL1  H19C 4035   2.941   6.469   5.256  0.7318 -1.2924 -3.9842
   39CHL1    C1 4036   3.232   6.312   5.376  0.3549  0.2849 -0.4037
   39CHL1   H1A 4037   3.243   6.229   5.302 -0.3486 -1.5330  1.4377
   39CHL1   H1B 4038   3.336   6.348   5.394  0.3831 -0.5819  1.2921
   39CHL1    C2 4039   3.187   6.235   5.500  0.7843  0.4564 -0.5593
   39CHL1   H2A 4040   3.261   6.154   5.517 -1.3642 -1.7001 -1.0741
   39CHL1   H2B 4041   3.087   6.193   5.480  0.8619 -0.6639  1.1666
   39CHL1   C20 4042   3.242   6.732   4.699  0.6594 -0.0148 -0.3808
   39CHL1   H20 4043   3.132   6.751   4.698  0.1586 -2.4614  0.3017
   39CHL1   C21 4044   3.272   6.584   4.653  0.5011 -0.5679 -0.0449
   39CHL1  H21A 4045   3.191   6.517   4.690  0.1849  0.6248  1.5212
   39CHL1  H21B 4046   3.373   6.553   4.686 -0.2829 -2.5579  0.6332
   39CHL1  H21C 4047   3.259   6.582   4.543  1.1232 -0.3470 -0.1266
   39CHL1   C22 4048   3.313   6.828   4.608 -0.3748  0.2061 -0.5185
   39CHL1  H22A 4049   3.384   6.898   4.658  1.1911 -0.2635 -1.9738
   39CHL1  H22B 4050   3.385   6.764   4.552  0.3857 -0.7722  1.4835
   39CHL1   C23 4051   3.230   6.892   4.495  0.6351 -0.5743  0.0593
   39CHL1  H23A 4052   3.185   6.811   4.434  1.5261 -1.0570  0.0252
   39CHL1  H23B 4053   3.155   6.968   4.527  1.2273 -0.8573  2.2376
   39CHL1   C24 4054   3.308   6.981   4.393  0.3467 -0.5568 -0.2093
   39CHL1  H24A 4055   3.354   7.066   4.449 -1.7110  1.1916 -1.0333
   39CHL1  H24B 4056   3.400   6.928   4.361  1.4338  1.6544 -1.0150
   39CHL1   C25 4057   3.228   7.038   4.278  0.4409  0.1107  0.1944
   39CHL1   H25 4058   3.146   7.096   4.325 -0.9810  0.3748 -2.4271
   39CHL1   C26 4059   3.321   7.123   4.190  0.5622  0.3510 -0.6213
   39CHL1  H26A 4060   3.258   7.186   4.124  1.5462 -0.5301 -2.5014
   39CHL1  H26B 4061   3.386   7.182   4.258  0.1354  1.0637 -0.8277
   39CHL1  H26C 4062   3.394   7.064   4.130  0.6237 -1.0868  0.8090
   39CHL1   C27 4063   3.176   6.932   4.178  0.1830  0.1410 -0.3292
   39CHL1  H27A 4064   3.097   6.868   4.223  0.3978  0.0397 -0.0931
   39CHL1  H27B 4065   3.148   6.982   4.083 -1.3455  0.8235  0.4608
   39CHL1  H27C 4066   3.256   6.861   4.148 -0.7948 -0.5815 -1.3209
   40CHL1    C3 4067   3.473   2.756   5.562 -0.3136  0.7737  0.3322
   40CHL1    H3 4068   3.364   2.775   5.560 -0.7645 -1.2937  2.0422
   40CHL1    O3 4069   3.515   2.754   5.698  0.2330 -0.0734 -0.1382
   40CHL1   H3' 4070   3.582   2.685   5.704  2.5337  1.9647 -0.4166
   40CHL1    C4 4071   3.497   2.617   5.499 -0.2945 -0.4580  0.5487
   40CHL1   H4A 4072   3.603   2.586   5.514 -0.0164 -2.0096 -3.4406
   40CHL1   H4B 4073   3.439   2.535   5.547  0.4266 -0.5047  1.3619
   40CHL1    C5 4074   3.474   2.619   5.350  0.2574  0.1603  0.6434
   40CHL1    C6 4075   3.386   2.532   5.291  0.3429 -0.3221 -0.0955
   40CHL1    H6 4076   3.335   2.454   5.349 -1.5095  1.4756  0.8047
   40CHL1    C7 4077   3.351   2.549   5.136 -0.4003  0.0736 -0.2041
   40CHL1   H7A 4078   3.339   2.448   5.091  0.6026  0.7792 -2.1812
   40CHL1   H7B 4079   3.253   2.601   5.129 -0.3958  0.3967  1.7631
   40CHL1    C8 4080   3.462   2.616   5.054  0.7150  0.2182 -0.1095
   40CHL1    H8 4081   3.538   2.535   5.055 -0.4953 -1.0428 -2.3977
   40CHL1   C14 4082   3.406   2.644   4.909 -0.2083 -0.2338 -0.1025
   40CHL1   H14 4083   3.315   2.704   4.930 -1.0948 -1.8755  0.9715
   40CHL1   C15 4084   3.348   2.528   4.823 -0.5156 -0.1506 -0.1481
   40CHL1  H15A 4085   3.416   2.441   4.826  1.5955  1.2210 -3.1545
   40CHL1  H15B 4086   3.251   2.483   4.850  0.3041 -0.8373  1.8140
   40CHL1   C16 4087   3.362   2.576   4.675  1.4489  0.0288  0.4110
   40CHL1  H16A 4088   3.399   2.485   4.622 -2.3618 -1.4673 -0.0519
   40CHL1  H16B 4089   3.259   2.595   4.638  1.5320  1.3062  0.8034
   40CHL1   C17 4090   3.443   2.712   4.685 -0.2030  0.9007 -0.1960
   40CHL1   H17 4091   3.358   2.783   4.686 -3.1366 -2.3304  1.1089
   40CHL1   C13 4092   3.511   2.711   4.816 -0.9456 -0.4462 -0.4464
   40CHL1   C18 4093   3.636   2.625   4.811 -0.1788 -0.5092 -0.0365
   40CHL1  H18A 4094   3.707   2.681   4.746 -2.7517  1.5227 -1.2421
   40CHL1  H18B 4095   3.685   2.596   4.907 -0.6254  0.9222  0.6420
   40CHL1  H18C 4096   3.612   2.532   4.755 -3.0079 -1.2509  2.2078
   40CHL1   C12 4097   3.536   2.847   4.875 -0.3924 -0.5161  0.1341
   40CHL1  H12A 4098   3.609   2.897   4.807 -2.0865 -1.8152 -2.8340
   40CHL1  H12B 4099   3.441   2.903   4.882 -1.9299 -2.9074 -0.6529
   40CHL1   C11 4100   3.581   2.838   5.019  0.1456  0.2044 -0.2830
   40CHL1  H11A 4101   3.680   2.787   5.016 -0.7262 -1.6403  0.5532
   40CHL1  H11B 4102   3.604   2.935   5.067  0.6521 -0.4891  0.9252
   40CHL1    C9 4103   3.498   2.747   5.117 -1.1136 -0.1754  0.4078
   40CHL1    H9 4104   3.405   2.808   5.126 -0.5064  1.1046 -1.4288
   40CHL1   C10 4105   3.541   2.729   5.264 -0.4581 -0.7550  0.0651
   40CHL1   C19 4106   3.692   2.691   5.251  0.2689 -0.6000  0.1005
   40CHL1  H19A 4107   3.736   2.660   5.348  1.7246 -0.8417 -0.6135
   40CHL1  H19B 4108   3.698   2.609   5.176 -1.1074 -0.3860 -0.2794
   40CHL1  H19C 4109   3.749   2.782   5.224 -1.8579  0.1670 -2.1373
   40CHL1    C1 4110   3.534   2.865   5.335 -0.5099 -0.0553 -0.7138
   40CHL1   H1A 4111   3.610   2.933   5.289  1.4702 -0.7189  1.3669
   40CHL1   H1B 4112   3.432   2.907   5.324 -0.4360  0.6225  0.8847
   40CHL1    C2 4113   3.563   2.864   5.488 -0.3822 -0.4421 -0.2701
   40CHL1   H2A 4114   3.538   2.964   5.531 -0.1077  0.1200 -1.3961
   40CHL1   H2B 4115   3.672   2.846   5.503 -0.0147  2.3016  1.1767
   40CHL1   C20 4116   3.530   2.742   4.561 -0.5309  0.6408  0.3560
   40CHL1   H20 4117   3.595   2.830   4.580  0.9904 -0.2256 -0.6308
   40CHL1   C21 4118   3.436   2.791   4.448 -0.4442  0.3106 -0.0016
   40CHL1  H21A 4119   3.375   2.710   4.402  0.1368 -0.5485  0.7032
   40CHL1  H21B 4120   3.500   2.832   4.367  0.8423  0.7421  1.1951
   40CHL1  H21C 4121   3.370   2.874   4.482  1.0543  0.6562  2.2502
   40CHL1   C22 4122   3.626   2.631   4.497 -0.5500 -0.0151 -0.5432
   40CHL1  H22A 4123   3.731   2.642   4.533 -0.9196 -2.7420  1.7797
   40CHL1  H22B 4124   3.601   2.532   4.540  0.2844  0.5456  1.3355
   40CHL1   C23 4125   3.639   2.613   4.341 -0.2876  0.5202 -0.1008
   40CHL1  H23A 4126   3.538   2.602   4.297 -0.1096  1.8831 -0.8960
   40CHL1  H23B 4127   3.679   2.704   4.292 -1.0140  0.9372  0.0804
   40CHL1   C24 4128   3.734   2.497   4.289 -1.1369 -0.0183  0.0142
   40CHL1  H24A 4129   3.836   2.522   4.325 -2.1152  1.3247  2.0407
   40CHL1  H24B 4130   3.707   2.399   4.335  2.0425 -0.5496  0.9886
   40CHL1   C25 4131   3.732   2.485   4.136 -0.0456 -0.0294  0.7745
   40CHL1   H25 4132   3.755   2.585   4.094 -0.3054  0.2156  1.2171
   40CHL1   C26 4133   3.841   2.387   4.087 -0.4316 -0.0328  0.2492
   40CHL1  H26A 4134   3.807   2.282   4.100 -1.4252  0.2772  0.1819
   40CHL1  H26B 4135   3.860   2.417   3.981  0.4961 -0.8548  0.1649
   40CHL1  H26C 4136   3.932   2.414   4.145  0.9324 -0.2456 -1.6456
   40CHL1   C27 4137   3.594   2.440   4.085 -0.3934 -0.1499 -0.0492
   40CHL1  H27A 4138   3.516   2.517   4.104  2.1672  2.5718  0.2040
   40CHL1  H27B 4139   3.598   2.408   3.979 -0.1651 -2.6116  0.6230
   40CHL1  H27C 4140   3.577   2.339   4.129  0.6941 -1.0611 -1.6204
   41CHL1    C3 4141   6.202   2.238   5.668  0.4287  0.2332 -0.3016
   41CHL1    H3 4142   6.119   2.167   5.645  0.9907  0.1052 -2.0972
   41CHL1    O3 4143   6.210   2.277   5.807  0.0623  0.4416  0.2649
   41CHL1   H3' 4144   6.293   2.324   5.816  0.3751  0.3504 -1.7408
   41CHL1    C4 4145   6.343   2.180   5.625  0.3465 -0.1650 -0.2330
   41CHL1   H4A 4146   6.425   2.249   5.653  0.7137 -0.1778 -1.2512
   41CHL1   H4B 4147   6.366   2.088   5.683  1.7385  0.9854  1.1244
   41CHL1    C5 4148   6.360   2.159   5.478  0.7682 -0.6362 -1.1688
   41CHL1    C6 4149   6.392   2.035   5.430 -0.4665 -0.3192 -0.1687
   41CHL1    H6 4150   6.413   1.948   5.495 -1.1231 -1.8554 -1.9215
   41CHL1    C7 4151   6.400   2.002   5.285 -0.1267  0.1824  0.0312
   41CHL1   H7A 4152   6.483   1.930   5.268  1.1363  1.0542  2.0478
   41CHL1   H7B 4153   6.311   1.942   5.258  0.1225 -0.4541  0.5681
   41CHL1    C8 4154   6.404   2.133   5.198 -0.5104  0.3790 -0.1633
   41CHL1    H8 4155   6.506   2.177   5.209 -0.3810 -0.1985  1.2361
   41CHL1   C14 4156   6.389   2.099   5.051  0.0614 -1.4254  0.2060
   41CHL1   H14 4157   6.295   2.041   5.050  0.7628 -2.5943 -1.3805
   41CHL1   C15 4158   6.495   2.003   4.988  0.2534  0.5861  0.7252
   41CHL1  H15A 4159   6.597   2.042   5.009 -0.1113  2.1591 -0.2505
   41CHL1  H15B 4160   6.481   1.900   5.026 -0.7077  0.0602 -0.9217
   41CHL1   C16 4161   6.468   2.016   4.834  0.2900 -0.3131 -0.6501
   41CHL1  H16A 4162   6.561   2.037   4.776  0.8871  0.7541  0.6472
   41CHL1  H16B 4163   6.430   1.921   4.791 -0.8430 -0.7754  1.2578
   41CHL1   C17 4164   6.368   2.138   4.819 -0.0158 -0.7476 -0.2415
   41CHL1   H17 4165   6.262   2.104   4.814 -1.2611  1.7882  3.8442
   41CHL1   C13 4166   6.371   2.219   4.950 -0.3260 -0.1362 -0.3641
   41CHL1   C18 4167   6.498   2.315   4.948  0.1245  0.5084  0.3453
   41CHL1  H18A 4168   6.464   2.405   4.893  2.7052  1.8934  0.8800
   41CHL1  H18B 4169   6.523   2.341   5.054 -1.6915  1.7718  0.5239
   41CHL1  H18C 4170   6.583   2.265   4.897 -1.0744 -2.1779  0.8027
   41CHL1   C12 4171   6.242   2.292   5.003  0.1297 -0.1794 -0.2308
   41CHL1  H12A 4172   6.224   2.390   4.955  0.6508 -0.7699 -1.6788
   41CHL1  H12B 4173   6.147   2.235   4.997 -1.0137  1.6419 -0.1848
   41CHL1   C11 4174   6.262   2.341   5.154 -0.0019  0.2991  0.9122
   41CHL1  H11A 4175   6.341   2.419   5.152 -1.3241  1.7387  1.8402
   41CHL1  H11B 4176   6.164   2.390   5.171  0.2017  1.8676 -1.8219
   41CHL1    C9 4177   6.300   2.231   5.249  0.0060 -0.2442  0.1998
   41CHL1    H9 4178   6.213   2.161   5.248  0.2335 -0.5408  0.8924
   41CHL1   C10 4179   6.313   2.282   5.394 -0.5482  0.0454 -0.3668
   41CHL1   C19 4180   6.423   2.391   5.391 -0.3126 -0.6823 -0.4745
   41CHL1  H19A 4181   6.438   2.432   5.493 -1.5981  1.6534 -1.1551
   41CHL1  H19B 4182   6.516   2.371   5.333 -0.9516 -1.1829 -1.3564
   41CHL1  H19C 4183   6.383   2.486   5.350 -1.0161 -1.5835 -1.9641
   41CHL1    C1 4184   6.179   2.345   5.441 -0.0358  0.3287  0.4887
   41CHL1   H1A 4185   6.168   2.445   5.393 -0.1081  0.6475  1.1586
   41CHL1   H1B 4186   6.096   2.277   5.413  1.0849 -1.7460  1.9493
   41CHL1    C2 4187   6.176   2.369   5.589 -0.5184  0.3727 -0.4646
   41CHL1   H2A 4188   6.085   2.418   5.628 -0.1403 -0.6262  1.8814
   41CHL1   H2B 4189   6.257   2.433   5.629 -0.6337 -0.9390  2.1066
   41CHL1   C20 4190   6.373   2.219   4.681  0.3276  0.0646  0.5191
   41CHL1   H20 4191   6.478   2.257   4.674  0.3602 -0.3865 -2.4034
   41CHL1   C21 4192   6.286   2.348   4.677 -0.6837  0.4426 -0.3959
   41CHL1  H21A 4193   6.319   2.418   4.756  1.0091 -1.7649  0.9872
   41CHL1  H21B 4194   6.179   2.324   4.694 -0.4547 -0.5972 -0.3678
   41CHL1  H21C 4195   6.300   2.397   4.578  1.9819  0.8226  0.1062
   41CHL1   C22 4196   6.351   2.131   4.557 -0.2987  0.0496  0.3238
   41CHL1  H22A 4197   6.389   2.027   4.571 -2.1822 -0.6953  0.1457
   41CHL1  H22B 4198   6.243   2.121   4.535 -0.3942 -0.3388  0.9597
   41CHL1   C23 4199   6.398   2.187   4.418  0.2735 -0.1176  0.4000
   41CHL1  H23A 4200   6.326   2.270   4.399 -1.3517 -1.5578 -0.0197
   41CHL1  H23B 4201   6.496   2.238   4.426  0.9014 -1.1153 -0.5461
   41CHL1   C24 4202   6.376   2.087   4.297  0.1781 -0.0548  0.1644
   41CHL1  H24A 4203   6.438   1.999   4.321 -0.9564 -0.3694  2.1876
   41CHL1  H24B 4204   6.268   2.062   4.288  0.2025 -1.0204  2.0188
   41CHL1   C25 4205   6.418   2.163   4.169 -0.1272  0.4697 -0.5609
   41CHL1   H25 4206   6.366   2.260   4.159 -0.5274  0.0984 -2.7029
   41CHL1   C26 4207   6.565   2.203   4.175  0.0404 -0.6850 -0.0896
   41CHL1  H26A 4208   6.591   2.278   4.253 -3.0508  1.2960 -0.7946
   41CHL1  H26B 4209   6.625   2.111   4.194  0.8219 -0.4036 -1.0881
   41CHL1  H26C 4210   6.588   2.242   4.074 -0.0232 -0.3338  0.0296
   41CHL1   C27 4211   6.376   2.082   4.047 -0.0236  0.1879 -0.7718
   41CHL1  H27A 4212   6.403   1.974   4.053 -1.4693 -0.0981  1.4701
   41CHL1  H27B 4213   6.265   2.079   4.041  0.0118 -2.3488 -1.4542
   41CHL1  H27C 4214   6.424   2.132   3.960 -1.4236 -0.7070 -2.1130
   42CHL1    C3 4215   6.063   5.888   5.466 -0.1086  0.7568 -0.8677
   42CHL1    H3 4216   6.011   5.796   5.434  2.0467 -0.4719 -1.0669
   42CHL1    O3 4217   6.139   5.861   5.585  0.7071  0.3591 -0.2731
   42CHL1   H3' 4218   6.202   5.932   5.601 -1.2200  2.1127  0.0180
   42CHL1    C4 4219   6.147   5.938   5.351 -0.3462 -0.6743  0.2931
   42CHL1   H4A 4220   6.209   6.023   5.385 -0.4628 -0.7763  0.7745
   42CHL1   H4B 4221   6.206   5.852   5.314  0.1935 -0.9997  1.8370
   42CHL1    C5 4222   6.062   6.004   5.240  0.3229 -0.0725  0.2534
   42CHL1    C6 4223   6.066   5.959   5.113 -0.1670  0.1276 -0.0820
   42CHL1    H6 4224   6.133   5.875   5.088  1.0725 -0.2357  3.8393
   42CHL1    C7 4225   5.978   6.015   5.003 -0.0939  0.2019 -0.3950
   42CHL1   H7A 4226   6.029   6.021   4.905  1.2248  0.1314  0.2658
   42CHL1   H7B 4227   5.894   5.946   4.981 -0.4845  0.3907  0.4842
   42CHL1    C8 4228   5.919   6.153   5.046 -0.0270  0.4866 -0.3771
   42CHL1    H8 4229   6.007   6.221   5.039  1.2647 -1.2344 -1.9809
   42CHL1   C14 4230   5.817   6.196   4.938  0.8289  0.3490 -0.6407
   42CHL1   H14 4231   5.733   6.123   4.930  0.3857  0.4642  2.0606
   42CHL1   C15 4232   5.865   6.185   4.792  0.3893 -0.0054  0.3846
   42CHL1  H15A 4233   5.965   6.229   4.768 -0.6905  1.2711 -2.1611
   42CHL1  H15B 4234   5.863   6.083   4.749 -2.0208  0.4479 -0.7323
   42CHL1   C16 4235   5.759   6.267   4.722  0.2112 -0.3126 -0.6055
   42CHL1  H16A 4236   5.798   6.347   4.655 -0.4534  0.5139 -0.0170
   42CHL1  H16B 4237   5.690   6.201   4.665 -0.6059  2.6958 -3.4942
   42CHL1   C17 4238   5.664   6.333   4.832  0.1084 -0.0477 -0.0417
   42CHL1   H17 4239   5.578   6.264   4.845 -0.9349  1.4692  1.5841
   42CHL1   C13 4240   5.750   6.329   4.960 -0.0813 -0.2133 -0.2622
   42CHL1   C18 4241   5.845   6.444   4.967 -0.5249 -0.1426  0.4848
   42CHL1  H18A 4242   5.880   6.470   4.865 -1.6498  0.3574  0.2051
   42CHL1  H18B 4243   5.786   6.536   4.991 -0.0307 -0.1063  1.6341
   42CHL1  H18C 4244   5.925   6.423   5.041 -0.5707 -1.6010  0.1423
   42CHL1   C12 4245   5.675   6.304   5.092 -0.4853  0.4242 -0.4414
   42CHL1  H12A 4246   5.603   6.385   5.119 -3.1477 -2.5228  2.0794
   42CHL1  H12B 4247   5.603   6.219   5.088 -1.4423  1.2156 -0.6513
   42CHL1   C11 4248   5.774   6.279   5.204  0.4784  0.0365 -0.9008
   42CHL1  H11A 4249   5.844   6.363   5.224 -0.3585  0.8226 -1.1918
   42CHL1  H11B 4250   5.719   6.273   5.300 -1.6008  1.0406 -1.9737
   42CHL1    C9 4251   5.861   6.148   5.179 -0.6135  0.1040  0.7036
   42CHL1    H9 4252   5.783   6.068   5.185 -0.1059 -0.3247  2.2809
   42CHL1   C10 4253   5.962   6.107   5.288  0.3428 -0.5595 -0.3325
   42CHL1   C19 4254   6.044   6.232   5.341  0.9982  0.0794  0.2747
   42CHL1  H19A 4255   6.111   6.212   5.426 -0.4960 -1.1925  1.2003
   42CHL1  H19B 4256   6.093   6.282   5.254 -1.6134 -0.2367 -1.4949
   42CHL1  H19C 4257   5.971   6.308   5.376  0.8757  0.8960 -1.6031
   42CHL1    C1 4258   5.882   6.048   5.407 -0.7366 -0.2301  0.1671
   42CHL1   H1A 4259   5.824   6.135   5.445 -0.8955  0.2889 -1.1763
   42CHL1   H1B 4260   5.818   5.965   5.370  1.2798 -2.3324  1.1395
   42CHL1    C2 4261   5.973   5.999   5.518  0.4763 -0.3436 -0.4027
   42CHL1   H2A 4262   5.910   5.954   5.598  0.3927  0.6244  0.0821
   42CHL1   H2B 4263   6.032   6.080   5.565  0.3937 -0.9038  0.6866
   42CHL1   C20 4264   5.592   6.463   4.785 -0.1364  0.4053 -0.2129
   42CHL1   H20 4265   5.673   6.535   4.762  0.9800 -1.6385 -3.4655
   42CHL1   C21 4266   5.511   6.528   4.896 -0.3846 -0.2782  0.1249
   42CHL1  H21A 4267   5.564   6.556   4.990 -0.3797  0.4568 -0.0901
   42CHL1  H21B 4268   5.431   6.457   4.927  1.1743 -1.7114  1.0045
   42CHL1  H21C 4269   5.463   6.619   4.855  0.3506 -0.1651 -0.5023
   42CHL1   C22 4270   5.515   6.440   4.653 -0.2442 -0.4592 -0.4337
   42CHL1  H22A 4271   5.574   6.395   4.570  1.1746 -0.9115  0.7699
   42CHL1  H22B 4272   5.436   6.364   4.669  0.9573 -2.0417 -1.6516
   42CHL1   C23 4273   5.439   6.560   4.598  0.1424 -1.3251 -0.1304
   42CHL1  H23A 4274   5.368   6.616   4.662  1.1799  1.5308 -1.3114
   42CHL1  H23B 4275   5.522   6.630   4.573 -0.4374 -0.5949 -0.0345
   42CHL1   C24 4276   5.362   6.535   4.473 -0.1340 -0.1967  0.0280
   42CHL1  H24A 4277   5.430   6.515   4.387  1.1756  0.7899  0.7869
   42CHL1  H24B 4278   5.289   6.454   4.491  0.3246 -0.5596  0.2765
   42CHL1   C25 4279   5.278   6.660   4.422  0.2818 -0.0604  0.1797
   42CHL1   H25 4280   5.231   6.714   4.507 -0.6682 -0.6405  0.0326
   42CHL1   C26 4281   5.360   6.772   4.354  0.7499  0.4337 -0.1503
   42CHL1  H26A 4282   5.440   6.800   4.425 -0.3607  0.6700  1.0492
   42CHL1  H26B 4283   5.423   6.722   4.277  0.4462  0.6560 -0.5524
   42CHL1  H26C 4284   5.303   6.862   4.322 -0.4639 -0.1965  0.1649
   42CHL1   C27 4285   5.172   6.602   4.335 -0.0513 -0.1505 -0.6490
   42CHL1  H27A 4286   5.116   6.529   4.398  1.9338  0.7313  2.3488
   42CHL1  H27B 4287   5.109   6.691   4.312 -1.1204  0.1244  2.7829
   42CHL1  H27C 4288   5.213   6.545   4.249 -2.6605 -1.1544 -1.3179
   43CHL1    C3 4289   0.732   0.048   5.508 -1.1808 -0.2198 -0.3902
   43CHL1    H3 4290   0.677   0.144   5.496 -0.9976 -0.2380 -1.4150
   43CHL1    O3 4291   0.784   0.037   5.645  0.2461 -0.4538  0.1662
   43CHL1   H3' 4292   0.717   0.069   5.705  2.0518  2.0449  1.0266
   43CHL1    C4 4293   0.659  -0.084   5.478 -0.4711 -0.2469  0.1586
   43CHL1   H4A 4294   0.739  -0.161   5.478 -0.2286 -0.0053  0.9235
   43CHL1   H4B 4295   0.594  -0.098   5.567  1.1107 -0.8229  1.2883
   43CHL1    C5 4296   0.599  -0.070   5.339 -0.1838  0.2233 -0.5560
   43CHL1    C6 4297   0.471  -0.085   5.311  0.3041  0.2343  0.5289
   43CHL1    H6 4298   0.402  -0.115   5.392 -0.3459  1.6088  0.5063
   43CHL1    C7 4299   0.410  -0.069   5.174  0.3898 -0.1955  0.6455
   43CHL1   H7A 4300   0.340  -0.151   5.146 -0.3517  0.4913  0.4658
   43CHL1   H7B 4301   0.352   0.024   5.156  0.3965 -0.5016 -1.1634
   43CHL1    C8 4302   0.513  -0.052   5.058  0.3485 -0.1387  0.2862
   43CHL1    H8 4303   0.549  -0.154   5.032  1.0032  0.6358 -2.0439
   43CHL1   C14 4304   0.444   0.005   4.938 -0.0559  0.5200  0.0907
   43CHL1   H14 4305   0.422   0.109   4.969  1.8739  1.0849 -0.2483
   43CHL1   C15 4306   0.316  -0.060   4.883  0.1170 -0.1066  0.5721
   43CHL1  H15A 4307   0.324  -0.171   4.885 -2.2951 -0.3329  0.1589
   43CHL1  H15B 4308   0.226  -0.024   4.937  1.0745  1.5409  1.1337
   43CHL1   C16 4309   0.307  -0.010   4.737 -0.8257  1.0605  0.7513
   43CHL1  H16A 4310   0.304  -0.103   4.676  0.5925  0.1743  1.9592
   43CHL1  H16B 4311   0.216   0.048   4.710 -0.6212  1.2761  0.5240
   43CHL1   C17 4312   0.444   0.068   4.709  1.0565  0.1090  1.0141
   43CHL1   H17 4313   0.416   0.169   4.747 -1.6718 -0.2823  0.2462
   43CHL1   C13 4314   0.540   0.013   4.815  0.4333 -0.1468 -0.2763
   43CHL1   C18 4315   0.586  -0.131   4.761  0.7158 -0.4687 -0.0404
   43CHL1  H18A 4316   0.655  -0.112   4.676  1.3053 -1.7598  0.1297
   43CHL1  H18B 4317   0.640  -0.194   4.835  1.9195 -0.0123 -0.5041
   43CHL1  H18C 4318   0.500  -0.191   4.725 -2.1015  2.1590  1.8377
   43CHL1   C12 4319   0.659   0.097   4.862  0.5272 -0.1658 -1.2235
   43CHL1  H12A 4320   0.721   0.110   4.771  0.4957 -0.7768 -1.3377
   43CHL1  H12B 4321   0.627   0.201   4.884 -0.1266 -0.7259  0.7003
   43CHL1   C11 4322   0.738   0.033   4.978  0.9188  0.3436  0.2386
   43CHL1  H11A 4323   0.776  -0.068   4.952  3.5314  1.3161 -0.1181
   43CHL1  H11B 4324   0.824   0.098   5.008 -1.3588  3.0020  1.4287
   43CHL1    C9 4325   0.633   0.028   5.093 -0.7867  0.3886 -0.5737
   43CHL1    H9 4326   0.606   0.134   5.112  3.0392  1.6328 -1.3171
   43CHL1   C10 4327   0.701  -0.031   5.228  0.4378 -0.4671 -0.6528
   43CHL1   C19 4328   0.774  -0.161   5.196  0.0312  0.0762  0.1660
   43CHL1  H19A 4329   0.699  -0.232   5.153 -1.2119  1.5945 -0.2743
   43CHL1  H19B 4330   0.856  -0.149   5.122 -0.0418 -1.0598 -0.1202
   43CHL1  H19C 4331   0.824  -0.202   5.286 -1.2400 -3.5768 -0.6148
   43CHL1    C1 4332   0.813   0.073   5.273  0.4284  0.0305  0.0260
   43CHL1   H1A 4333   0.905   0.065   5.213  0.1166 -0.3927 -0.3978
   43CHL1   H1B 4334   0.788   0.181   5.262 -0.1610 -0.0092  0.8302
   43CHL1    C2 4335   0.854   0.054   5.416 -0.6345  0.1732  0.0083
   43CHL1   H2A 4336   0.918   0.139   5.448  1.9445 -2.7124  3.2225
   43CHL1   H2B 4337   0.923  -0.033   5.426 -0.2732  0.3340 -0.9393
   43CHL1   C20 4338   0.491   0.074   4.565 -0.4164 -0.5432 -0.0132
   43CHL1   H20 4339   0.491  -0.033   4.537 -1.1920 -0.0894 -1.8734
   43CHL1   C21 4340   0.627   0.129   4.533 -0.1604  0.2395  0.0211
   43CHL1  H21A 4341   0.644   0.234   4.568  1.9678 -0.2895  0.7572
   43CHL1  H21B 4342   0.644   0.121   4.424 -0.2617 -1.3708  0.0944
   43CHL1  H21C 4343   0.706   0.069   4.583 -0.7339  0.9356  1.8689
   43CHL1   C22 4344   0.386   0.152   4.479  0.3383  0.3113 -0.4563
   43CHL1  H22A 4345   0.292   0.092   4.475  1.8409 -2.1909 -0.5951
   43CHL1  H22B 4346   0.365   0.247   4.531 -0.2696 -1.6661  3.2306
   43CHL1   C23 4347   0.415   0.187   4.328  0.9020 -0.0096 -0.6276
   43CHL1  H23A 4348   0.479   0.112   4.276 -1.0946 -1.5120 -1.0575
   43CHL1  H23B 4349   0.323   0.188   4.267  1.0673  0.3559 -0.8759
   43CHL1   C24 4350   0.464   0.337   4.320  0.1260  0.2936  0.1669
   43CHL1  H24A 4351   0.377   0.396   4.355 -0.4192 -1.1234  1.2550
   43CHL1  H24B 4352   0.552   0.343   4.388 -0.8350 -0.5895  1.5314
   43CHL1   C25 4353   0.507   0.387   4.182 -0.3510 -0.7861 -0.6794
   43CHL1   H25 4354   0.613   0.365   4.156  1.0083  0.2616  3.2392
   43CHL1   C26 4355   0.426   0.321   4.068 -0.2575 -0.3521 -0.0094
   43CHL1  H26A 4356   0.322   0.358   4.074 -0.2202 -0.0829 -0.8703
   43CHL1  H26B 4357   0.448   0.378   3.975 -1.7783 -1.6278 -1.2082
   43CHL1  H26C 4358   0.444   0.212   4.061  0.6779 -0.3001  1.2910
   43CHL1   C27 4359   0.487   0.537   4.177 -1.0006  0.9762 -0.0321
   43CHL1  H27A 4360   0.538   0.584   4.090  2.4830  1.5340  2.1073
   43CHL1  H27B 4361   0.378   0.559   4.174 -0.7447  2.2916 -1.0260
   43CHL1  H27C 4362   0.541   0.568   4.269  1.7593 -1.5218 -0.6817
   44CHL1    C3 4363   0.207   2.904   5.754 -0.7220  0.0940 -0.0595
   44CHL1    H3 4364   0.172   3.005   5.726  0.8685  0.5485 -0.5360
   44CHL1    O3 4365   0.220   2.899   5.894 -0.0041 -0.0420 -0.9473
   44CHL1   H3' 4366   0.130   2.917   5.922 -0.3741 -0.1497 -2.0176
   44CHL1    C4 4367   0.110   2.800   5.710  0.5650  0.0726 -0.3067
   44CHL1   H4A 4368   0.153   2.703   5.744  3.8959  1.2864 -0.6861
   44CHL1   H4B 4369   0.012   2.814   5.760  1.6474 -0.5580  2.0997
   44CHL1    C5 4370   0.096   2.787   5.563 -0.6191 -0.3510  0.4014
   44CHL1    C6 4371  -0.020   2.802   5.503 -0.5347  0.3587  0.0312
   44CHL1    H6 4372  -0.109   2.836   5.557  0.1972  1.8116  0.3947
   44CHL1    C7 4373  -0.035   2.795   5.356 -0.1659  0.7524  0.6099
   44CHL1   H7A 4374  -0.119   2.732   5.321  1.4445 -2.7433  2.4219
   44CHL1   H7B 4375  -0.039   2.899   5.318 -0.5151  1.4373  2.4027
   44CHL1    C8 4376   0.093   2.739   5.271 -0.2629 -0.2951 -0.0383
   44CHL1    H8 4377   0.082   2.629   5.283  1.0883 -0.3201  1.1490
   44CHL1   C14 4378   0.091   2.781   5.129  0.2186  0.2163  0.2540
   44CHL1   H14 4379   0.105   2.891   5.130 -1.2085  0.4137  0.8186
   44CHL1   C15 4380  -0.043   2.778   5.043 -0.6833  0.2034  0.5999
   44CHL1  H15A 4381  -0.097   2.684   5.066  2.4008 -1.6341  1.0070
   44CHL1  H15B 4382  -0.113   2.862   5.059 -2.0258 -0.4452 -1.5100
   44CHL1   C16 4383   0.004   2.778   4.894 -0.7689  0.3615 -0.4960
   44CHL1  H16A 4384  -0.029   2.683   4.847  1.0276  0.3390 -1.8260
   44CHL1  H16B 4385  -0.034   2.866   4.837  0.3415  0.3598 -1.2612
   44CHL1   C17 4386   0.164   2.783   4.906 -0.4392 -0.7276 -0.0455
   44CHL1   H17 4387   0.170   2.893   4.917  0.3282 -0.3573 -3.2193
   44CHL1   C13 4388   0.198   2.723   5.044 -0.4409  0.2255 -0.2300
   44CHL1   C18 4389   0.189   2.570   5.023  0.0415  0.8884  0.2627
   44CHL1  H18A 4390   0.105   2.535   4.959  1.1847  0.7180 -1.1869
   44CHL1  H18B 4391   0.279   2.527   4.975 -1.8666 -1.0674 -1.7613
   44CHL1  H18C 4392   0.186   2.520   5.122  0.9146  1.0949  0.3999
   44CHL1   C12 4393   0.332   2.766   5.101  1.1281  0.6712  1.0210
   44CHL1  H12A 4394   0.409   2.716   5.039 -0.9095 -0.7617 -0.4721
   44CHL1  H12B 4395   0.332   2.876   5.083 -2.4197  0.4172 -1.5793
   44CHL1   C11 4396   0.347   2.730   5.252  0.1180 -0.8263  0.5701
   44CHL1  H11A 4397   0.367   2.621   5.261 -0.5360 -1.0604 -0.6121
   44CHL1  H11B 4398   0.437   2.785   5.287 -0.8218  0.6230  0.7960
   44CHL1    C9 4399   0.221   2.780   5.328 -0.1392 -0.8198 -0.0530
   44CHL1    H9 4400   0.219   2.890   5.313  0.6702 -0.6991  0.7063
   44CHL1   C10 4401   0.230   2.761   5.481 -0.2537  0.2854  0.0193
   44CHL1   C19 4402   0.254   2.613   5.502 -0.6465 -0.1934 -0.1289
   44CHL1  H19A 4403   0.181   2.561   5.435  0.3631  0.8747 -2.1724
   44CHL1  H19B 4404   0.354   2.589   5.461 -1.9401 -2.2736 -2.3454
   44CHL1  H19C 4405   0.249   2.592   5.611  0.7715  1.1998  0.2319
   44CHL1    C1 4406   0.354   2.845   5.543  0.2432  0.4271 -0.3122
   44CHL1   H1A 4407   0.456   2.807   5.519 -0.6036 -1.7082 -0.7022
   44CHL1   H1B 4408   0.336   2.941   5.489 -1.2611  1.2852  1.6215
   44CHL1    C2 4409   0.348   2.882   5.694 -0.0381  0.4326  0.5435
   44CHL1   H2A 4410   0.405   2.977   5.706 -0.7898  0.9890 -0.1827
   44CHL1   H2B 4411   0.410   2.805   5.744 -0.7205  0.1914  1.0347
   44CHL1   C20 4412   0.245   2.758   4.782  0.2479  0.0075  0.3916
   44CHL1   H20 4413   0.286   2.655   4.795 -0.5546 -0.5802 -1.3916
   44CHL1   C21 4414   0.366   2.845   4.772 -0.1447 -0.1052 -0.7593
   44CHL1  H21A 4415   0.449   2.813   4.706  1.9731  0.4411  1.5184
   44CHL1  H21B 4416   0.407   2.875   4.871  0.1516  1.0612 -1.2094
   44CHL1  H21C 4417   0.334   2.943   4.730 -1.0761 -0.0038  0.1347
   44CHL1   C22 4418   0.165   2.753   4.644  0.0590  0.4300 -0.0998
   44CHL1  H22A 4419   0.096   2.666   4.651  0.2542  0.1416 -1.4585
   44CHL1  H22B 4420   0.100   2.842   4.628  1.5793  1.3915 -1.1849
   44CHL1   C23 4421   0.260   2.733   4.525 -0.1703 -0.1791 -0.5111
   44CHL1  H23A 4422   0.300   2.833   4.499  1.3622 -0.1183  1.7461
   44CHL1  H23B 4423   0.337   2.658   4.553  0.6015  1.0230  0.7055
   44CHL1   C24 4424   0.187   2.668   4.405  0.3794  0.3232 -0.4146
   44CHL1  H24A 4425   0.140   2.579   4.453 -1.4661  0.6975 -1.4600
   44CHL1  H24B 4426   0.105   2.734   4.370  0.5821  0.3617 -0.8256
   44CHL1   C25 4427   0.272   2.626   4.288 -0.2539 -0.0504 -0.1984
   44CHL1   H25 4428   0.295   2.726   4.246 -0.6794 -0.5717 -1.7360
   44CHL1   C26 4429   0.399   2.559   4.335 -0.3263 -0.3265  0.4474
   44CHL1  H26A 4430   0.381   2.462   4.386  1.0122 -0.5556  0.5058
   44CHL1  H26B 4431   0.470   2.531   4.254  0.8685 -0.3156  1.4622
   44CHL1  H26C 4432   0.460   2.624   4.401  1.1351 -0.0265 -1.1267
   44CHL1   C27 4433   0.185   2.550   4.189 -0.2744  0.9346 -0.2811
   44CHL1  H27A 4434   0.240   2.497   4.109 -0.9533 -1.0650  0.5090
   44CHL1  H27B 4435   0.126   2.466   4.233 -3.2576  1.7239 -2.4055
   44CHL1  H27C 4436   0.116   2.622   4.140 -1.9966  0.3222  1.1293
   45CHL1    C3 4437   0.653   4.341   5.501 -0.2134 -0.2709 -0.4639
   45CHL1    H3 4438   0.674   4.425   5.430 -2.0327  1.1948  0.6290
   45CHL1    O3 4439   0.643   4.392   5.631  0.2396 -0.2739 -0.1873
   45CHL1   H3' 4440   0.733   4.385   5.663  0.0868 -0.5110  0.2000
   45CHL1    C4 4441   0.519   4.280   5.457 -0.1437 -0.1447 -0.1366
   45CHL1   H4A 4442   0.486   4.207   5.534  0.4023 -1.2623 -0.9297
   45CHL1   H4B 4443   0.443   4.360   5.454  0.1382  0.1966  1.4163
   45CHL1    C5 4444   0.530   4.205   5.325  0.3049  0.4796  0.3256
   45CHL1    C6 4445   0.456   4.238   5.215  0.8841 -0.5522 -0.0952
   45CHL1    H6 4446   0.393   4.327   5.229  0.1807 -1.0476 -0.0868
   45CHL1    C7 4447   0.461   4.170   5.082  0.0996 -0.1584 -0.2194
   45CHL1   H7A 4448   0.361   4.150   5.039 -1.0390  1.1958  1.6443
   45CHL1   H7B 4449   0.513   4.242   5.015  0.0130 -1.0124 -1.2220
   45CHL1    C8 4450   0.539   4.037   5.083  0.7449  0.1488  1.3795
   45CHL1    H8 4451   0.473   3.966   5.138 -0.1402  0.6260  0.9602
   45CHL1   C14 4452   0.578   3.995   4.942  0.4390 -1.5132  0.6777
   45CHL1   H14 4453   0.652   4.069   4.904 -0.9072 -0.1401  0.6420
   45CHL1   C15 4454   0.458   3.978   4.845 -0.6771  0.2409  0.2341
   45CHL1  H15A 4455   0.389   3.903   4.889  1.0906 -0.6432  1.6403
   45CHL1  H15B 4456   0.412   4.078   4.833  0.3792  0.5492 -1.7047
   45CHL1   C16 4457   0.528   3.917   4.727 -0.5063  0.9061 -0.4456
   45CHL1  H16A 4458   0.469   3.831   4.689  0.1198  0.3453 -0.1766
   45CHL1  H16B 4459   0.551   3.994   4.649 -0.4730  0.5220 -0.8193
   45CHL1   C17 4460   0.665   3.853   4.773 -0.0321  0.2371 -0.4519
   45CHL1   H17 4461   0.750   3.918   4.747  1.6415 -0.9005  1.8266
   45CHL1   C13 4462   0.655   3.868   4.930 -0.5433  0.3197  0.4730
   45CHL1   C18 4463   0.566   3.753   4.985  0.1666 -0.4125 -0.0822
   45CHL1  H18A 4464   0.481   3.720   4.921 -0.3580 -2.3166  1.4868
   45CHL1  H18B 4465   0.629   3.665   5.008 -2.5795 -2.2401  1.0736
   45CHL1  H18C 4466   0.510   3.782   5.077  1.0656  1.4011 -0.0608
   45CHL1   C12 4467   0.789   3.883   5.015  0.1200  0.0209 -0.5488
   45CHL1  H12A 4468   0.850   3.790   5.012  2.1313  1.1621  1.4578
   45CHL1  H12B 4469   0.854   3.956   4.961 -0.1178  0.4833 -0.2163
   45CHL1   C11 4470   0.756   3.922   5.160  0.1849  0.2470  0.1503
   45CHL1  H11A 4471   0.700   3.837   5.202  0.8338  0.6462  1.9101
   45CHL1  H11B 4472   0.858   3.928   5.203  0.1616 -0.4445  0.3028
   45CHL1    C9 4473   0.666   4.049   5.168  0.3193 -0.4815 -0.6159
   45CHL1    H9 4474   0.717   4.131   5.113  0.9472 -1.3746 -1.3889
   45CHL1   C10 4475   0.646   4.102   5.313 -0.2459  0.2419 -0.4887
   45CHL1   C19 4476   0.608   3.982   5.401  0.2120  0.5137  0.1114
   45CHL1  H19A 4477   0.601   4.012   5.508  0.2012 -1.9041  0.8266
   45CHL1  H19B 4478   0.507   3.940   5.383  0.4189 -0.2009  0.5892
   45CHL1  H19C 4479   0.682   3.901   5.390  1.1078  1.4172 -0.7636
   45CHL1    C1 4480   0.774   4.163   5.366 -0.1483  0.3897 -0.2982
   45CHL1   H1A 4481   0.859   4.092   5.368 -0.9780 -0.6569 -0.7615
   45CHL1   H1B 4482   0.806   4.248   5.303  0.8570  2.2502  2.5522
   45CHL1    C2 4483   0.762   4.227   5.503 -0.9478  0.0837 -0.0551
   45CHL1   H2A 4484   0.851   4.282   5.538  0.6676 -1.3000 -1.8144
   45CHL1   H2B 4485   0.734   4.151   5.578 -0.2080 -1.4603 -1.2941
   45CHL1   C20 4486   0.703   3.715   4.727  0.3847 -0.5615  0.4722
   45CHL1   H20 4487   0.628   3.648   4.773  0.4190  1.1402  3.2601
   45CHL1   C21 4488   0.842   3.669   4.772  0.1108 -0.0480  0.7029
   45CHL1  H21A 4489   0.834   3.652   4.882 -0.4540  0.6467  0.7772
   45CHL1  H21B 4490   0.912   3.755   4.767 -2.8534  2.4657 -1.6428
   45CHL1  H21C 4491   0.886   3.585   4.714  1.5030  0.5369  0.8935
   45CHL1   C22 4492   0.698   3.708   4.569  0.7208 -0.0672 -0.1202
   45CHL1  H22A 4493   0.733   3.605   4.547 -0.4094 -0.6252  0.6103
   45CHL1  H22B 4494   0.595   3.716   4.527  0.6745  3.7858  0.3063
   45CHL1   C23 4495   0.780   3.809   4.493 -0.0212  0.2048  0.3383
   45CHL1  H23A 4496   0.739   3.911   4.504  2.5016  1.5251 -1.5766
   45CHL1  H23B 4497   0.880   3.810   4.540  0.3994 -2.7376 -0.2959
   45CHL1   C24 4498   0.787   3.785   4.341  0.6248  0.1391  0.4358
   45CHL1  H24A 4499   0.860   3.852   4.290  0.7884 -0.8455 -0.6450
   45CHL1  H24B 4500   0.830   3.683   4.331  1.9085  0.7080 -0.1658
   45CHL1   C25 4501   0.653   3.810   4.264  0.1275  0.0194 -0.8788
   45CHL1   H25 4502   0.587   3.723   4.283 -0.0325 -0.3407 -2.8136
   45CHL1   C26 4503   0.587   3.935   4.308  0.7483  0.0307 -0.2478
   45CHL1  H26A 4504   0.653   4.022   4.288 -0.5940  1.0801 -0.2445
   45CHL1  H26B 4505   0.488   3.942   4.258  1.0075  1.6815 -0.5865
   45CHL1  H26C 4506   0.564   3.935   4.417 -1.3633 -0.5618 -0.6454
   45CHL1   C27 4507   0.679   3.800   4.110 -1.1134  1.3330 -0.5400
   45CHL1  H27A 4508   0.758   3.874   4.084 -0.2657 -0.0504 -2.1013
   45CHL1  H27B 4509   0.714   3.699   4.081 -0.8792  1.0112  0.7912
   45CHL1  H27C 4510   0.587   3.832   4.057 -0.8138  1.7573 -0.8083
   46CHL1    C3 4511   2.165   4.147   3.896 -0.6628  0.4615  0.2169
   46CHL1    H3 4512   2.261   4.111   3.853 -0.8753  1.5230 -1.2234
   46CHL1    O3 4513   2.159   4.138   4.035  0.0422 -0.3989 -0.0308
   46CHL1   H3' 4514   2.094   4.204   4.061  1.3283  0.6749  0.6165
   46CHL1    C4 4515   2.160   4.300   3.847  0.3118  0.6682 -0.0482
   46CHL1   H4A 4516   2.072   4.340   3.900 -0.4195  0.3724 -1.0189
   46CHL1   H4B 4517   2.246   4.360   3.883  1.0186 -0.6030  0.4715
   46CHL1    C5 4518   2.153   4.313   3.695  0.3803  0.1619  0.7617
   46CHL1    C6 4519   2.238   4.389   3.623 -0.0646 -0.0398 -0.3517
   46CHL1    H6 4520   2.318   4.442   3.677  0.3153  1.7609 -2.5294
   46CHL1    C7 4521   2.226   4.415   3.477  0.1875  0.0124 -0.1168
   46CHL1   H7A 4522   2.237   4.525   3.462  0.6129  0.0660  0.5517
   46CHL1   H7B 4523   2.318   4.380   3.425  0.8362 -0.1852  1.1390
   46CHL1    C8 4524   2.090   4.368   3.415 -0.5322  0.0961 -0.7490
   46CHL1    H8 4525   2.007   4.436   3.442 -1.5134 -0.6522 -1.8040
   46CHL1   C14 4526   2.099   4.361   3.259  0.0642 -0.0890  0.4104
   46CHL1   H14 4527   2.181   4.287   3.249  2.4118  2.3159  0.9847
   46CHL1   C15 4528   2.147   4.480   3.179  0.1350 -0.0149 -0.2623
   46CHL1  H15A 4529   2.084   4.570   3.196 -2.0903 -1.1403 -2.0250
   46CHL1  H15B 4530   2.254   4.504   3.196  0.6625 -1.5118 -1.2410
   46CHL1   C16 4531   2.133   4.425   3.036 -0.4860  0.5709 -0.0986
   46CHL1  H16A 4532   2.102   4.491   2.952 -1.9518 -3.1821 -2.7641
   46CHL1  H16B 4533   2.232   4.387   3.003 -0.2085  2.3994 -1.5512
   46CHL1   C17 4534   2.031   4.299   3.039  0.2616  0.8568 -0.0787
   46CHL1   H17 4535   2.084   4.202   3.040  0.0697  0.7449 -0.5909
   46CHL1   C13 4536   1.972   4.307   3.190 -0.0001  0.4484  0.4627
   46CHL1   C18 4537   1.854   4.409   3.195  0.2737  0.0780 -0.5303
   46CHL1  H18A 4538   1.817   4.430   3.298 -2.0290  1.4762 -1.5338
   46CHL1  H18B 4539   1.886   4.503   3.146  0.5320  0.7333  0.8301
   46CHL1  H18C 4540   1.766   4.371   3.139  0.8494 -2.5281  0.2039
   46CHL1   C12 4541   1.932   4.174   3.246 -0.0276 -0.3959 -0.3428
   46CHL1  H12A 4542   1.834   4.128   3.223  0.0982 -0.7698 -0.1444
   46CHL1  H12B 4543   2.002   4.095   3.212 -1.5913 -2.2561  0.5666
   46CHL1   C11 4544   1.926   4.176   3.399 -0.5605  0.1371  0.1768
   46CHL1  H11A 4545   1.844   4.248   3.420  0.8919  1.8105  0.3612
   46CHL1  H11B 4546   1.898   4.087   3.459  0.9944  0.3056  1.2116
   46CHL1    C9 4547   2.052   4.227   3.470  0.3080  0.0441 -0.1712
   46CHL1    H9 4548   2.131   4.155   3.442  0.8675  1.1721 -1.6011
   46CHL1   C10 4549   2.048   4.223   3.626  0.3919 -0.2833 -0.1180
   46CHL1   C19 4550   1.922   4.292   3.671  0.3798 -0.0151 -0.6682
   46CHL1  H19A 4551   1.836   4.231   3.636 -0.4622  1.9564 -2.2689
   46CHL1  H19B 4552   1.899   4.309   3.778 -1.4207 -0.8193 -0.8917
   46CHL1  H19C 4553   1.901   4.391   3.625 -2.8513  0.1656  0.9107
   46CHL1    C1 4554   2.063   4.078   3.675  0.2481  0.3179 -0.5991
   46CHL1   H1A 4555   1.981   4.016   3.632  0.0923  0.3538 -0.3558
   46CHL1   H1B 4556   2.151   4.032   3.626  0.7794 -1.0204  1.4716
   46CHL1    C2 4557   2.055   4.066   3.834 -0.4144  0.3094  0.0161
   46CHL1   H2A 4558   2.062   3.964   3.877  2.8172  0.8229  0.9721
   46CHL1   H2B 4559   1.961   4.108   3.876 -0.0685  2.2770 -1.0605
   46CHL1   C20 4560   1.939   4.286   2.917 -0.3329 -0.4152  0.8423
   46CHL1   H20 4561   1.888   4.384   2.903  0.4941  0.2189  2.1110
   46CHL1   C21 4562   1.831   4.174   2.918 -1.0598 -0.5342 -0.2209
   46CHL1  H21A 4563   1.788   4.173   3.021  3.4456 -0.1250  1.9517
   46CHL1  H21B 4564   1.883   4.076   2.915 -0.3232 -0.1255 -1.5138
   46CHL1  H21C 4565   1.760   4.169   2.834 -1.2458 -2.4263  0.0062
   46CHL1   C22 4566   2.021   4.275   2.788 -0.0296  0.0620  0.2973
   46CHL1  H22A 4567   2.094   4.358   2.780  0.7026 -0.6380 -0.5136
   46CHL1  H22B 4568   2.076   4.178   2.791  0.1106  0.0102 -2.2201
   46CHL1   C23 4569   1.952   4.301   2.652  0.6652 -1.0935  0.2291
   46CHL1  H23A 4570   1.863   4.236   2.643  1.2512 -1.9409  0.4074
   46CHL1  H23B 4571   1.926   4.407   2.634 -0.1910 -1.3427 -0.0258
   46CHL1   C24 4572   2.056   4.271   2.540 -0.2957  0.0528  0.0576
   46CHL1  H24A 4573   2.152   4.326   2.548  0.1435 -0.8278  1.0218
   46CHL1  H24B 4574   2.094   4.167   2.541  0.2077  0.2429  0.7942
   46CHL1   C25 4575   1.995   4.289   2.403 -0.5726  0.7003  0.9058
   46CHL1   H25 4576   1.964   4.396   2.391 -1.7638  0.1014 -2.5348
   46CHL1   C26 4577   2.103   4.266   2.294 -0.0273  0.6002  0.3933
   46CHL1  H26A 4578   2.067   4.270   2.189  0.5197 -0.7945  0.1306
   46CHL1  H26B 4579   2.182   4.344   2.304  0.3389  0.3058 -0.2133
   46CHL1  H26C 4580   2.150   4.168   2.315 -2.0827 -0.4349  0.4056
   46CHL1   C27 4581   1.871   4.200   2.374 -0.0046 -0.0419  0.2214
   46CHL1  H27A 4582   1.832   4.227   2.273 -0.2561 -2.1225 -0.2699
   46CHL1  H27B 4583   1.901   4.094   2.364 -1.9543 -0.5069 -1.2313
   46CHL1  H27C 4584   1.790   4.211   2.449  0.0102  0.7374  0.1304
   47CHL1    C3 4585   5.298   3.116   6.047 -0.2360 -0.5352  0.1792
   47CHL1    H3 4586   5.297   3.226   6.056 -0.5210 -0.4735 -0.5405
   47CHL1    O3 4587   5.327   3.049   6.172  0.5136 -0.1251  0.4365
   47CHL1   H3' 4588   5.414   3.011   6.156  0.5684  0.7915 -1.6678
   47CHL1    C4 4589   5.163   3.075   5.996  0.9704 -0.1278  0.2734
   47CHL1   H4A 4590   5.161   2.964   5.995  0.9239 -0.1322 -0.9285
   47CHL1   H4B 4591   5.086   3.111   6.068 -0.6206  1.6824 -2.1214
   47CHL1    C5 4592   5.126   3.128   5.856  0.0296  0.1474 -0.1312
   47CHL1    C6 4593   5.020   3.206   5.840  0.4692 -0.6516  0.5015
   47CHL1    H6 4594   4.948   3.218   5.921  0.5692 -0.6541  0.5908
   47CHL1    C7 4595   4.978   3.273   5.708 -0.5773 -0.6183  0.4195
   47CHL1   H7A 4596   4.870   3.268   5.687 -0.7207  3.1379 -0.5598
   47CHL1   H7B 4597   4.989   3.384   5.712 -3.3237 -0.2901  0.3069
   47CHL1    C8 4598   5.058   3.215   5.592 -0.6398 -0.4655  0.4896
   47CHL1    H8 4599   5.015   3.116   5.566  1.4878 -0.9936 -1.2958
   47CHL1   C14 4600   5.043   3.300   5.464  0.0022  0.8253 -0.0656
   47CHL1   H14 4601   5.088   3.399   5.486  1.0325  0.6949 -1.4385
   47CHL1   C15 4602   4.897   3.338   5.420 -0.4999 -0.4358 -0.0477
   47CHL1  H15A 4603   4.837   3.248   5.446 -2.1186  0.1079 -1.6633
   47CHL1  H15B 4604   4.840   3.425   5.459 -1.3392 -0.3446 -1.3909
   47CHL1   C16 4605   4.905   3.358   5.272 -0.4986  0.5664 -0.1945
   47CHL1  H16A 4606   4.843   3.283   5.218 -0.5437 -0.2598  0.9702
   47CHL1  H16B 4607   4.869   3.457   5.237 -0.4833 -0.1939 -2.5671
   47CHL1   C17 4608   5.055   3.334   5.238  0.1975 -0.3149 -0.5364
   47CHL1   H17 4609   5.103   3.431   5.260 -1.3543  0.4706 -0.5150
   47CHL1   C13 4610   5.109   3.245   5.344  0.4538  0.4038 -0.4544
   47CHL1   C18 4611   5.058   3.098   5.321  0.6687  0.1772 -0.1626
   47CHL1  H18A 4612   5.094   3.069   5.220  0.0438  1.1424 -0.6757
   47CHL1  H18B 4613   5.099   3.025   5.394 -1.5839 -2.2469 -1.1626
   47CHL1  H18C 4614   4.948   3.108   5.319  0.8153  3.4372 -3.3801
   47CHL1   C12 4615   5.262   3.255   5.373 -0.6202  0.3675 -1.0764
   47CHL1  H12A 4616   5.324   3.211   5.292 -2.2737 -0.1362 -2.1260
   47CHL1  H12B 4617   5.295   3.361   5.379  0.9122 -0.1188 -0.1813
   47CHL1   C11 4618   5.299   3.176   5.503 -0.2584 -0.5422  0.3016
   47CHL1  H11A 4619   5.297   3.069   5.475  1.4988 -0.5251 -0.0318
   47CHL1  H11B 4620   5.404   3.190   5.537  0.3774 -0.7629 -1.4760
   47CHL1    C9 4621   5.206   3.199   5.625  0.2335  0.5256 -0.3570
   47CHL1    H9 4622   5.243   3.296   5.664 -0.1084  0.3493  0.4350
   47CHL1   C10 4623   5.234   3.105   5.749 -0.3807 -0.2177 -0.1438
   47CHL1   C19 4624   5.210   2.950   5.712  0.6113  0.0610 -0.1082
   47CHL1  H19A 4625   5.242   2.883   5.793 -0.0168  0.2578  0.3149
   47CHL1  H19B 4626   5.101   2.936   5.696  0.4797 -0.3012  1.0353
   47CHL1  H19C 4627   5.259   2.919   5.617  1.8064  1.0626  0.1638
   47CHL1    C1 4628   5.377   3.129   5.806  0.5008  0.1021  0.5939
   47CHL1   H1A 4629   5.450   3.091   5.732  0.0677  0.7992 -0.2119
   47CHL1   H1B 4630   5.382   3.240   5.818 -2.6193  0.8148 -2.6531
   47CHL1    C2 4631   5.408   3.064   5.941  0.3758 -0.1381 -0.2590
   47CHL1   H2A 4632   5.512   3.076   5.978  1.0186 -0.3037 -1.9351
   47CHL1   H2B 4633   5.390   2.955   5.927  1.2541 -0.3525  0.2227
   47CHL1   C20 4634   5.085   3.304   5.087  0.0301  0.6845 -0.3376
   47CHL1   H20 4635   5.032   3.208   5.068  0.6413  0.0147  1.1975
   47CHL1   C21 4636   5.231   3.267   5.057  0.1133  0.6183  0.3009
   47CHL1  H21A 4637   5.287   3.360   5.077  0.9374  0.0173  0.8443
   47CHL1  H21B 4638   5.242   3.233   4.951  1.5732  2.2545 -0.1060
   47CHL1  H21C 4639   5.258   3.178   5.117 -1.2908 -0.5164 -0.6523
   47CHL1   C22 4640   5.033   3.407   4.978  0.0096 -0.0651 -0.1631
   47CHL1  H22A 4641   4.922   3.414   4.986  0.1426  0.1129  1.8227
   47CHL1  H22B 4642   5.069   3.508   5.007  0.8737 -0.8217  1.4893
   47CHL1   C23 4643   5.071   3.384   4.832 -0.1091  0.1415  0.1579
   47CHL1  H23A 4644   5.179   3.401   4.814 -0.5904  2.0357 -1.3197
   47CHL1  H23B 4645   5.037   3.280   4.812 -1.9712  1.0342 -1.6556
   47CHL1   C24 4646   5.004   3.486   4.732  0.0097 -0.1424 -0.2457
   47CHL1  H24A 4647   4.901   3.501   4.770  0.7541 -1.0075  2.2474
   47CHL1  H24B 4648   5.076   3.571   4.735  0.1184 -0.2731  1.1116
   47CHL1   C25 4649   4.998   3.444   4.592 -0.3622  0.2046  0.1177
   47CHL1   H25 4650   4.946   3.346   4.602  0.3770 -0.1382  0.6956
   47CHL1   C26 4651   4.923   3.537   4.491  0.5356  0.0622 -0.3477
   47CHL1  H26A 4652   4.817   3.552   4.521  0.3919 -1.3289 -0.0900
   47CHL1  H26B 4653   4.981   3.631   4.487 -1.4460  1.2833 -1.9851
   47CHL1  H26C 4654   4.922   3.494   4.389  1.6747 -3.4239  0.9607
   47CHL1   C27 4655   5.139   3.419   4.534  0.0348  0.1314 -0.4786
   47CHL1  H27A 4656   5.193   3.514   4.555  3.0447 -1.4618 -0.3855
   47CHL1  H27B 4657   5.190   3.335   4.587 -1.9987 -0.1021  1.2202
   47CHL1  H27C 4658   5.130   3.395   4.426 -1.1669 -0.0811 -0.3387
   48CHL1    C3 4659   5.629   4.955   5.701  0.6277  0.4334  0.1021
   48CHL1    H3 4660   5.736   4.976   5.723  1.2207 -1.3490 -0.8090
   48CHL1    O3 4661   5.545   4.963   5.816  0.1221 -0.5276  0.1590
   48CHL1   H3' 4662   5.563   4.894   5.879 -1.5042  0.7986  2.2038
   48CHL1    C4 4663   5.582   5.058   5.603  0.5671  0.8243  0.1974
   48CHL1   H4A 4664   5.471   5.055   5.596  0.4662  3.2866  0.1346
   48CHL1   H4B 4665   5.596   5.160   5.644 -2.0121  0.7040  1.5841
   48CHL1    C5 4666   5.652   5.039   5.469 -0.1835 -0.8770 -0.2295
   48CHL1    C6 4667   5.704   5.147   5.402 -0.2462 -0.0554 -0.0959
   48CHL1    H6 4668   5.697   5.247   5.449 -0.2117  0.6239 -1.4747
   48CHL1    C7 4669   5.762   5.145   5.264  0.2841  0.7033  0.2074
   48CHL1   H7A 4670   5.722   5.236   5.212  1.8535  1.5837  0.4828
   48CHL1   H7B 4671   5.873   5.151   5.268  0.2194  1.4828  1.3602
   48CHL1    C8 4672   5.729   5.016   5.189 -0.1956  0.1210  0.1124
   48CHL1    H8 4673   5.623   5.035   5.165 -0.2470  1.1340  1.0343
   48CHL1   C14 4674   5.813   5.000   5.061 -0.2494 -0.3214  0.5303
   48CHL1   H14 4675   5.914   4.973   5.097 -0.5654  0.4312  2.0757
   48CHL1   C15 4676   5.816   5.114   4.951 -0.3843 -0.0329 -0.0668
   48CHL1  H15A 4677   5.709   5.121   4.925 -1.4835 -5.5973  1.7992
   48CHL1  H15B 4678   5.865   5.209   4.982 -3.2450  0.9924  1.7193
   48CHL1   C16 4679   5.888   5.043   4.834 -0.0604 -0.4218 -0.0935
   48CHL1  H16A 4680   5.855   5.077   4.733  2.6054 -0.8024 -1.1821
   48CHL1  H16B 4681   5.997   5.062   4.842 -0.2297  1.8987 -1.9795
   48CHL1   C17 4682   5.871   4.888   4.851  0.2508 -0.4225  0.0276
   48CHL1   H17 4683   5.973   4.849   4.875  0.9517  1.0533 -0.4676
   48CHL1   C13 4684   5.782   4.867   4.979  0.4334  0.1401  0.3877
   48CHL1   C18 4685   5.627   4.873   4.928  0.1269  0.1958 -0.5806
   48CHL1  H18A 4686   5.593   4.780   4.877  0.2627 -0.4196  0.4136
   48CHL1  H18B 4687   5.557   4.884   5.014  0.9170  1.7478 -0.1015
   48CHL1  H18C 4688   5.610   4.958   4.859  1.0967  2.3308  1.6728
   48CHL1   C12 4689   5.809   4.744   5.067 -0.1119  0.3363  0.1133
   48CHL1  H12A 4690   5.789   4.650   5.011  0.3018  0.2009  0.1926
   48CHL1  H12B 4691   5.919   4.746   5.075  0.0392 -1.4682 -1.0336
   48CHL1   C11 4692   5.731   4.756   5.202  0.1212  0.2053 -0.2704
   48CHL1  H11A 4693   5.626   4.745   5.166 -0.3895 -1.2509  1.4887
   48CHL1  H11B 4694   5.748   4.669   5.269 -2.0469 -0.7540 -0.8719
   48CHL1    C9 4695   5.744   4.891   5.279 -0.1684 -0.5966 -0.7266
   48CHL1    H9 4696   5.852   4.897   5.305  0.0239  0.7521 -1.7445
   48CHL1   C10 4697   5.663   4.893   5.409 -0.3773  0.1696 -0.7391
   48CHL1   C19 4698   5.516   4.846   5.376  0.6103 -0.2898  0.0496
   48CHL1  H19A 4699   5.518   4.736   5.358  1.9316 -0.3539  0.4493
   48CHL1  H19B 4700   5.444   4.860   5.459 -0.0088 -2.4220 -0.0634
   48CHL1  H19C 4701   5.474   4.902   5.290 -2.6053 -1.6911  0.5590
   48CHL1    C1 4702   5.718   4.801   5.518 -0.6598  0.4240 -0.5632
   48CHL1   H1A 4703   5.712   4.695   5.487 -0.0357  0.0273  0.5881
   48CHL1   H1B 4704   5.821   4.829   5.551 -0.3135 -0.8796 -0.5014
   48CHL1    C2 4705   5.631   4.808   5.646  0.0120  0.2367  0.0275
   48CHL1   H2A 4706   5.672   4.738   5.722  1.6142  3.0969  1.9996
   48CHL1   H2B 4707   5.530   4.775   5.612 -0.7953  2.1265  0.4460
   48CHL1   C20 4708   5.830   4.814   4.725  0.2331 -0.5092  0.0731
   48CHL1   H20 4709   5.725   4.844   4.707 -0.4750 -2.0423  1.3812
   48CHL1   C21 4710   5.832   4.661   4.736  0.1698  0.1875  0.2339
   48CHL1  H21A 4711   5.929   4.631   4.782 -0.1077 -1.9176 -0.4211
   48CHL1  H21B 4712   5.744   4.625   4.794 -0.3105  0.8801 -0.0596
   48CHL1  H21C 4713   5.824   4.607   4.639 -0.8637  1.9419 -0.6920
   48CHL1   C22 4714   5.911   4.855   4.599 -0.2283 -0.4355 -0.8328
   48CHL1  H22A 4715   5.862   4.800   4.516 -0.4827 -0.1589 -0.8667
   48CHL1  H22B 4716   5.904   4.965   4.584 -1.0685 -0.4281 -0.4264
   48CHL1   C23 4717   6.067   4.829   4.622  0.0522  0.0758  0.0571
   48CHL1  H23A 4718   6.101   4.896   4.704 -0.9420 -1.0873  1.4867
   48CHL1  H23B 4719   6.082   4.722   4.649 -1.2274 -0.1556 -0.1022
   48CHL1   C24 4720   6.139   4.860   4.491 -0.4186  0.1500 -0.0192
   48CHL1  H24A 4721   6.085   4.830   4.399 -1.1102  2.4418 -0.4326
   48CHL1  H24B 4722   6.133   4.968   4.466 -0.0707  0.2357  0.2503
   48CHL1   C25 4723   6.285   4.820   4.481  0.4026 -0.2244  0.3430
   48CHL1   H25 4724   6.340   4.839   4.575  0.3371  0.2105  0.2964
   48CHL1   C26 4725   6.303   4.671   4.449 -0.3769 -0.1167 -0.4081
   48CHL1  H26A 4726   6.237   4.648   4.363 -0.8394 -0.0493 -0.0759
   48CHL1  H26B 4727   6.409   4.655   4.420 -0.7262  1.4723 -2.8613
   48CHL1  H26C 4728   6.278   4.604   4.535 -1.6712 -0.6724 -1.1813
   48CHL1   C27 4729   6.362   4.903   4.377 -0.2156  0.2670  0.6604
   48CHL1  H27A 4730   6.338   5.011   4.382 -0.5597  0.1416  4.5883
   48CHL1  H27B 4731   6.472   4.896   4.391  0.1933 -2.0533 -2.4695
   48CHL1  H27C 4732   6.343   4.865   4.274  3.2400 -0.1597  0.0494
   49CHL1    C3 4733   4.126   2.923   3.046  0.2537 -0.2531  0.2222
   49CHL1    H3 4734   4.094   2.821   3.076  1.7754 -1.1638 -1.1223
   49CHL1    O3 4735   4.106   2.932   2.902 -0.2194 -0.0072 -0.6967
   49CHL1   H3' 4736   4.146   3.017   2.888 -2.7534  1.8826  2.2572
   49CHL1    C4 4737   4.036   3.027   3.107  0.3945 -0.1009 -0.2834
   49CHL1   H4A 4738   4.064   3.123   3.058 -0.0483  0.3664  0.3614
   49CHL1   H4B 4739   3.930   3.000   3.089  0.2031 -0.5535  1.4027
   49CHL1    C5 4740   4.061   3.038   3.259  0.1788 -0.8385  0.5749
   49CHL1    C6 4741   3.958   3.015   3.345 -0.0879  0.4189  0.0661
   49CHL1    H6 4742   3.863   2.989   3.295 -0.7007 -1.8832  2.2198
   49CHL1    C7 4743   3.969   3.027   3.493 -0.2562 -0.2894  0.2870
   49CHL1   H7A 4744   3.884   3.084   3.536  0.8679 -0.0105  2.2472
   49CHL1   H7B 4745   3.977   2.927   3.539  0.7956  0.1142  1.0046
   49CHL1    C8 4746   4.100   3.110   3.534 -0.2919 -0.1373 -0.2840
   49CHL1    H8 4747   4.080   3.217   3.511 -0.9071 -0.3229 -0.6289
   49CHL1   C14 4748   4.115   3.102   3.684 -0.5612  0.4719 -0.7763
   49CHL1   H14 4749   4.121   2.994   3.708  0.7344  0.2575 -1.9150
   49CHL1   C15 4750   4.009   3.153   3.772  0.3768  1.3418 -0.2389
   49CHL1  H15A 4751   3.975   3.253   3.739 -0.8023  0.5481 -1.5251
   49CHL1  H15B 4752   3.916   3.095   3.791  1.3053 -0.2131 -0.3007
   49CHL1   C16 4753   4.080   3.162   3.905 -0.0659  0.7468  0.3167
   49CHL1  H16A 4754   4.075   3.261   3.955  1.4805 -0.2505  2.6250
   49CHL1  H16B 4755   4.046   3.083   3.975 -1.2324 -0.4558 -1.5301
   49CHL1   C17 4756   4.231   3.126   3.881 -0.0289 -0.1798  0.5393
   49CHL1   H17 4757   4.251   3.016   3.877  2.3840  0.2234 -0.6038
   49CHL1   C13 4758   4.252   3.165   3.732 -0.2241 -0.2053  0.2635
   49CHL1   C18 4759   4.257   3.325   3.723  0.1386 -0.4374  1.0794
   49CHL1  H18A 4760   4.158   3.373   3.739  0.3482  0.3696  0.0179
   49CHL1  H18B 4761   4.333   3.353   3.799  2.9065 -2.3963 -0.7624
   49CHL1  H18C 4762   4.295   3.361   3.625 -1.0623  2.0805  1.4763
   49CHL1   C12 4763   4.372   3.094   3.661 -0.0595 -0.6605  0.2515
   49CHL1  H12A 4764   4.462   3.135   3.712 -0.1006  1.4136 -1.2130
   49CHL1  H12B 4765   4.375   2.986   3.685 -0.0500 -0.7182 -0.0111
   49CHL1   C11 4766   4.357   3.119   3.508  0.2352  0.5046 -0.4659
   49CHL1  H11A 4767   4.365   3.227   3.483  0.7855  0.8494  1.0769
   49CHL1  H11B 4768   4.443   3.070   3.458 -2.6065 -3.4065 -2.0112
   49CHL1    C9 4769   4.227   3.064   3.450 -0.0183  0.1901  0.4040
   49CHL1    H9 4770   4.226   2.955   3.469 -1.1229 -0.1350 -1.2421
   49CHL1   C10 4771   4.207   3.074   3.294  0.2655  0.0540 -0.4963
   49CHL1   C19 4772   4.249   3.223   3.246 -0.3683  0.3866  0.6327
   49CHL1  H19A 4773   4.224   3.247   3.141 -2.9439 -1.5811  0.6952
   49CHL1  H19B 4774   4.197   3.299   3.308 -0.7124  1.7797 -1.3066
   49CHL1  H19C 4775   4.360   3.225   3.256 -0.3428 -0.6619  0.7213
   49CHL1    C1 4776   4.296   2.971   3.229  0.2732  0.0680  0.2656
   49CHL1   H1A 4777   4.405   2.990   3.235  0.3861 -0.5168  0.1348
   49CHL1   H1B 4778   4.281   2.879   3.290 -1.3162 -0.6534 -1.1434
   49CHL1    C2 4779   4.275   2.943   3.077 -0.4926  0.0978 -0.9609
   49CHL1   H2A 4780   4.330   2.861   3.026  1.0261  1.5126 -1.6795
   49CHL1   H2B 4781   4.298   3.035   3.019 -0.6417  1.0654  0.4698
   49CHL1   C20 4782   4.312   3.170   4.002 -0.2069  0.1212  0.2023
   49CHL1   H20 4783   4.418   3.178   3.967 -0.6547 -1.5967 -1.7593
   49CHL1   C21 4784   4.314   3.058   4.113 -0.6020 -0.3210  0.0993
   49CHL1  H21A 4785   4.368   3.097   4.202 -1.8694 -0.6166  1.0422
   49CHL1  H21B 4786   4.356   2.959   4.086 -0.4545 -0.7694  1.8495
   49CHL1  H21C 4787   4.213   3.047   4.160 -0.5876 -0.0801  0.1859
   49CHL1   C22 4788   4.278   3.308   4.067 -0.5276  0.0037 -0.7587
   49CHL1  H22A 4789   4.243   3.379   3.990 -1.4281  0.3552 -0.0467
   49CHL1  H22B 4790   4.191   3.293   4.135  1.3427 -1.3928  1.4857
   49CHL1   C23 4791   4.393   3.369   4.152 -0.1672  0.5026 -0.1224
   49CHL1  H23A 4792   4.345   3.448   4.213 -1.0086 -0.3448  0.3422
   49CHL1  H23B 4793   4.436   3.286   4.211  1.1648  1.6739  0.5927
   49CHL1   C24 4794   4.505   3.416   4.060 -0.4593  0.0035 -0.4029
   49CHL1  H24A 4795   4.549   3.341   3.991  0.7573 -2.3152  2.6344
   49CHL1  H24B 4796   4.466   3.497   3.994  0.9035  0.7234 -0.3762
   49CHL1   C25 4797   4.629   3.463   4.136  0.3848  0.0058  0.1195
   49CHL1   H25 4798   4.660   3.382   4.205  0.1408  1.5782  2.2134
   49CHL1   C26 4799   4.753   3.491   4.045  0.6180 -0.0665 -0.4769
   49CHL1  H26A 4800   4.753   3.596   4.007  3.9399 -0.6547 -2.4780
   49CHL1  H26B 4801   4.848   3.480   4.100  0.6665 -0.4668 -0.6358
   49CHL1  H26C 4802   4.745   3.422   3.958 -2.9540 -0.1972 -0.2230
   49CHL1   C27 4803   4.607   3.592   4.224  0.8955  0.3993 -0.6483
   49CHL1  H27A 4804   4.551   3.560   4.314  0.5346 -0.1068 -1.0491
   49CHL1  H27B 4805   4.709   3.628   4.251  1.0328 -0.2657 -0.2653
   49CHL1  H27C 4806   4.556   3.681   4.182 -0.4273  0.3519  0.7723
   50CHL1    C3 4807   4.272   6.053   2.329  0.5532 -0.0658  0.1095
   50CHL1    H3 4808   4.180   6.020   2.382 -0.0389  1.7099  0.2673
   50CHL1    O3 4809   4.248   6.077   2.194 -0.1179  0.4164  0.6244
   50CHL1   H3' 4810   4.336   6.083   2.155 -0.4463 -0.5656 -0.3054
   50CHL1    C4 4811   4.325   6.184   2.384  0.4089 -0.1851  0.0612
   50CHL1   H4A 4812   4.410   6.223   2.325  0.0090  2.0815  0.8437
   50CHL1   H4B 4813   4.243   6.255   2.355  0.0547 -0.7992 -0.4684
   50CHL1    C5 4814   4.347   6.188   2.536  0.1425  0.3042  0.5027
   50CHL1    C6 4815   4.266   6.244   2.623 -1.2410 -0.5119 -0.9363
   50CHL1    H6 4816   4.182   6.307   2.593 -0.1048  1.1412 -0.7833
   50CHL1    C7 4817   4.298   6.239   2.769 -0.1719  0.5037 -0.6359
   50CHL1   H7A 4818   4.285   6.333   2.826  0.3210  1.2865 -1.7746
   50CHL1   H7B 4819   4.233   6.160   2.814  2.4852 -2.6019 -1.8343
   50CHL1    C8 4820   4.447   6.183   2.796 -0.2212 -0.4089 -0.1619
   50CHL1    H8 4821   4.523   6.253   2.756  0.3874 -1.6340 -1.2312
   50CHL1   C14 4822   4.455   6.156   2.944  0.1028  0.8375 -0.0357
   50CHL1   H14 4823   4.381   6.080   2.976  1.2690 -0.6929 -0.8267
   50CHL1   C15 4824   4.434   6.279   3.030 -0.4394  0.2670  0.0932
   50CHL1  H15A 4825   4.499   6.355   2.983 -0.7978 -0.7129 -2.1326
   50CHL1  H15B 4826   4.326   6.306   3.027 -0.5747 -0.0021  1.6800
   50CHL1   C16 4827   4.495   6.245   3.166 -0.6761  0.1006 -0.0071
   50CHL1  H16A 4828   4.566   6.322   3.204 -1.3269  0.2647  0.9213
   50CHL1  H16B 4829   4.422   6.237   3.249 -1.8600  0.1901 -1.0244
   50CHL1   C17 4830   4.562   6.103   3.145  0.2134  0.8018 -0.7374
   50CHL1   H17 4831   4.481   6.035   3.180  0.8911  2.3633  4.9106
   50CHL1   C13 4832   4.582   6.090   2.996  0.9290  0.0800  0.3166
   50CHL1   C18 4833   4.704   6.172   2.956  0.0200  0.5854  0.2366
   50CHL1  H18A 4834   4.799   6.123   2.987  0.6146  0.2344 -1.9814
   50CHL1  H18B 4835   4.700   6.185   2.846  1.8337  1.8994  0.2625
   50CHL1  H18C 4836   4.705   6.272   3.006 -0.3119 -0.2748  2.0463
   50CHL1   C12 4837   4.595   5.954   2.935  0.2291 -0.1954 -0.2511
   50CHL1  H12A 4838   4.697   5.919   2.965  0.6627  2.0273  1.0145
   50CHL1  H12B 4839   4.509   5.897   2.975 -1.1344  2.5714  1.0106
   50CHL1   C11 4840   4.581   5.969   2.780 -0.5147  0.3461  0.2974
   50CHL1  H11A 4841   4.675   6.015   2.743  0.8136 -0.4047  2.5952
   50CHL1  H11B 4842   4.567   5.864   2.745 -0.5850  0.1836  0.8021
   50CHL1    C9 4843   4.464   6.058   2.721 -0.0410 -0.6953 -0.3318
   50CHL1    H9 4844   4.373   6.000   2.747  0.4535 -2.3399 -2.0664
   50CHL1   C10 4845   4.459   6.086   2.567  0.0936 -0.0365  0.1543
   50CHL1   C19 4846   4.603   6.143   2.517  0.6687  0.5378  0.3327
   50CHL1  H19A 4847   4.626   6.242   2.561 -3.1528  0.4314  3.0924
   50CHL1  H19B 4848   4.680   6.068   2.547 -0.5859 -1.8795 -2.0086
   50CHL1  H19C 4849   4.603   6.148   2.406  0.8000  3.6943  0.3911
   50CHL1    C1 4850   4.428   5.950   2.491  0.3884  0.4105  0.0429
   50CHL1   H1A 4851   4.513   5.879   2.500  1.6619  2.1196  3.3989
   50CHL1   H1B 4852   4.348   5.893   2.543 -0.5031  0.1893 -1.4956
   50CHL1    C2 4853   4.385   5.954   2.343  0.0508  0.5237  0.5879
   50CHL1   H2A 4854   4.349   5.855   2.309 -1.2359  0.0125  3.1704
   50CHL1   H2B 4855   4.468   5.978   2.272 -0.8027  0.4395 -0.4599
   50CHL1   C20 4856   4.687   6.076   3.235  0.7799 -0.2706  0.3230
   50CHL1   H20 4857   4.770   6.145   3.209  1.0449 -0.7309 -0.0725
   50CHL1   C21 4858   4.766   5.946   3.210 -0.3704  0.9935  0.1593
   50CHL1  H21A 4859   4.700   5.857   3.215  0.3414  0.2780 -1.8494
   50CHL1  H21B 4860   4.846   5.931   3.285 -2.2700 -1.1349  1.9036
   50CHL1  H21C 4861   4.812   5.948   3.108  0.4409 -0.7343  0.4613
   50CHL1   C22 4862   4.658   6.099   3.387  0.1448 -0.5492 -0.1008
   50CHL1  H22A 4863   4.611   6.199   3.386  1.7646  0.3185  2.4170
   50CHL1  H22B 4864   4.593   6.017   3.424 -0.1754  0.5907  1.9732
   50CHL1   C23 4865   4.782   6.119   3.478 -0.6310  0.3350  0.0675
   50CHL1  H23A 4866   4.842   6.026   3.480  0.4351  1.0109  2.2998
   50CHL1  H23B 4867   4.833   6.204   3.427 -1.7410  1.5275  0.8781
   50CHL1   C24 4868   4.748   6.142   3.625 -0.5571 -0.2655 -1.0225
   50CHL1  H24A 4869   4.836   6.158   3.691 -1.7919  1.3673  0.3226
   50CHL1  H24B 4870   4.702   6.243   3.633  1.3879  0.6688 -1.0286
   50CHL1   C25 4871   4.658   6.031   3.689 -0.2757 -0.6986  0.4141
   50CHL1   H25 4872   4.573   6.014   3.620  1.9031 -2.1476 -2.0693
   50CHL1   C26 4873   4.742   5.906   3.698  0.0978 -0.0203  0.6930
   50CHL1  H26A 4874   4.750   5.858   3.598 -1.2656 -0.3157  0.7032
   50CHL1  H26B 4875   4.845   5.925   3.733 -0.1794 -2.1923  2.9503
   50CHL1  H26C 4876   4.696   5.826   3.759 -0.0146 -2.2862 -2.1285
   50CHL1   C27 4877   4.617   6.069   3.830 -0.0409  0.7549  0.2365
   50CHL1  H27A 4878   4.554   6.160   3.820 -0.5316  0.2864 -1.4123
   50CHL1  H27B 4879   4.551   5.993   3.878  1.0507  1.4252  2.9372
   50CHL1  H27C 4880   4.693   6.109   3.899 -1.1149 -0.3248  2.1341
   51CHL1    C3 4881   3.775   2.672   2.883  0.2372  0.5431  0.3322
   51CHL1    H3 4882   3.826   2.770   2.878  0.2802  0.4423 -2.6708
   51CHL1    O3 4883   3.774   2.606   2.757  0.1155 -0.3052 -0.1094
   51CHL1   H3' 4884   3.866   2.586   2.737  0.0644  0.1123 -0.8014
   51CHL1    C4 4885   3.846   2.579   2.977  0.0092  0.8723  0.9058
   51CHL1   H4A 4886   3.813   2.474   2.966 -0.5429  0.8745  2.3399
   51CHL1   H4B 4887   3.953   2.593   2.950  0.1553  1.7534  1.8907
   51CHL1    C5 4888   3.828   2.612   3.123  0.5138  0.1060 -0.4264
   51CHL1    C6 4889   3.934   2.621   3.208 -0.0285 -0.0258 -0.0440
   51CHL1    H6 4890   4.031   2.605   3.158 -0.9569  0.1108 -2.0044
   51CHL1    C7 4891   3.925   2.654   3.353 -0.1197  0.4825  0.2567
   51CHL1   H7A 4892   3.987   2.580   3.409 -0.7375 -1.3292 -1.3313
   51CHL1   H7B 4893   3.968   2.755   3.372  2.2948 -0.8205  2.4390
   51CHL1    C8 4894   3.779   2.647   3.412 -0.4813  0.4091  0.5605
   51CHL1    H8 4895   3.763   2.537   3.413 -0.2245  0.2927 -2.0120
   51CHL1   C14 4896   3.768   2.710   3.543  0.2413 -0.6910  0.1437
   51CHL1   H14 4897   3.781   2.819   3.531 -1.7246 -0.4374  0.0635
   51CHL1   C15 4898   3.874   2.679   3.653  0.2297 -0.1520 -0.3212
   51CHL1  H15A 4899   3.894   2.570   3.659 -1.7517 -0.5184  0.4148
   51CHL1  H15B 4900   3.962   2.739   3.624 -0.9749  2.7287  1.4736
   51CHL1   C16 4901   3.808   2.734   3.788  0.3609  0.3845  0.4050
   51CHL1  H16A 4902   3.799   2.644   3.852 -0.9300 -1.3123 -1.9975
   51CHL1  H16B 4903   3.864   2.816   3.837  0.1457  0.3667  0.6810
   51CHL1   C17 4904   3.665   2.782   3.738 -1.0546 -0.2654  0.2508
   51CHL1   H17 4905   3.674   2.884   3.695  1.0515 -0.7010 -0.4554
   51CHL1   C13 4906   3.633   2.703   3.606  0.3112 -0.0817 -0.0262
   51CHL1   C18 4907   3.591   2.559   3.630  0.2175 -0.4185 -0.2022
   51CHL1  H18A 4908   3.660   2.513   3.705  1.0305 -0.4454 -0.9556
   51CHL1  H18B 4909   3.485   2.553   3.662  0.0043  1.3898 -0.4634
   51CHL1  H18C 4910   3.606   2.489   3.545  1.8308 -0.3022 -0.0581
   51CHL1   C12 4911   3.533   2.777   3.511 -0.3320  0.3356  0.3384
   51CHL1  H12A 4912   3.433   2.769   3.559 -0.4168  0.0958  0.1235
   51CHL1  H12B 4913   3.570   2.882   3.505  0.2201  0.1260 -0.0234
   51CHL1   C11 4914   3.535   2.710   3.371  0.0337  0.1711 -0.6821
   51CHL1  H11A 4915   3.486   2.611   3.376  0.5502 -0.1888 -2.0960
   51CHL1  H11B 4916   3.466   2.764   3.302 -0.2426 -0.8753 -1.2451
   51CHL1    C9 4917   3.678   2.702   3.310 -0.2999  0.1081  0.0544
   51CHL1    H9 4918   3.700   2.811   3.304 -2.7796  0.5858 -1.9866
   51CHL1   C10 4919   3.687   2.639   3.167  0.2631  0.6514 -0.1219
   51CHL1   C19 4920   3.615   2.501   3.171 -0.1391  0.4729  0.3945
   51CHL1  H19A 4921   3.664   2.427   3.238 -1.4648  0.4889  1.4229
   51CHL1  H19B 4922   3.508   2.519   3.196 -0.5372  0.4218 -1.1502
   51CHL1  H19C 4923   3.614   2.448   3.073 -1.2641 -0.1109  0.6952
   51CHL1    C1 4924   3.610   2.732   3.071 -0.0574 -0.5133  0.5447
   51CHL1   H1A 4925   3.501   2.730   3.092  0.1626 -0.9482  1.6958
   51CHL1   H1B 4926   3.643   2.838   3.076  0.7543 -0.4685 -2.8058
   51CHL1    C2 4927   3.630   2.686   2.926 -0.4204  0.0039  0.4299
   51CHL1   H2A 4928   3.586   2.764   2.861 -0.9144 -0.4534  0.2056
   51CHL1   H2B 4929   3.584   2.585   2.916  0.3240 -0.2522 -0.5104
   51CHL1   C20 4930   3.571   2.783   3.857  0.0291 -0.2382 -0.4539
   51CHL1   H20 4931   3.558   2.676   3.885  0.2053  0.2734  1.7793
   51CHL1   C21 4932   3.424   2.839   3.821 -0.3093  0.0067 -0.0388
   51CHL1  H21A 4933   3.362   2.855   3.911  0.5878  1.3598  0.3677
   51CHL1  H21B 4934   3.376   2.776   3.744 -1.3811  0.5694  0.1498
   51CHL1  H21C 4935   3.439   2.937   3.771  0.0773  1.4008  2.6128
   51CHL1   C22 4936   3.626   2.851   3.991 -0.3819  0.3928 -0.7210
   51CHL1  H22A 4937   3.549   2.835   4.069  0.2306  2.8083  0.4897
   51CHL1  H22B 4938   3.719   2.803   4.028 -0.8172 -1.0369 -1.4186
   51CHL1   C23 4939   3.647   3.004   3.986  0.5589  0.5896  0.1141
   51CHL1  H23A 4940   3.705   3.028   3.894 -0.4050  1.0758 -0.3822
   51CHL1  H23B 4941   3.545   3.047   3.972  0.2517 -0.4927 -1.1361
   51CHL1   C24 4942   3.711   3.068   4.107  0.4310  0.6107 -0.4751
   51CHL1  H24A 4943   3.789   2.994   4.136 -1.2618 -0.5568  1.3961
   51CHL1  H24B 4944   3.741   3.173   4.088  0.9706  0.3908 -0.8593
   51CHL1   C25 4945   3.607   3.078   4.219  0.2245  0.7032  0.2476
   51CHL1   H25 4946   3.538   2.991   4.224 -1.3110  1.9136  1.1757
   51CHL1   C26 4947   3.668   3.078   4.352  0.6149 -0.6633 -0.5801
   51CHL1  H26A 4948   3.591   3.100   4.429  0.6030 -0.7919 -0.5549
   51CHL1  H26B 4949   3.708   2.977   4.377  1.0452 -0.3293  0.1321
   51CHL1  H26C 4950   3.755   3.147   4.362  0.2623 -0.3206  0.2263
   51CHL1   C27 4951   3.519   3.209   4.212 -0.7305  0.7637  0.2608
   51CHL1  H27A 4952   3.452   3.226   4.299 -0.6897  0.5836  0.3278
   51CHL1  H27B 4953   3.575   3.305   4.207 -1.6446  1.2717 -1.2435
   51CHL1  H27C 4954   3.458   3.195   4.119  1.4454  0.7477 -1.2386
   52CHL1    C3 4955   0.916   0.797   2.446  0.0731  0.3904  0.9849
   52CHL1    H3 4956   0.905   0.903   2.412  0.9757 -0.6647 -3.2472
   52CHL1    O3 4957   0.864   0.738   2.333  0.4223  0.6951 -0.0816
   52CHL1   H3' 4958   0.885   0.645   2.342 -1.5013  0.2278  0.0306
   52CHL1    C4 4959   1.066   0.764   2.463  0.5258 -0.7216 -0.2385
   52CHL1   H4A 4960   1.082   0.654   2.453 -1.7381 -0.9285 -2.9863
   52CHL1   H4B 4961   1.124   0.806   2.378 -0.0409 -0.0751 -0.3174
   52CHL1    C5 4962   1.121   0.827   2.592 -0.7604  0.2211  0.6269
   52CHL1    C6 4963   1.233   0.904   2.586  0.1595  0.9641  0.5634
   52CHL1    H6 4964   1.297   0.915   2.496  1.8820  1.6970  1.8128
   52CHL1    C7 4965   1.291   0.960   2.710  0.3453 -0.2074 -0.1906
   52CHL1   H7A 4966   1.401   0.946   2.716  0.6109  1.8515  0.4216
   52CHL1   H7B 4967   1.279   1.071   2.712  3.4108  0.2107 -0.2525
   52CHL1    C8 4968   1.226   0.900   2.838  0.3482 -0.0129 -0.4124
   52CHL1    H8 4969   1.272   0.801   2.856 -1.5409 -0.9439 -0.4948
   52CHL1   C14 4970   1.263   0.993   2.953 -0.0150 -0.3650 -0.2469
   52CHL1   H14 4971   1.216   1.088   2.920  1.6266 -0.2172 -2.3601
   52CHL1   C15 4972   1.405   1.013   2.984 -0.4357 -0.2385 -0.0582
   52CHL1  H15A 4973   1.446   0.913   3.012 -2.5278 -0.6689  1.8383
   52CHL1  H15B 4974   1.465   1.061   2.904  0.2657 -0.7630  0.1396
   52CHL1   C16 4975   1.400   1.106   3.113 -0.0852 -0.3544  0.1194
   52CHL1  H16A 4976   1.483   1.082   3.183 -0.4725  2.6126  1.7285
   52CHL1  H16B 4977   1.409   1.211   3.078  1.9580  0.2267  2.1860
   52CHL1   C17 4978   1.262   1.072   3.175 -0.4634 -0.1963  0.1283
   52CHL1   H17 4979   1.209   1.170   3.166 -1.4454 -0.4891  2.0509
   52CHL1   C13 4980   1.191   0.967   3.089 -0.2506  1.0362 -0.5862
   52CHL1   C18 4981   1.238   0.833   3.151 -0.0288  0.3104  0.4662
   52CHL1  H18A 4982   1.174   0.811   3.239 -0.4129  2.2994  0.7528
   52CHL1  H18B 4983   1.230   0.748   3.081 -1.2359  0.7632  0.0197
   52CHL1  H18C 4984   1.343   0.829   3.185  1.0277  1.6712 -2.3313
   52CHL1   C12 4985   1.042   0.971   3.075 -0.0634  0.1024  0.2452
   52CHL1  H12A 4986   0.993   0.948   3.172  0.1470  4.0477  1.4925
   52CHL1  H12B 4987   1.001   1.073   3.057 -0.8644 -0.5129 -1.7066
   52CHL1   C11 4988   0.999   0.879   2.964  0.0475  0.2691  0.0586
   52CHL1  H11A 4989   1.047   0.787   3.003  4.1293  2.2214  0.1903
   52CHL1  H11B 4990   0.888   0.876   2.952 -0.0635  1.4837  0.6093
   52CHL1    C9 4991   1.074   0.899   2.829 -0.1694  0.0535  0.4157
   52CHL1    H9 4992   1.051   1.003   2.797  1.0625 -0.1538 -1.2635
   52CHL1   C10 4993   1.031   0.808   2.715  0.0366  0.4553 -0.6584
   52CHL1   C19 4994   1.048   0.660   2.770 -1.1247 -0.1197 -0.5047
   52CHL1  H19A 4995   1.013   0.584   2.697  2.6714 -0.8288 -1.8306
   52CHL1  H19B 4996   1.156   0.645   2.793 -1.0888  1.3777  0.4853
   52CHL1  H19C 4997   0.995   0.650   2.867  2.5501 -0.6300  1.6709
   52CHL1    C1 4998   0.880   0.826   2.682  0.0588 -0.1704  0.1533
   52CHL1   H1A 4999   0.816   0.799   2.769  0.6740  0.3335  0.7820
   52CHL1   H1B 5000   0.853   0.934   2.682  0.0672 -0.1677  0.2203
   52CHL1    C2 5001   0.832   0.754   2.564  0.2983 -0.2941 -0.3026
   52CHL1   H2A 5002   0.723   0.771   2.548 -0.1529 -1.9163  0.7748
   52CHL1   H2B 5003   0.831   0.643   2.567 -1.4136 -0.3198 -0.7113
   52CHL1   C20 5004   1.277   1.065   3.330  0.1500  0.5424  0.2649
   52CHL1   H20 5005   1.337   0.975   3.353 -1.6099 -0.8536 -0.4073
   52CHL1   C21 5006   1.139   1.058   3.395 -0.0394 -0.0530 -0.4025
   52CHL1  H21A 5007   1.080   0.973   3.356 -1.4822 -0.1483  1.8146
   52CHL1  H21B 5008   1.071   1.147   3.390 -1.1746 -0.8886 -0.3448
   52CHL1  H21C 5009   1.152   1.033   3.502 -2.0289 -1.7526 -0.4921
   52CHL1   C22 5010   1.363   1.183   3.390 -0.1161  0.2691  0.3736
   52CHL1  H22A 5011   1.468   1.172   3.356  0.5758 -1.4129  2.8074
   52CHL1  H22B 5012   1.323   1.285   3.370 -0.6391 -0.4360 -2.7381
   52CHL1   C23 5013   1.390   1.174   3.541 -0.0322  0.4394 -0.3228
   52CHL1  H23A 5014   1.295   1.204   3.591 -0.5010  0.2816 -1.1000
   52CHL1  H23B 5015   1.401   1.065   3.557 -1.1395  0.4822  0.8871
   52CHL1   C24 5016   1.515   1.252   3.589  0.4689  0.2371 -0.1661
   52CHL1  H24A 5017   1.610   1.210   3.551  0.6816  1.2450 -0.7857
   52CHL1  H24B 5018   1.518   1.360   3.562  0.6037 -0.0265 -1.2285
   52CHL1   C25 5019   1.525   1.244   3.741 -0.2850  0.1292 -0.9288
   52CHL1   H25 5020   1.492   1.144   3.779 -1.3432 -0.6175 -3.6050
   52CHL1   C26 5021   1.674   1.256   3.785 -0.3706 -0.0632 -0.5720
   52CHL1  H26A 5022   1.738   1.177   3.739  1.5743  0.2670  1.3815
   52CHL1  H26B 5023   1.705   1.354   3.743 -1.8047  0.5597 -0.2276
   52CHL1  H26C 5024   1.687   1.266   3.895 -2.7175  2.4317 -0.4180
   52CHL1   C27 5025   1.429   1.345   3.809 -0.3403  0.3184  0.0085
   52CHL1  H27A 5026   1.333   1.336   3.755 -0.0289  0.1496 -0.5223
   52CHL1  H27B 5027   1.420   1.332   3.919  1.7503 -1.2180  0.0564
   52CHL1  H27C 5028   1.471   1.447   3.798 -0.7950  0.4450 -0.5878
   53CHL1    C3 5029   6.583   1.459   2.508 -0.0523 -0.3344 -0.1677
   53CHL1    H3 5030   6.668   1.521   2.471  1.5500 -2.9430 -1.1852
   53CHL1    O3 5031   6.482   1.447   2.406 -0.3284 -0.2745 -0.0552
   53CHL1   H3' 5032   6.525   1.394   2.338 -0.1952 -0.7596  0.4020
   53CHL1    C4 5033   6.641   1.320   2.543  0.6812 -1.1976 -0.0408
   53CHL1   H4A 5034   6.552   1.264   2.578 -0.5513  0.4464 -0.4179
   53CHL1   H4B 5035   6.681   1.270   2.452  1.6638 -2.0030  0.7965
   53CHL1    C5 5036   6.735   1.321   2.652 -0.6350  0.3218 -0.8491
   53CHL1    C6 5037   6.859   1.274   2.629 -0.2044  0.4873 -1.1195
   53CHL1    H6 5038   6.882   1.245   2.525 -1.7456 -0.9539 -1.0975
   53CHL1    C7 5039   6.979   1.280   2.721 -0.0643  0.0702 -0.0961
   53CHL1   H7A 5040   7.033   1.184   2.704  1.9087  0.9348  1.0124
   53CHL1   H7B 5041   7.057   1.356   2.699  0.9405 -1.0207 -0.4265
   53CHL1    C8 5042   6.929   1.289   2.863 -0.0563 -0.5460 -0.0098
   53CHL1    H8 5043   6.878   1.191   2.878 -0.8831 -0.6036 -2.5627
   53CHL1   C14 5044   7.045   1.317   2.958 -0.1714 -0.1490 -0.4722
   53CHL1   H14 5045   7.092   1.413   2.926  1.4232 -1.0182 -0.8328
   53CHL1   C15 5046   7.167   1.222   2.954 -0.4557  0.0095 -0.4011
   53CHL1  H15A 5047   7.136   1.117   2.934  2.6356 -0.8813 -1.0319
   53CHL1  H15B 5048   7.233   1.253   2.870 -0.4735 -0.7788 -0.7088
   53CHL1   C16 5049   7.237   1.230   3.089 -0.5537 -0.3572 -0.5767
   53CHL1  H16A 5050   7.249   1.131   3.137  1.7656 -0.6953 -1.7059
   53CHL1  H16B 5051   7.341   1.269   3.093 -1.5579  2.4325  1.1912
   53CHL1   C17 5052   7.151   1.328   3.177  0.4081 -0.0882  0.6657
   53CHL1   H17 5053   7.184   1.431   3.156 -3.4748  0.9725 -1.1457
   53CHL1   C13 5054   7.010   1.320   3.106 -0.0172  0.0045 -0.2455
   53CHL1   C18 5055   6.947   1.178   3.139 -0.1344  0.6739  0.0740
   53CHL1  H18A 5056   6.929   1.168   3.248  2.5430 -1.7087  0.3985
   53CHL1  H18B 5057   6.845   1.165   3.097 -0.0609 -1.2375  0.4156
   53CHL1  H18C 5058   7.011   1.097   3.098 -0.1962  0.0641  1.1356
   53CHL1   C12 5059   6.908   1.432   3.123 -0.3900  0.0168 -1.4045
   53CHL1  H12A 5060   6.872   1.439   3.227  1.8985 -4.7971 -0.0030
   53CHL1  H12B 5061   6.965   1.526   3.107 -0.9309  0.4972 -0.5496
   53CHL1   C11 5062   6.791   1.436   3.025  0.6995  0.3995 -0.1960
   53CHL1  H11A 5063   6.726   1.354   3.061  1.0215 -0.1559 -0.8548
   53CHL1  H11B 5064   6.737   1.532   3.039  0.8118  0.3514  0.6060
   53CHL1    C9 5065   6.826   1.405   2.880  0.9327 -0.7012  0.2877
   53CHL1    H9 5066   6.868   1.498   2.836  0.6229 -0.4989  0.4160
   53CHL1   C10 5067   6.695   1.388   2.782  0.0951 -0.3819 -0.0502
   53CHL1   C19 5068   6.591   1.302   2.855  0.2023  0.3032 -0.2800
   53CHL1  H19A 5069   6.563   1.349   2.951 -1.4169 -1.3298  0.1133
   53CHL1  H19B 5070   6.507   1.281   2.785 -0.2882  1.2920 -0.0005
   53CHL1  H19C 5071   6.642   1.206   2.880  0.1440  0.0377 -1.1382
   53CHL1    C1 5072   6.629   1.531   2.753  0.1703  0.5390  0.5477
   53CHL1   H1A 5073   6.584   1.589   2.836 -0.5037 -0.7150  1.0818
   53CHL1   H1B 5074   6.706   1.599   2.712  1.6307 -2.0489 -1.3257
   53CHL1    C2 5075   6.527   1.522   2.641  0.4976 -0.5445 -0.5132
   53CHL1   H2A 5076   6.480   1.619   2.614 -0.6173 -0.6450  0.9489
   53CHL1   H2B 5077   6.439   1.461   2.671 -1.3849  1.5886 -1.3717
   53CHL1   C20 5078   7.165   1.308   3.329 -0.2304  0.2100  0.4332
   53CHL1   H20 5079   7.125   1.206   3.351 -2.3065  0.9745  0.4585
   53CHL1   C21 5080   7.064   1.406   3.404 -0.4246 -0.0548  0.2002
   53CHL1  H21A 5081   7.081   1.407   3.514 -2.2184  2.5213  0.5587
   53CHL1  H21B 5082   6.961   1.381   3.371  0.0845 -1.1612 -0.6096
   53CHL1  H21C 5083   7.072   1.511   3.370 -1.3590  0.4943  1.5495
   53CHL1   C22 5084   7.313   1.322   3.379 -0.4816 -0.5171  0.6175
   53CHL1  H22A 5085   7.378   1.255   3.318 -1.4062 -0.7472 -0.1269
   53CHL1  H22B 5086   7.336   1.430   3.365  3.0422 -0.7950  2.9081
   53CHL1   C23 5087   7.338   1.309   3.533 -0.5846 -0.2512 -0.6354
   53CHL1  H23A 5088   7.437   1.353   3.559 -0.8294 -1.0023  1.8026
   53CHL1  H23B 5089   7.272   1.381   3.586 -0.3495  1.2371 -2.2681
   53CHL1   C24 5090   7.322   1.166   3.579 -0.1560 -0.2214  0.5422
   53CHL1  H24A 5091   7.221   1.121   3.581  0.5345 -1.8979  3.3963
   53CHL1  H24B 5092   7.367   1.096   3.505  1.3975  1.4739 -0.2164
   53CHL1   C25 5093   7.386   1.128   3.713 -0.9377  0.2159  1.4184
   53CHL1   H25 5094   7.496   1.121   3.692 -1.3015 -1.5870 -0.2921
   53CHL1   C26 5095   7.359   1.229   3.829 -0.8393 -0.2582 -0.5341
   53CHL1  H26A 5096   7.393   1.332   3.806  1.3851 -1.1077 -1.3116
   53CHL1  H26B 5097   7.251   1.251   3.841 -1.1973 -0.7321 -2.5271
   53CHL1  H26C 5098   7.409   1.200   3.924  0.6942  0.6481 -1.0219
   53CHL1   C27 5099   7.345   0.989   3.754 -0.0323 -0.2776  0.4181
   53CHL1  H27A 5100   7.365   0.914   3.674 -0.4336 -0.9027  0.8948
   53CHL1  H27B 5101   7.410   0.958   3.838  1.2964 -0.0092 -0.4952
   53CHL1  H27C 5102   7.241   0.990   3.795 -0.3872 -2.8993 -0.2293
   54CHL1    C3 5103   1.921   2.798   2.521 -0.7242  0.4059  0.3847
   54CHL1    H3 5104   1.831   2.733   2.517 -1.1881  1.0691 -3.0868
   54CHL1    O3 5105   1.964   2.821   2.386 -0.9912 -0.2774  0.3726
   54CHL1   H3' 5106   2.057   2.844   2.394 -1.2694  0.5880  1.3031
   54CHL1    C4 5107   1.892   2.925   2.594  0.0662 -0.2402 -0.2803
   54CHL1   H4A 5108   1.988   2.982   2.594  0.2528 -0.5336  0.8897
   54CHL1   H4B 5109   1.815   2.989   2.545  1.8537  0.9179 -1.7450
   54CHL1    C5 5110   1.853   2.905   2.738  0.8457 -0.5189  0.3274
   54CHL1    C6 5111   1.734   2.943   2.790  0.1095  0.5432  0.2589
   54CHL1    H6 5112   1.655   2.990   2.730  0.1091 -1.4471 -1.4408
   54CHL1    C7 5113   1.698   2.929   2.931  0.5095  0.2090 -0.2225
   54CHL1   H7A 5114   1.656   3.024   2.969 -1.9458  0.3215 -2.8854
   54CHL1   H7B 5115   1.619   2.852   2.943  0.6726  0.3435  2.0443
   54CHL1    C8 5116   1.816   2.885   3.018 -0.1339 -0.3295  0.4054
   54CHL1    H8 5117   1.885   2.970   3.037 -0.6351 -0.0254  0.9065
   54CHL1   C14 5118   1.762   2.824   3.141  0.2670 -0.3913 -0.1278
   54CHL1   H14 5119   1.716   2.724   3.127  4.0268 -2.3230 -0.0540
   54CHL1   C15 5120   1.657   2.907   3.216  0.5735 -0.0962 -0.1161
   54CHL1  H15A 5121   1.680   3.015   3.231  0.5267  0.0767 -1.2641
   54CHL1  H15B 5122   1.554   2.893   3.177 -0.2928  2.7316  0.8916
   54CHL1   C16 5123   1.644   2.830   3.354  0.0157  0.1292 -1.0706
   54CHL1  H16A 5124   1.649   2.915   3.426 -0.0703 -0.5159 -0.2836
   54CHL1  H16B 5125   1.545   2.782   3.370  1.3230 -2.2305  0.6522
   54CHL1   C17 5126   1.766   2.730   3.355  0.2338  0.4461 -0.5263
   54CHL1   H17 5127   1.731   2.634   3.311  0.1405 -0.4845  1.4826
   54CHL1   C13 5128   1.869   2.778   3.243 -0.8016 -0.0189 -0.2698
   54CHL1   C18 5129   1.951   2.899   3.292  0.5617 -0.1062  0.2338
   54CHL1  H18A 5130   2.040   2.870   3.352 -0.7001 -4.1535  0.4557
   54CHL1  H18B 5131   1.987   2.966   3.211 -0.4675 -1.1832 -1.1543
   54CHL1  H18C 5132   1.886   2.961   3.357  0.5621 -1.1760  1.2939
   54CHL1   C12 5133   1.952   2.671   3.181 -0.6387  0.4733  0.1100
   54CHL1  H12A 5134   2.028   2.645   3.258 -0.0289 -1.3601 -1.0459
   54CHL1  H12B 5135   1.901   2.581   3.141  0.5643  0.2767 -1.0556
   54CHL1   C11 5136   2.014   2.731   3.054 -0.5993  0.2694 -0.3402
   54CHL1  H11A 5137   2.078   2.816   3.085 -0.4460 -0.2456  0.7850
   54CHL1  H11B 5138   2.069   2.658   2.992 -3.6130 -2.4530 -0.0677
   54CHL1    C9 5139   1.902   2.775   2.951 -0.1514  1.3398 -0.5239
   54CHL1    H9 5140   1.840   2.684   2.937  1.0103  0.5657 -0.7271
   54CHL1   C10 5141   1.959   2.827   2.818  0.5531  0.0355  0.2578
   54CHL1   C19 5142   2.090   2.916   2.843 -0.2798 -0.2184  0.6515
   54CHL1  H19A 5143   2.167   2.841   2.871  0.3059 -0.1002 -0.5879
   54CHL1  H19B 5144   2.133   2.956   2.749  1.7745 -0.5900  1.3780
   54CHL1  H19C 5145   2.071   2.988   2.925 -1.3476  2.0755 -1.4773
   54CHL1    C1 5146   2.000   2.701   2.735  0.0990  0.1713 -0.5031
   54CHL1   H1A 5147   2.077   2.637   2.783 -0.4104  0.3633  0.6070
   54CHL1   H1B 5148   1.906   2.643   2.723 -0.2507  0.9256 -1.7032
   54CHL1    C2 5149   2.035   2.720   2.582  0.0041  0.3080 -0.8737
   54CHL1   H2A 5150   2.051   2.624   2.530  0.4318 -0.0192 -0.1563
   54CHL1   H2B 5151   2.125   2.786   2.576 -0.9515  2.0773  1.9624
   54CHL1   C20 5152   1.814   2.680   3.488 -0.1529 -0.0392  0.3174
   54CHL1   H20 5153   1.902   2.618   3.460  0.4457  1.5518 -1.5953
   54CHL1   C21 5154   1.695   2.604   3.543 -0.5565  0.1497  0.4162
   54CHL1  H21A 5155   1.633   2.685   3.588  2.2287  2.7215 -0.0579
   54CHL1  H21B 5156   1.719   2.525   3.617 -3.8371 -0.7997  0.6546
   54CHL1  H21C 5157   1.623   2.555   3.474 -0.8800  1.4655 -0.2052
   54CHL1   C22 5158   1.859   2.787   3.590 -0.3858 -0.0029 -0.3951
   54CHL1  H22A 5159   1.931   2.855   3.540  0.8298 -0.1774  1.0382
   54CHL1  H22B 5160   1.780   2.847   3.640 -1.6626 -0.9698 -1.1831
   54CHL1   C23 5161   1.946   2.719   3.710 -0.4589 -0.4663 -0.4632
   54CHL1  H23A 5162   1.905   2.618   3.731 -2.2332 -0.6332 -4.0027
   54CHL1  H23B 5163   2.055   2.719   3.689 -0.6596 -1.5240 -1.6287
   54CHL1   C24 5164   1.921   2.809   3.836  0.3796  1.2646 -0.5063
   54CHL1  H24A 5165   1.990   2.896   3.827 -0.6464  2.0683 -0.8430
   54CHL1  H24B 5166   1.817   2.846   3.849 -0.9258 -2.6614  1.8704
   54CHL1   C25 5167   1.956   2.747   3.976 -0.4927  0.2419 -0.0985
   54CHL1   H25 5168   1.901   2.650   3.980 -0.8156  0.4644  1.1552
   54CHL1   C26 5169   2.104   2.712   3.977 -0.0244 -0.4199 -0.0036
   54CHL1  H26A 5170   2.168   2.802   3.978  0.7777 -0.9494 -1.3346
   54CHL1  H26B 5171   2.130   2.651   4.067 -0.8475 -0.6430  0.1006
   54CHL1  H26C 5172   2.133   2.649   3.890 -0.3386 -0.4615 -0.0831
   54CHL1   C27 5173   1.919   2.846   4.083 -0.0943 -0.8421  0.2839
   54CHL1  H27A 5174   1.808   2.859   4.083  0.0105  0.2036 -1.0478
   54CHL1  H27B 5175   1.960   2.817   4.182  3.8690  0.6062 -0.7615
   54CHL1  H27C 5176   1.954   2.947   4.052 -1.3999 -0.1748  0.8794
   55CHL1    C3 5177   5.261   4.227   2.425 -0.4707 -0.2840 -0.5475
   55CHL1    H3 5178   5.314   4.130   2.431  2.8790  1.3937 -1.0056
   55CHL1    O3 5179   5.237   4.264   2.290 -0.4604  0.4761 -0.0288
   55CHL1   H3' 5180   5.297   4.336   2.269 -1.8156  1.1500 -1.8288
   55CHL1    C4 5181   5.129   4.215   2.502  0.2723  0.3786 -0.5521
   55CHL1   H4A 5182   5.061   4.303   2.498  0.5914  0.7349  1.0886
   55CHL1   H4B 5183   5.080   4.130   2.450  1.6993 -1.3353  0.7909
   55CHL1    C5 5184   5.142   4.186   2.649 -0.2431 -0.2512  0.6044
   55CHL1    C6 5185   5.088   4.080   2.715  0.6286  0.0506 -0.0559
   55CHL1    H6 5186   5.016   4.018   2.660  1.0555  0.6624 -1.3332
   55CHL1    C7 5187   5.107   4.059   2.863  0.1961  1.1583  0.0476
   55CHL1   H7A 5188   5.009   4.023   2.901  1.1142 -1.2052  0.4192
   55CHL1   H7B 5189   5.179   3.978   2.888 -1.5228 -0.6504 -0.5860
   55CHL1    C8 5190   5.153   4.184   2.943 -0.5310 -0.4190  0.0280
   55CHL1    H8 5191   5.074   4.261   2.936 -0.3209 -0.2328 -0.3987
   55CHL1   C14 5192   5.191   4.156   3.091  0.5137 -0.0566  0.2127
   55CHL1   H14 5193   5.269   4.078   3.084  0.0524 -0.4761 -0.3999
   55CHL1   C15 5194   5.081   4.092   3.180 -0.0832 -0.1916  0.4917
   55CHL1  H15A 5195   4.982   4.138   3.159 -0.2910 -0.4312  0.9336
   55CHL1  H15B 5196   5.080   3.981   3.169  0.1983 -0.1868  0.4153
   55CHL1   C16 5197   5.128   4.132   3.321  0.3044 -0.3739 -0.2340
   55CHL1  H16A 5198   5.057   4.199   3.374 -0.4764  1.0435 -2.9050
   55CHL1  H16B 5199   5.134   4.045   3.390  1.2401  0.7314  1.1350
   55CHL1   C17 5200   5.261   4.208   3.310  0.1490 -0.5550 -0.0531
   55CHL1   H17 5201   5.346   4.137   3.298  3.6737  2.9769  1.6234
   55CHL1   C13 5202   5.257   4.267   3.163 -0.2486  0.4123 -0.4318
   55CHL1   C18 5203   5.175   4.392   3.168 -0.2772  0.1041 -0.4437
   55CHL1  H18A 5204   5.231   4.470   3.223  0.6183 -1.0155  0.2884
   55CHL1  H18B 5205   5.131   4.431   3.074 -1.2085 -1.1855 -0.5793
   55CHL1  H18C 5206   5.077   4.377   3.219 -0.3455  1.7334 -0.0407
   55CHL1   C12 5207   5.390   4.289   3.088  0.3209  0.1427 -0.2722
   55CHL1  H12A 5208   5.456   4.373   3.115 -0.9814  1.1267 -0.0414
   55CHL1  H12B 5209   5.442   4.191   3.096 -0.3361 -0.1962 -0.0601
   55CHL1   C11 5210   5.361   4.331   2.945  0.9090  0.3070 -0.2962
   55CHL1  H11A 5211   5.311   4.430   2.945  1.1432  0.4426 -2.1089
   55CHL1  H11B 5212   5.458   4.343   2.894  0.7376 -0.5489 -0.8427
   55CHL1    C9 5213   5.274   4.237   2.862  0.3107 -0.2162  0.3560
   55CHL1    H9 5214   5.342   4.151   2.840 -0.4170 -1.0161  1.1237
   55CHL1   C10 5215   5.235   4.287   2.723  0.4210 -0.2446  0.5851
   55CHL1   C19 5216   5.161   4.425   2.733  0.1222 -0.7886  0.3047
   55CHL1  H19A 5217   5.130   4.455   2.631  1.9913  1.9839  0.4283
   55CHL1  H19B 5218   5.073   4.423   2.800  0.5968  0.8780  1.0464
   55CHL1  H19C 5219   5.240   4.496   2.767 -0.0833  0.0841 -0.9866
   55CHL1    C1 5220   5.367   4.303   2.639  0.0674  0.3649 -0.3599
   55CHL1   H1A 5221   5.426   4.387   2.681  1.2982  0.9428 -3.0689
   55CHL1   H1B 5222   5.421   4.208   2.656  0.2764  0.3679 -0.9820
   55CHL1    C2 5223   5.352   4.333   2.485 -1.4161 -0.4332 -0.4938
   55CHL1   H2A 5224   5.456   4.325   2.445  0.1169 -0.6092  3.1103
   55CHL1   H2B 5225   5.320   4.437   2.462 -2.3532 -0.5983  0.0144
   55CHL1   C20 5226   5.297   4.285   3.441  0.0584 -0.4513 -1.0773
   55CHL1   H20 5227   5.210   4.351   3.459 -0.1002 -1.2738  1.5650
   55CHL1   C21 5228   5.428   4.364   3.414 -0.1158 -0.3535  1.0040
   55CHL1  H21A 5229   5.514   4.298   3.389 -1.7373 -1.9557 -0.7261
   55CHL1  H21B 5230   5.454   4.420   3.505  1.0803  1.9217 -0.6428
   55CHL1  H21C 5231   5.412   4.441   3.335 -0.1678 -1.1341  0.2269
   55CHL1   C22 5232   5.320   4.200   3.570 -0.4286  0.4662  0.1360
   55CHL1  H22A 5233   5.239   4.129   3.598  0.9987 -0.8703  1.0232
   55CHL1  H22B 5234   5.409   4.138   3.544  0.2107  2.5419 -3.2859
   55CHL1   C23 5235   5.350   4.283   3.695  0.7890 -0.1493 -1.4316
   55CHL1  H23A 5236   5.451   4.328   3.692  0.6525  0.3703  0.5100
   55CHL1  H23B 5237   5.281   4.370   3.690  1.0274  0.3190  1.7434
   55CHL1   C24 5238   5.326   4.201   3.819 -0.6468 -0.3611  0.0398
   55CHL1  H24A 5239   5.218   4.178   3.832 -0.7215  0.1263  0.2647
   55CHL1  H24B 5240   5.378   4.104   3.802 -0.3615 -0.2738  0.4278
   55CHL1   C25 5241   5.381   4.251   3.956 -0.4364  0.2221 -0.1937
   55CHL1   H25 5242   5.488   4.280   3.953 -0.4898  0.7710  1.9392
   55CHL1   C26 5243   5.292   4.371   3.998  0.3930 -0.1274 -0.5963
   55CHL1  H26A 5244   5.184   4.348   4.011  0.4417 -0.4985 -0.8589
   55CHL1  H26B 5245   5.322   4.410   4.098 -0.0032  1.3408 -1.0305
   55CHL1  H26C 5246   5.305   4.457   3.929 -0.4752  2.0111  1.7596
   55CHL1   C27 5247   5.362   4.146   4.067  0.1161  0.2290  0.0135
   55CHL1  H27A 5248   5.396   4.044   4.041 -1.4954 -0.2208 -0.4312
   55CHL1  H27B 5249   5.404   4.161   4.169  1.0001 -1.8892  0.0067
   55CHL1  H27C 5250   5.251   4.150   4.082  0.3396  2.5767  1.6456
   56CHL1    C3 5251   6.769   5.510   2.592  0.0341 -0.0544  0.2331
   56CHL1    H3 5252   6.740   5.616   2.604  0.4658  0.0222  0.5940
   56CHL1    O3 5253   6.808   5.483   2.455  0.1045 -0.0020  0.6358
   56CHL1   H3' 5254   6.880   5.420   2.457  0.4181  0.3772  1.5104
   56CHL1    C4 5255   6.894   5.485   2.688 -0.6584 -0.8271  0.0525
   56CHL1   H4A 5256   6.939   5.385   2.666 -2.1244 -2.2898  3.0651
   56CHL1   H4B 5257   6.979   5.552   2.663  0.0509 -1.8338 -0.3234
   56CHL1    C5 5258   6.848   5.485   2.835  0.3331 -0.5764  0.2677
   56CHL1    C6 5259   6.907   5.565   2.934 -0.0024 -0.1926 -0.1662
   56CHL1    H6 5260   6.994   5.622   2.898  1.4662 -2.1183  0.1984
   56CHL1    C7 5261   6.889   5.555   3.083 -0.2607  0.1447 -0.2717
   56CHL1   H7A 5262   6.990   5.552   3.131 -0.8533 -1.9972  0.9789
   56CHL1   H7B 5263   6.813   5.631   3.110 -1.4536 -0.7256 -1.0626
   56CHL1    C8 5264   6.824   5.420   3.121  0.5097 -0.5289  0.1917
   56CHL1    H8 5265   6.898   5.339   3.101  1.2714  0.0647  0.5512
   56CHL1   C14 5266   6.772   5.429   3.263 -0.3659  0.5976 -0.1404
   56CHL1   H14 5267   6.698   5.511   3.271 -3.2762 -1.9712  1.2322
   56CHL1   C15 5268   6.884   5.456   3.372  0.4654 -0.0904  0.3719
   56CHL1  H15A 5269   6.976   5.400   3.345  1.1687  1.2098 -0.0455
   56CHL1  H15B 5270   6.909   5.564   3.370 -3.8786  1.0857 -1.4519
   56CHL1   C16 5271   6.811   5.433   3.495 -0.3016  0.2200  0.0926
   56CHL1  H16A 5272   6.870   5.381   3.574  1.1540  2.1832  0.3785
   56CHL1  H16B 5273   6.790   5.530   3.544 -1.2947  0.4574 -0.7866
   56CHL1   C17 5274   6.681   5.348   3.465 -0.5566 -1.2125  0.3273
   56CHL1   H17 5275   6.594   5.416   3.452 -0.7780 -1.7942 -1.6240
   56CHL1   C13 5276   6.701   5.304   3.313 -0.8103  0.2495  0.3353
   56CHL1   C18 5277   6.794   5.180   3.319 -0.1053  0.5612 -0.3852
   56CHL1  H18A 5278   6.821   5.168   3.212  2.9690  0.7115  0.2824
   56CHL1  H18B 5279   6.882   5.181   3.387  0.2019 -1.2019 -0.7113
   56CHL1  H18C 5280   6.726   5.099   3.352 -1.5088  1.5969 -0.6678
   56CHL1   C12 5281   6.576   5.283   3.225  0.3334  0.1793  0.1483
   56CHL1  H12A 5282   6.536   5.186   3.261  0.3783  0.3473  0.6612
   56CHL1  H12B 5283   6.501   5.362   3.248 -0.4451 -0.5764  0.2540
   56CHL1   C11 5284   6.617   5.279   3.078 -0.0238  0.5681  0.2624
   56CHL1  H11A 5285   6.668   5.181   3.067  0.4086  0.7630  0.4980
   56CHL1  H11B 5286   6.531   5.276   3.008 -0.0007  0.5624  0.2342
   56CHL1    C9 5287   6.706   5.394   3.024  0.6504 -0.4444 -0.2802
   56CHL1    H9 5288   6.645   5.486   3.040  1.2190 -0.0293 -0.4499
   56CHL1   C10 5289   6.747   5.378   2.872 -0.2147 -0.3579 -0.5450
   56CHL1   C19 5290   6.787   5.226   2.842  0.1442 -0.6409  0.4807
   56CHL1  H19A 5291   6.829   5.208   2.741 -1.0852 -2.2922  0.2155
   56CHL1  H19B 5292   6.865   5.194   2.913 -0.8232  0.4705  2.1269
   56CHL1  H19C 5293   6.696   5.162   2.842 -0.1387 -0.2801 -0.7627
   56CHL1    C1 5294   6.621   5.416   2.786 -0.4570  0.3764 -0.3559
   56CHL1   H1A 5295   6.537   5.347   2.810  0.2398 -1.5601 -2.9691
   56CHL1   H1B 5296   6.582   5.516   2.812 -2.2017 -0.6544  1.2898
   56CHL1    C2 5297   6.652   5.424   2.635  0.0484  0.3733  0.5005
   56CHL1   H2A 5298   6.556   5.454   2.587 -1.3466 -3.1445  0.8037
   56CHL1   H2B 5299   6.668   5.329   2.580 -1.1511  0.1674  0.4874
   56CHL1   C20 5300   6.645   5.250   3.576 -0.8782  0.2459 -0.4887
   56CHL1   H20 5301   6.724   5.172   3.580  0.0477  1.1870 -0.1721
   56CHL1   C21 5302   6.515   5.170   3.539 -0.2590 -0.3205  0.1069
   56CHL1  H21A 5303   6.527   5.125   3.438 -0.3130 -1.5297  0.6235
   56CHL1  H21B 5304   6.436   5.248   3.533 -0.0639 -0.1269  0.0431
   56CHL1  H21C 5305   6.488   5.091   3.612  1.6241 -1.9669 -0.8915
   56CHL1   C22 5306   6.647   5.315   3.720  0.5950  0.4318  0.1102
   56CHL1  H22A 5307   6.727   5.390   3.741 -1.3998  3.0504 -0.9992
   56CHL1  H22B 5308   6.558   5.382   3.717 -0.7377 -1.3136 -1.4688
   56CHL1   C23 5309   6.646   5.217   3.837  0.2778  0.1368  0.4098
   56CHL1  H23A 5310   6.577   5.133   3.819 -0.1238  0.9171 -2.1439
   56CHL1  H23B 5311   6.750   5.178   3.846  0.9030  1.7589  0.7814
   56CHL1   C24 5312   6.607   5.289   3.970 -0.4722  0.9700 -0.4500
   56CHL1  H24A 5313   6.634   5.397   3.968  0.6928  0.7461  1.1693
   56CHL1  H24B 5314   6.497   5.302   3.981 -0.4971  0.2200  0.3520
   56CHL1   C25 5315   6.673   5.225   4.089  0.2767 -0.8315 -0.5313
   56CHL1   H25 5316   6.784   5.218   4.080  0.4811  0.1254  0.9957
   56CHL1   C26 5317   6.656   5.310   4.212 -0.0589  0.3970 -0.6503
   56CHL1  H26A 5318   6.705   5.407   4.188  1.1393 -0.7474 -3.1196
   56CHL1  H26B 5319   6.548   5.319   4.238  0.3283  1.0903  0.8317
   56CHL1  H26C 5320   6.707   5.258   4.296 -1.7132 -3.1632 -1.6695
   56CHL1   C27 5321   6.606   5.087   4.114  0.2178  0.2235 -0.5632
   56CHL1  H27A 5322   6.610   5.026   4.021  0.6890 -0.8055  0.1148
   56CHL1  H27B 5323   6.658   5.038   4.199 -1.2993 -0.4526  0.0090
   56CHL1  H27C 5324   6.498   5.082   4.140  0.1001 -0.9500 -1.1940
   57CHL1    C3 5325   5.563   4.858   2.334 -0.4116 -0.5991  0.7991
   57CHL1    H3 5326   5.627   4.937   2.380  1.7578 -1.5529 -0.3859
   57CHL1    O3 5327   5.605   4.834   2.200 -0.3205 -0.4727 -0.2021
   57CHL1   H3' 5328   5.634   4.919   2.165  1.4754 -0.4130  1.2601
   57CHL1    C4 5329   5.581   4.727   2.420  0.1079  0.3832 -0.2069
   57CHL1   H4A 5330   5.530   4.645   2.365  1.2256  1.5598 -3.1964
   57CHL1   H4B 5331   5.686   4.692   2.418 -0.0059 -0.0367  0.8589
   57CHL1    C5 5332   5.532   4.735   2.560 -0.1606  0.2348 -0.0517
   57CHL1    C6 5333   5.608   4.701   2.659 -0.0045 -0.1581 -0.9816
   57CHL1    H6 5334   5.708   4.658   2.645  0.6257 -0.0926  2.5078
   57CHL1    C7 5335   5.577   4.721   2.806 -0.2588 -0.3296 -0.4686
   57CHL1   H7A 5336   5.601   4.627   2.859 -0.9800 -0.4298 -0.3041
   57CHL1   H7B 5337   5.639   4.809   2.833 -1.3693 -0.0890  1.4407
   57CHL1    C8 5338   5.429   4.764   2.831  0.8395 -0.5012  0.4444
   57CHL1    H8 5339   5.363   4.677   2.851  0.0638  0.4282  2.1540
   57CHL1   C14 5340   5.411   4.840   2.960 -0.5642  0.3695  0.3593
   57CHL1   H14 5341   5.469   4.935   2.957  1.2112 -0.5669  2.2045
   57CHL1   C15 5342   5.471   4.759   3.084 -0.2578  0.1777  1.1457
   57CHL1  H15A 5343   5.435   4.654   3.085 -0.0980  0.1191  1.8050
   57CHL1  H15B 5344   5.581   4.772   3.094 -0.6803  3.6842  2.6123
   57CHL1   C16 5345   5.413   4.820   3.206 -0.2491  0.3010  0.1811
   57CHL1  H16A 5346   5.366   4.738   3.264  0.5655  0.0995  0.5679
   57CHL1  H16B 5347   5.492   4.868   3.267  0.3744 -0.6134  0.1167
   57CHL1   C17 5348   5.305   4.925   3.157  0.0705 -0.2675 -0.1040
   57CHL1   H17 5349   5.355   5.023   3.142  0.9096 -1.0202 -2.8422
   57CHL1   C13 5350   5.274   4.877   3.009 -0.8730 -0.0301  0.8136
   57CHL1   C18 5351   5.183   4.757   3.013 -0.3494 -0.7885 -0.2486
   57CHL1  H18A 5352   5.215   4.677   3.084 -0.3171 -0.1536  0.4664
   57CHL1  H18B 5353   5.084   4.798   3.043  0.9127  3.1311 -0.9335
   57CHL1  H18C 5354   5.174   4.709   2.913 -2.8174  1.5566 -1.2817
   57CHL1   C12 5355   5.222   4.982   2.906 -0.2644 -0.5830  0.3344
   57CHL1  H12A 5356   5.114   5.000   2.923 -0.4531  0.6903 -1.8670
   57CHL1  H12B 5357   5.291   5.067   2.925  0.6611 -0.9151 -1.3326
   57CHL1   C11 5358   5.237   4.926   2.768 -0.8561  0.3475  0.4160
   57CHL1  H11A 5359   5.153   4.855   2.759 -1.0207  0.4232  1.2012
   57CHL1  H11B 5360   5.208   5.006   2.697  0.7228  1.3015  0.7825
   57CHL1    C9 5361   5.377   4.860   2.729  0.9881 -0.5381  0.1381
   57CHL1    H9 5362   5.446   4.948   2.737 -0.3833  0.5567  0.2791
   57CHL1   C10 5363   5.395   4.807   2.582 -0.3028  0.4031 -0.5905
   57CHL1   C19 5364   5.277   4.707   2.553 -0.0278  0.0053 -0.0093
   57CHL1  H19A 5365   5.176   4.744   2.581  0.2805 -0.1500  1.4118
   57CHL1  H19B 5366   5.277   4.674   2.447  2.4291 -3.0250  0.7548
   57CHL1  H19C 5367   5.298   4.616   2.615 -3.6544 -2.4162 -2.0088
   57CHL1    C1 5368   5.376   4.930   2.489 -0.1193 -0.2532 -0.5734
   57CHL1   H1A 5369   5.274   4.973   2.484 -0.7972 -1.8879 -1.5375
   57CHL1   H1B 5370   5.436   5.011   2.537  2.1969 -0.3753 -3.0392
   57CHL1    C2 5371   5.421   4.912   2.343  0.0305  0.1379  0.3719
   57CHL1   H2A 5372   5.424   5.008   2.286  1.1296 -0.5308 -0.7296
   57CHL1   H2B 5373   5.344   4.852   2.290  1.2370 -0.2576 -0.9850
   57CHL1   C20 5374   5.177   4.945   3.234  0.6515  0.0383  0.1613
   57CHL1   H20 5375   5.097   4.962   3.159  2.3467 -1.1235 -1.9902
   57CHL1   C21 5376   5.189   5.074   3.322 -0.6172  0.1760 -0.4842
   57CHL1  H21A 5377   5.107   5.096   3.394  0.1420  1.5893 -0.0006
   57CHL1  H21B 5378   5.185   5.156   3.246 -1.1483  0.9700  0.3688
   57CHL1  H21C 5379   5.286   5.074   3.375 -0.4815 -2.1320 -0.6556
   57CHL1   C22 5380   5.131   4.820   3.330 -0.0807 -0.7921 -0.4350
   57CHL1  H22A 5381   5.020   4.821   3.341  0.0839  0.4548  1.5689
   57CHL1  H22B 5382   5.159   4.724   3.281  2.6886 -0.1274 -0.3234
   57CHL1   C23 5383   5.181   4.812   3.481 -0.0493  0.1391  0.1902
   57CHL1  H23A 5384   5.291   4.821   3.472 -0.2597  1.6705 -1.3025
   57CHL1  H23B 5385   5.152   4.900   3.542 -2.5636 -1.4452  1.5100
   57CHL1   C24 5386   5.131   4.691   3.557 -0.9259  0.0652  0.2226
   57CHL1  H24A 5387   5.022   4.679   3.537 -1.1080  0.1834  1.0868
   57CHL1  H24B 5388   5.180   4.602   3.513 -2.5367  0.7940 -3.3851
   57CHL1   C25 5389   5.152   4.685   3.708 -0.2179  0.6727  0.2904
   57CHL1   H25 5390   5.258   4.660   3.730 -0.8377 -0.3984  2.2592
   57CHL1   C26 5391   5.100   4.804   3.788  0.0985  0.0252  0.3787
   57CHL1  H26A 5392   4.995   4.813   3.753  0.0968  0.0289  0.3849
   57CHL1  H26B 5393   5.110   4.790   3.897 -0.0597  0.3119  0.4314
   57CHL1  H26C 5394   5.163   4.894   3.768 -0.3624  0.0522 -1.1034
   57CHL1   C27 5395   5.070   4.558   3.763 -0.5934 -0.2711  0.0192
   57CHL1  H27A 5396   4.968   4.596   3.786  0.1179  3.0315 -1.6299
   57CHL1  H27B 5397   5.075   4.486   3.679 -0.1738 -0.3278  0.0936
   57CHL1  H27C 5398   5.130   4.524   3.850  2.5663  0.3078 -1.7786
   58CHL1    C3 5399   5.372   5.901   2.429 -1.1179  0.7803  0.1065
   58CHL1    H3 5400   5.283   5.965   2.412 -1.3534  1.3108  2.8662
   58CHL1    O3 5401   5.423   5.850   2.303  0.3443  0.2376  0.0501
   58CHL1   H3' 5402   5.465   5.767   2.327  1.8976  0.4811 -1.6070
   58CHL1    C4 5403   5.480   5.981   2.498 -0.3112  0.1382 -0.5112
   58CHL1   H4A 5404   5.574   5.923   2.509 -0.6071 -0.2770 -0.1530
   58CHL1   H4B 5405   5.509   6.068   2.435  0.3680  0.5108  0.2987
   58CHL1    C5 5406   5.434   6.013   2.638  0.5080  0.1774  0.8018
   58CHL1    C6 5407   5.424   6.142   2.686 -0.1030  0.2844  0.3681
   58CHL1    H6 5408   5.463   6.225   2.626  1.9632  0.0495  1.2891
   58CHL1    C7 5409   5.390   6.161   2.833  0.1691  0.8064 -0.6042
   58CHL1   H7A 5410   5.445   6.249   2.873 -0.9403  2.4709 -2.5396
   58CHL1   H7B 5411   5.280   6.177   2.833 -0.5072 -2.8938  1.1776
   58CHL1    C8 5412   5.405   6.045   2.928  0.1424  0.2132 -1.2343
   58CHL1    H8 5413   5.511   6.031   2.958 -0.3833 -0.7415  0.3041
   58CHL1   C14 5414   5.331   6.086   3.054 -0.0075 -0.4312 -0.8387
   58CHL1   H14 5415   5.224   6.096   3.026  0.6342  1.5989 -2.8757
   58CHL1   C15 5416   5.375   6.218   3.125  0.1531  0.0830 -0.4304
   58CHL1  H15A 5417   5.485   6.226   3.114  0.2994  0.3316  0.9388
   58CHL1  H15B 5418   5.323   6.292   3.060 -0.3142  1.0103  0.9537
   58CHL1   C16 5419   5.328   6.197   3.265 -0.7907  0.3617  0.2171
   58CHL1  H16A 5420   5.417   6.211   3.329  0.3405 -0.5043 -1.1176
   58CHL1  H16B 5421   5.249   6.272   3.287 -0.8486  0.5721 -0.6787
   58CHL1   C17 5422   5.265   6.057   3.274  0.4112 -0.1732  0.5695
   58CHL1   H17 5423   5.160   6.055   3.239  1.3016 -2.1588 -2.3418
   58CHL1   C13 5424   5.342   5.977   3.160  0.7637  0.1143 -0.0452
   58CHL1   C18 5425   5.480   5.946   3.204  0.6666  0.3089 -0.0906
   58CHL1  H18A 5426   5.482   5.871   3.286  0.0075 -1.8258 -1.9410
   58CHL1  H18B 5427   5.530   5.887   3.125  0.6907 -2.0528  1.5832
   58CHL1  H18C 5428   5.535   6.036   3.239 -0.2726  1.4418 -1.4047
   58CHL1   C12 5429   5.261   5.856   3.103 -0.1593  0.6076 -0.3820
   58CHL1  H12A 5430   5.262   5.769   3.171  2.5365 -1.1979 -2.5005
   58CHL1  H12B 5431   5.156   5.889   3.091 -1.2512 -1.3051  2.7897
   58CHL1   C11 5432   5.317   5.812   2.972 -0.5209  0.0854  0.0871
   58CHL1  H11A 5433   5.413   5.760   2.993  0.6757  2.1002 -0.0964
   58CHL1  H11B 5434   5.249   5.736   2.929  1.1278 -0.5481 -1.5336
   58CHL1    C9 5435   5.334   5.928   2.869 -0.3969  0.2143  0.2123
   58CHL1    H9 5436   5.233   5.968   2.847  0.6315  2.1613 -1.2767
   58CHL1   C10 5437   5.394   5.894   2.729  0.2340  0.1394 -0.3614
   58CHL1   C19 5438   5.521   5.807   2.762  0.3770 -0.2875  0.0192
   58CHL1  H19A 5439   5.576   5.783   2.668 -1.7881  2.8782 -2.2872
   58CHL1  H19B 5440   5.590   5.866   2.826 -2.5833  0.4427  2.7905
   58CHL1  H19C 5441   5.500   5.712   2.816  0.4819 -0.3123  0.0164
   58CHL1    C1 5442   5.282   5.807   2.652 -0.8626 -0.3243 -0.1943
   58CHL1   H1A 5443   5.253   5.712   2.703 -0.0225 -1.3547 -1.5501
   58CHL1   H1B 5444   5.192   5.870   2.637 -0.5281 -0.2057 -1.8878
   58CHL1    C2 5445   5.337   5.775   2.515 -0.2202  0.5198 -0.4621
   58CHL1   H2A 5446   5.270   5.702   2.463  2.0322 -0.8075 -1.6917
   58CHL1   H2B 5447   5.424   5.707   2.530 -2.4468 -2.8398 -1.5331
   58CHL1   C20 5448   5.258   6.010   3.422  0.3036 -0.2891 -0.8526
   58CHL1   H20 5449   5.362   5.985   3.452  0.4958  1.5895  0.2041
   58CHL1   C21 5450   5.169   5.884   3.429  0.1146 -0.5537  0.3551
   58CHL1  H21A 5451   5.181   5.835   3.527 -4.5387  0.4083  1.6688
   58CHL1  H21B 5452   5.210   5.812   3.355  3.3512  1.8102 -0.3973
   58CHL1  H21C 5453   5.068   5.924   3.406  0.7935  0.9282 -0.1796
   58CHL1   C22 5454   5.206   6.121   3.518 -0.2230  0.4985  0.2577
   58CHL1  H22A 5455   5.264   6.216   3.516  1.3595 -0.4136  0.9928
   58CHL1  H22B 5456   5.110   6.158   3.478 -1.3141  0.5401  2.7463
   58CHL1   C23 5457   5.205   6.082   3.668 -0.2153  0.6173  1.0165
   58CHL1  H23A 5458   5.126   6.005   3.683 -1.1871  1.2180 -0.6538
   58CHL1  H23B 5459   5.304   6.036   3.688 -0.5219 -0.9022 -0.6708
   58CHL1   C24 5460   5.181   6.201   3.760  0.1622 -0.5548  0.7457
   58CHL1  H24A 5461   5.244   6.287   3.728  0.7289 -1.5261 -0.8974
   58CHL1  H24B 5462   5.076   6.228   3.739  0.8299  0.6857 -1.2832
   58CHL1   C25 5463   5.208   6.181   3.911 -1.0336 -0.3309  0.5518
   58CHL1   H25 5464   5.312   6.146   3.925 -1.1970 -0.9417  0.2374
   58CHL1   C26 5465   5.182   6.310   3.987  0.3527 -0.2303  0.5752
   58CHL1  H26A 5466   5.184   6.276   4.093 -0.6117 -2.9555 -0.1863
   58CHL1  H26B 5467   5.258   6.388   3.967 -0.3255  0.0143 -1.2785
   58CHL1  H26C 5468   5.076   6.336   3.965  0.3527 -0.8367 -0.2108
   58CHL1   C27 5469   5.113   6.071   3.966  0.0915  0.3419 -0.5681
   58CHL1  H27A 5470   5.010   6.112   3.958 -0.3651 -0.5066  0.7474
   58CHL1  H27B 5471   5.135   5.972   3.920  1.7829  0.2635  0.3426
   58CHL1  H27C 5472   5.138   6.061   4.073 -1.7242  0.1284 -0.1379
   59CHL1    C3 5473   3.867   4.699   2.491  0.1555 -0.4399  0.3729
   59CHL1    H3 5474   3.847   4.808   2.493  0.3467 -0.4073  0.5547
   59CHL1    O3 5475   3.909   4.659   2.360  0.3716 -0.5656  0.5299
   59CHL1   H3' 5476   3.979   4.595   2.377  1.4238  0.1884 -0.7349
   59CHL1    C4 5477   3.986   4.687   2.592  0.7858 -0.2375  0.6014
   59CHL1   H4A 5478   4.031   4.586   2.584  1.5606  0.0232  1.3727
   59CHL1   H4B 5479   4.070   4.751   2.557  0.3917 -0.0681 -0.0317
   59CHL1    C5 5480   3.948   4.723   2.734  0.1843  0.1439  0.6599
   59CHL1    C6 5481   4.001   4.823   2.806 -0.0061 -0.0271  0.6616
   59CHL1    H6 5482   4.092   4.869   2.764 -0.2713  0.1770  0.3044
   59CHL1    C7 5483   3.969   4.862   2.945 -0.9439 -0.2456  0.7179
   59CHL1   H7A 5484   4.063   4.883   3.002  0.8664  0.1859 -2.2283
   59CHL1   H7B 5485   3.915   4.959   2.938  1.7403  1.2220 -1.5583
   59CHL1    C8 5486   3.882   4.750   3.012  0.1344 -0.5192 -0.8565
   59CHL1    H8 5487   3.949   4.664   3.034  0.4725 -1.1647 -3.9387
   59CHL1   C14 5488   3.815   4.805   3.140  0.1375 -0.6550  0.2214
   59CHL1   H14 5489   3.782   4.907   3.111  1.2893 -0.9652 -2.4613
   59CHL1   C15 5490   3.911   4.855   3.255  1.0046 -0.2238  0.0770
   59CHL1  H15A 5491   3.990   4.777   3.268  2.3574  0.9531 -0.7893
   59CHL1  H15B 5492   3.960   4.946   3.215 -0.4471  0.7149  0.3605
   59CHL1   C16 5493   3.819   4.867   3.376  0.4391  0.3568  0.7448
   59CHL1  H16A 5494   3.856   4.800   3.457  2.7411  0.3384 -0.2517
   59CHL1  H16B 5495   3.813   4.973   3.408 -0.9442  0.0255  1.6486
   59CHL1   C17 5496   3.679   4.804   3.332  0.3079 -0.1966 -0.0865
   59CHL1   H17 5497   3.610   4.886   3.302 -0.4488 -0.4961  0.8086
   59CHL1   C13 5498   3.707   4.725   3.205  0.8731  0.6690 -0.8038
   59CHL1   C18 5499   3.774   4.595   3.250  0.8248  0.4277  0.5719
   59CHL1  H18A 5500   3.830   4.538   3.172 -0.8941 -0.6416  0.0707
   59CHL1  H18B 5501   3.837   4.610   3.341  1.0705  1.4931  0.2467
   59CHL1  H18C 5502   3.693   4.527   3.282 -0.7287  1.8901 -0.1046
   59CHL1   C12 5503   3.594   4.694   3.108 -0.3287 -0.0224 -0.3422
   59CHL1  H12A 5504   3.525   4.611   3.135 -1.0493 -0.6615 -3.6853
   59CHL1  H12B 5505   3.529   4.782   3.083 -1.3368 -1.3357 -2.6998
   59CHL1   C11 5506   3.651   4.639   2.981 -0.0646 -0.9208  0.0974
   59CHL1  H11A 5507   3.677   4.533   3.000 -0.1375 -1.1002 -0.7658
   59CHL1  H11B 5508   3.567   4.646   2.908  1.4076 -0.1649 -1.5805
   59CHL1    C9 5509   3.769   4.723   2.912 -0.6995 -0.0408  0.5564
   59CHL1    H9 5510   3.725   4.821   2.885  1.2513  1.0942  1.2857
   59CHL1   C10 5511   3.820   4.647   2.783  0.1702 -0.2950  0.2594
   59CHL1   C19 5512   3.857   4.494   2.799 -0.0493 -0.2850 -0.4959
   59CHL1  H19A 5513   3.894   4.446   2.706 -0.3588 -1.2460 -0.1321
   59CHL1  H19B 5514   3.936   4.481   2.876 -1.4731 -0.9776  0.9156
   59CHL1  H19C 5515   3.769   4.436   2.834  0.4314  0.1173  1.4623
   59CHL1    C1 5516   3.709   4.654   2.672  0.3808  0.0341 -0.5433
   59CHL1   H1A 5517   3.629   4.581   2.695  0.3734  0.6517  1.5615
   59CHL1   H1B 5518   3.673   4.759   2.667  1.5063  0.5062  0.5894
   59CHL1    C2 5519   3.750   4.615   2.532  0.3585 -0.2574 -0.0622
   59CHL1   H2A 5520   3.659   4.635   2.470  0.6883 -0.2679 -0.5555
   59CHL1   H2B 5521   3.785   4.510   2.531  0.2537 -0.2930 -0.5098
   59CHL1   C20 5522   3.613   4.721   3.449 -0.0378 -0.4916  0.0769
   59CHL1   H20 5523   3.691   4.649   3.481  1.0919  0.9433  0.6618
   59CHL1   C21 5524   3.488   4.652   3.404 -0.1596 -0.4280  0.3313
   59CHL1  H21A 5525   3.439   4.620   3.498 -0.3514 -2.4190 -0.4094
   59CHL1  H21B 5526   3.480   4.567   3.333 -0.9334  1.3486 -1.8404
   59CHL1  H21C 5527   3.415   4.728   3.368 -0.1174  0.6724  2.4241
   59CHL1   C22 5528   3.577   4.809   3.578  0.2236  0.3176 -0.4489
   59CHL1  H22A 5529   3.667   4.873   3.592  0.5084  0.2812 -1.9232
   59CHL1  H22B 5530   3.492   4.878   3.563 -1.6602 -0.6717  4.1397
   59CHL1   C23 5531   3.555   4.741   3.712 -0.4071 -0.9114  0.0012
   59CHL1  H23A 5532   3.468   4.675   3.691 -0.3628 -0.5829 -1.3193
   59CHL1  H23B 5533   3.645   4.677   3.721 -0.5364 -0.8565  2.1928
   59CHL1   C24 5534   3.537   4.833   3.832 -0.2371 -0.3996 -0.0938
   59CHL1  H24A 5535   3.620   4.906   3.839  1.0517 -1.6701 -1.4203
   59CHL1  H24B 5536   3.447   4.889   3.799  1.7317  2.0287 -1.7141
   59CHL1   C25 5537   3.523   4.764   3.968  0.3329 -0.3890  0.2208
   59CHL1   H25 5538   3.617   4.713   3.997  1.5305  0.9648 -1.0688
   59CHL1   C26 5539   3.497   4.871   4.074  0.3183 -0.4028 -0.4214
   59CHL1  H26A 5540   3.570   4.955   4.074  0.7200 -0.7056  1.3486
   59CHL1  H26B 5541   3.394   4.910   4.061  0.6916  1.1663  0.9734
   59CHL1  H26C 5542   3.487   4.829   4.177 -0.3415  0.8398  0.0418
   59CHL1   C27 5543   3.413   4.658   3.978  0.4365  0.0947 -0.4947
   59CHL1  H27A 5544   3.435   4.571   3.913 -0.9189  0.3777 -1.3707
   59CHL1  H27B 5545   3.418   4.622   4.083  0.8165  0.3305 -0.4278
   59CHL1  H27C 5546   3.316   4.710   3.960 -0.3675 -0.6768  1.3883
   60CHL1    C3 5547   4.489   2.468   3.194  0.3166 -0.0145 -0.6305
   60CHL1    H3 5548   4.572   2.542   3.195  1.0981 -0.8651 -0.4722
   60CHL1    O3 5549   4.483   2.398   3.070  0.5410 -0.2561 -0.1089
   60CHL1   H3' 5550   4.516   2.457   3.002 -0.3664 -0.6532 -0.9341
   60CHL1    C4 5551   4.518   2.364   3.308 -0.0556 -0.5575  0.0464
   60CHL1   H4A 5552   4.457   2.272   3.291  1.4548 -1.9698  1.7924
   60CHL1   H4B 5553   4.623   2.336   3.286  0.7561  2.7013 -0.7103
   60CHL1    C5 5554   4.494   2.415   3.448  0.0197  0.6761 -1.1551
   60CHL1    C6 5555   4.578   2.376   3.553  0.3351  0.2494  0.3984
   60CHL1    H6 5556   4.666   2.314   3.528  0.1627  0.3227 -0.4215
   60CHL1    C7 5557   4.562   2.418   3.697 -0.0808  0.5451 -0.3497
   60CHL1   H7A 5558   4.592   2.340   3.770 -1.2772  0.5489  0.1792
   60CHL1   H7B 5559   4.631   2.502   3.719  1.5922 -1.1502  1.3132
   60CHL1    C8 5560   4.420   2.467   3.726 -0.5102 -0.3297 -0.0010
   60CHL1    H8 5561   4.356   2.376   3.724 -0.4670 -0.3532 -0.8172
   60CHL1   C14 5562   4.409   2.543   3.853  0.3474 -0.6400 -0.5697
   60CHL1   H14 5563   4.462   2.639   3.838  0.9849 -0.9293 -0.2094
   60CHL1   C15 5564   4.472   2.478   3.978 -0.1824  0.1703  0.4745
   60CHL1  H15A 5565   4.450   2.370   3.968  2.2392 -0.4569  1.1412
   60CHL1  H15B 5566   4.583   2.482   3.988 -0.2953  0.0637  1.9873
   60CHL1   C16 5567   4.406   2.550   4.095  0.3998 -0.1053 -0.1042
   60CHL1  H16A 5568   4.366   2.473   4.164 -1.7889 -0.6738 -1.8711
   60CHL1  H16B 5569   4.477   2.618   4.147  1.1408 -3.0430  2.9847
   60CHL1   C17 5570   4.294   2.641   4.037 -0.3942 -0.3714  0.9733
   60CHL1   H17 5571   4.331   2.745   4.030  0.7467 -0.8800 -1.4258
   60CHL1   C13 5572   4.270   2.581   3.895 -0.2882  0.3509  0.0113
   60CHL1   C18 5573   4.187   2.457   3.914  0.1451  0.5513  0.0580
   60CHL1  H18A 5574   4.091   2.481   3.963  1.4362 -0.7564  3.5453
   60CHL1  H18B 5575   4.165   2.403   3.820 -2.3108  1.1476  0.2154
   60CHL1  H18C 5576   4.238   2.386   3.982  0.9249  2.6777  1.8131
   60CHL1   C12 5577   4.215   2.670   3.791  0.0855  0.3225  0.9450
   60CHL1  H12A 5578   4.110   2.699   3.817 -0.7634 -2.1556  0.4940
   60CHL1  H12B 5579   4.281   2.759   3.796 -2.6359  2.5585  0.3212
   60CHL1   C11 5580   4.227   2.617   3.653 -0.0965  0.2640  0.3226
   60CHL1  H11A 5581   4.151   2.537   3.646  1.2070 -0.9692 -0.0318
   60CHL1  H11B 5582   4.186   2.694   3.584  1.0566 -0.6897 -1.4625
   60CHL1    C9 5583   4.366   2.562   3.612  0.9765 -0.0296 -0.2388
   60CHL1    H9 5584   4.435   2.650   3.608  0.4308  0.4219  0.1055
   60CHL1   C10 5585   4.369   2.493   3.473 -0.1257  0.4087  0.2870
   60CHL1   C19 5586   4.245   2.403   3.448  0.8568  0.5150  0.2435
   60CHL1  H19A 5587   4.233   2.332   3.532 -0.6800  1.5314  0.9331
   60CHL1  H19B 5588   4.153   2.464   3.446  0.0023 -0.5876  2.5664
   60CHL1  H19C 5589   4.250   2.339   3.357 -0.1283 -0.8265  1.0872
   60CHL1    C1 5590   4.367   2.605   3.369  0.9420 -0.0119  0.0480
   60CHL1   H1A 5591   4.279   2.667   3.393  2.2050  1.9732 -0.2161
   60CHL1   H1B 5592   4.461   2.663   3.383  1.1903 -0.9571  3.0261
   60CHL1    C2 5593   4.362   2.550   3.220 -0.3054  0.1937 -0.1707
   60CHL1   H2A 5594   4.355   2.628   3.141 -1.9319  0.5929  0.3371
   60CHL1   H2B 5595   4.264   2.499   3.206 -0.1472 -0.4589  0.9679
   60CHL1   C20 5596   4.175   2.655   4.131 -0.0212  0.4719 -0.5540
   60CHL1   H20 5597   4.141   2.550   4.146 -2.8868  1.3370 -0.4495
   60CHL1   C21 5598   4.057   2.734   4.074  0.6352 -0.1907 -0.0068
   60CHL1  H21A 5599   3.987   2.764   4.154  2.6881  1.9413  1.1013
   60CHL1  H21B 5600   3.994   2.682   3.999  1.1451 -0.8149 -0.0104
   60CHL1  H21C 5601   4.093   2.820   4.013  1.2280  2.3582  3.6128
   60CHL1   C22 5602   4.213   2.708   4.279  0.4339 -0.1325 -0.0240
   60CHL1  H22A 5603   4.308   2.657   4.303 -0.1979 -2.3606 -1.8492
   60CHL1  H22B 5604   4.238   2.815   4.264  1.6332 -0.4873 -0.7005
   60CHL1   C23 5605   4.104   2.686   4.388 -0.3142  0.0344  0.2672
   60CHL1  H23A 5606   4.008   2.731   4.355 -0.8618  1.1507  3.0891
   60CHL1  H23B 5607   4.089   2.576   4.392  0.4221 -0.0581  0.7680
   60CHL1   C24 5608   4.153   2.736   4.526 -0.2805  0.4090  0.8271
   60CHL1  H24A 5609   4.244   2.674   4.543 -1.0014 -0.1212  3.0878
   60CHL1  H24B 5610   4.193   2.839   4.519  1.3009 -0.1168  1.4606
   60CHL1   C25 5611   4.052   2.742   4.635 -0.2312 -0.8319 -0.4177
   60CHL1   H25 5612   4.001   2.643   4.629 -1.2460 -0.2464 -3.6195
   60CHL1   C26 5613   4.115   2.773   4.771  0.4764  0.1369  0.2535
   60CHL1  H26A 5614   4.170   2.868   4.758 -1.9657  1.9713  2.3711
   60CHL1  H26B 5615   4.037   2.799   4.846 -0.8537  0.7006 -1.2830
   60CHL1  H26C 5616   4.185   2.694   4.807  0.0087 -0.6897 -0.6091
   60CHL1   C27 5617   3.943   2.850   4.612  0.1514  0.0251 -0.0161
   60CHL1  H27A 5618   3.874   2.819   4.530 -2.5251  0.5366  1.8966
   60CHL1  H27B 5619   3.890   2.869   4.708  1.5323  1.4287  0.5086
   60CHL1  H27C 5620   3.995   2.942   4.579  1.9875 -0.9601 -0.0105
   61CHL1    C3 5621   6.506   6.016   2.743 -0.9475  0.0615 -0.0062
   61CHL1    H3 5622   6.530   6.120   2.773 -0.4384  0.8425 -2.7684
   61CHL1    O3 5623   6.526   6.024   2.602  0.2681 -0.4076 -0.5983
   61CHL1   H3' 5624   6.456   5.971   2.564 -0.1213 -0.3436  0.0109
   61CHL1    C4 5625   6.598   5.895   2.788  0.3588 -0.8461 -0.7168
   61CHL1   H4A 5626   6.564   5.796   2.750 -0.9268 -0.6939 -0.0276
   61CHL1   H4B 5627   6.705   5.902   2.758  1.6163  0.1681  3.3426
   61CHL1    C5 5628   6.596   5.898   2.943 -0.2783 -0.5346  0.7469
   61CHL1    C6 5629   6.714   5.913   3.005 -0.2254 -0.1454 -0.0508
   61CHL1    H6 5630   6.809   5.937   2.955  1.1799 -1.4553  1.8511
   61CHL1    C7 5631   6.718   5.922   3.157 -0.3549  0.0330 -0.0907
   61CHL1   H7A 5632   6.806   5.872   3.202  0.7815  0.0095 -2.2175
   61CHL1   H7B 5633   6.730   6.026   3.193  0.1814 -0.0282 -0.0957
   61CHL1    C8 5634   6.593   5.858   3.230  0.3882 -0.4536 -0.9762
   61CHL1    H8 5635   6.592   5.748   3.217 -3.2511 -0.7498  0.6484
   61CHL1   C14 5636   6.583   5.889   3.383 -0.4648  0.3430  0.0899
   61CHL1   H14 5637   6.581   6.000   3.390  1.4362  0.3776  0.3672
   61CHL1   C15 5638   6.707   5.840   3.463  0.3719  0.1847  0.0393
   61CHL1  H15A 5639   6.715   5.730   3.451  3.7114  0.1366  1.7324
   61CHL1  H15B 5640   6.796   5.899   3.432 -1.0261  0.5755 -3.7810
   61CHL1   C16 5641   6.648   5.864   3.605 -0.6815 -0.3999 -0.5795
   61CHL1  H16A 5642   6.691   5.802   3.688 -2.1776  0.6973  1.0876
   61CHL1  H16B 5643   6.683   5.962   3.644  0.2894 -1.0188  0.1719
   61CHL1   C17 5644   6.491   5.875   3.599  0.5160  0.5374  0.0320
   61CHL1   H17 5645   6.477   5.985   3.605  2.0862  0.8748 -1.5480
   61CHL1   C13 5646   6.458   5.826   3.453  0.1329  0.4652 -0.5030
   61CHL1   C18 5647   6.455   5.678   3.441  0.2697  0.9930  0.4176
   61CHL1  H18A 5648   6.482   5.637   3.342 -0.1825  0.8691  0.3442
   61CHL1  H18B 5649   6.528   5.626   3.507 -0.0518 -0.4601 -0.3329
   61CHL1  H18C 5650   6.360   5.627   3.466  0.3646  0.1066 -0.9548
   61CHL1   C12 5651   6.339   5.890   3.388  0.9973 -0.2672  0.0391
   61CHL1  H12A 5652   6.250   5.857   3.445  0.4973  2.0847  0.7123
   61CHL1  H12B 5653   6.356   5.998   3.408  0.2196 -0.2720  0.7501
   61CHL1   C11 5654   6.329   5.858   3.237  0.5123 -0.3672  0.1583
   61CHL1  H11A 5655   6.302   5.751   3.228 -0.2682 -0.0734 -1.2211
   61CHL1  H11B 5656   6.248   5.925   3.201  0.8874 -0.0271 -0.0552
   61CHL1    C9 5657   6.458   5.905   3.163 -0.1069  1.0050  1.3579
   61CHL1    H9 5658   6.446   6.015   3.164  0.5172  1.2078 -1.8771
   61CHL1   C10 5659   6.454   5.880   3.001 -0.3710  0.2943 -0.0708
   61CHL1   C19 5660   6.409   5.733   2.977  0.0776  0.4558  0.3209
   61CHL1  H19A 5661   6.481   5.660   3.020  1.6973  1.2056 -0.9835
   61CHL1  H19B 5662   6.316   5.707   3.030 -0.1220 -0.8501 -0.6115
   61CHL1  H19C 5663   6.386   5.724   2.869 -2.6513 -1.2341  0.9542
   61CHL1    C1 5664   6.351   5.978   2.937 -0.1746 -0.2173  0.4468
   61CHL1   H1A 5665   6.245   5.959   2.963 -1.3008  1.3953 -2.5297
   61CHL1   H1B 5666   6.381   6.079   2.971 -1.1183  0.2290 -0.0248
   61CHL1    C2 5667   6.366   5.988   2.786 -0.4690  0.7853 -0.9217
   61CHL1   H2A 5668   6.291   6.060   2.748 -0.7602  0.4479 -0.9973
   61CHL1   H2B 5669   6.335   5.894   2.734 -1.6378  0.0962  0.9151
   61CHL1   C20 5670   6.434   5.799   3.716 -0.5841 -0.0764 -0.6726
   61CHL1   H20 5671   6.459   5.691   3.716 -1.8052 -0.3731 -0.2838
   61CHL1   C21 5672   6.280   5.806   3.711 -0.2035  1.3440 -0.4019
   61CHL1  H21A 5673   6.249   5.912   3.699 -0.4366  1.2588 -0.5491
   61CHL1  H21B 5674   6.232   5.750   3.794 -0.9331  1.9783 -0.3812
   61CHL1  H21C 5675   6.245   5.755   3.619 -0.3109  0.2377  0.2410
   61CHL1   C22 5676   6.483   5.836   3.856 -0.3416  0.1061 -0.1601
   61CHL1  H22A 5677   6.407   5.791   3.924 -0.0165  2.7085  2.1332
   61CHL1  H22B 5678   6.581   5.797   3.891  0.3887  1.3858 -0.7366
   61CHL1   C23 5679   6.479   5.984   3.883  0.1598  0.1792 -0.1617
   61CHL1  H23A 5680   6.560   6.031   3.823  1.1487  0.7585  1.5669
   61CHL1  H23B 5681   6.383   6.033   3.857 -0.2441 -1.3069 -1.6833
   61CHL1   C24 5682   6.508   6.005   4.036  0.3670 -0.2841  0.2848
   61CHL1  H24A 5683   6.414   5.970   4.083  0.2205  1.5155  1.4402
   61CHL1  H24B 5684   6.582   5.935   4.081  0.2594 -0.5147  0.1023
   61CHL1   C25 5685   6.550   6.151   4.066  1.0441  0.0095  0.6786
   61CHL1   H25 5686   6.510   6.207   3.979  1.7026  0.1106  0.4349
   61CHL1   C26 5687   6.479   6.198   4.194 -0.3655 -0.7004 -0.0833
   61CHL1  H26A 5688   6.523   6.297   4.215  0.0031 -0.5547 -1.4761
   61CHL1  H26B 5689   6.369   6.211   4.185 -0.1046  1.5451 -0.6605
   61CHL1  H26C 5690   6.509   6.131   4.277  1.0525  0.3502  0.2775
   61CHL1   C27 5691   6.709   6.160   4.078 -0.3652  0.2785 -0.0424
   61CHL1  H27A 5692   6.750   6.132   3.979 -1.1642 -5.1709  0.8176
   61CHL1  H27B 5693   6.746   6.263   4.095  3.1507 -0.4518 -2.3284
   61CHL1  H27C 5694   6.754   6.082   4.144  2.3697  1.1256 -0.7941
   62CHL1    C3 5695   1.946   4.948   2.421  0.2202  0.0764  0.3944
   62CHL1    H3 5696   1.902   5.049   2.405  1.9616  1.0369  1.3811
   62CHL1    O3 5697   1.940   4.878   2.297  0.4464 -0.6118 -0.1960
   62CHL1   H3' 5698   1.911   4.792   2.328  0.6995  0.0020  1.8816
   62CHL1    C4 5699   2.097   4.960   2.456 -0.3323 -0.3568  0.0091
   62CHL1   H4A 5700   2.137   4.860   2.429 -1.3024 -0.7722  0.0562
   62CHL1   H4B 5701   2.134   5.033   2.381 -0.1528 -0.6137 -0.1552
   62CHL1    C5 5702   2.119   5.006   2.602 -0.3513  0.0018  0.6657
   62CHL1    C6 5703   2.193   5.108   2.643 -0.2430  0.2817 -0.0139
   62CHL1    H6 5704   2.244   5.170   2.568 -1.5053 -0.0145 -1.1748
   62CHL1    C7 5705   2.229   5.138   2.781 -0.1664  0.2362 -0.2700
   62CHL1   H7A 5706   2.338   5.159   2.778 -0.3289  1.0682 -0.4988
   62CHL1   H7B 5707   2.167   5.221   2.821  0.1356  1.2804 -1.8697
   62CHL1    C8 5708   2.211   5.011   2.870  0.1433 -0.6312  0.1045
   62CHL1    H8 5709   2.286   4.934   2.844 -1.2600 -1.7565 -0.7223
   62CHL1   C14 5710   2.223   5.051   3.016  0.4378  0.3002 -0.0633
   62CHL1   H14 5711   2.141   5.123   3.039  1.1410  1.0544  0.1129
   62CHL1   C15 5712   2.348   5.121   3.065  0.1190 -0.2040  0.1196
   62CHL1  H15A 5713   2.445   5.083   3.026  1.3618  1.4267  1.4758
   62CHL1  H15B 5714   2.348   5.226   3.026 -0.6063 -1.1865 -2.7977
   62CHL1   C16 5715   2.347   5.106   3.214 -0.0631 -0.0399 -0.3413
   62CHL1  H16A 5716   2.444   5.059   3.240  0.0549  0.2403 -0.2781
   62CHL1  H16B 5717   2.332   5.197   3.275 -0.4601 -0.6765  0.5369
   62CHL1   C17 5718   2.224   5.011   3.246  0.4653  0.0490  0.5030
   62CHL1   H17 5719   2.134   5.072   3.266  0.5576  0.4923 -0.3872
   62CHL1   C13 5720   2.204   4.931   3.115 -0.2299 -0.0256  0.1073
   62CHL1   C18 5721   2.317   4.820   3.110 -0.8813  0.2189 -0.4936
   62CHL1  H18A 5722   2.298   4.741   3.185  0.7990 -0.0798 -0.3407
   62CHL1  H18B 5723   2.315   4.779   3.007  1.1617 -1.1816 -0.0257
   62CHL1  H18C 5724   2.415   4.868   3.133 -1.3221  0.4626  1.0129
   62CHL1   C12 5725   2.062   4.876   3.091  0.2872 -0.3509 -0.8884
   62CHL1  H12A 5726   2.035   4.792   3.159 -1.0707  1.7603  1.3788
   62CHL1  H12B 5727   1.989   4.954   3.119  2.2067  1.4621 -0.6680
   62CHL1   C11 5728   2.036   4.835   2.948  0.2898  0.2919  0.0137
   62CHL1  H11A 5729   2.091   4.739   2.948  0.4489  0.2887  2.8301
   62CHL1  H11B 5730   1.931   4.801   2.935  0.4055 -0.6962  1.5160
   62CHL1    C9 5731   2.072   4.946   2.846  0.2624 -0.0633  0.4494
   62CHL1    H9 5732   1.999   5.028   2.867 -0.2045 -0.7871  1.7573
   62CHL1   C10 5733   2.048   4.902   2.697 -0.0423 -0.7618  0.4605
   62CHL1   C19 5734   2.111   4.763   2.683 -0.1545  0.5506  0.1132
   62CHL1  H19A 5735   2.112   4.721   2.580  1.9476  0.7001  0.0394
   62CHL1  H19B 5736   2.215   4.764   2.723 -0.5736  1.9493  1.2528
   62CHL1  H19C 5737   2.059   4.685   2.743  0.4617  0.1405  0.1212
   62CHL1    C1 5738   1.897   4.907   2.661 -0.1790 -0.3700 -0.1086
   62CHL1   H1A 5739   1.846   4.822   2.712  2.0158 -1.2433  0.7795
   62CHL1   H1B 5740   1.855   5.007   2.682 -1.0744 -0.9550  0.9950
   62CHL1    C2 5741   1.867   4.863   2.516 -0.0825 -0.0728  0.3781
   62CHL1   H2A 5742   1.757   4.861   2.499  0.0661 -0.0821 -0.6783
   62CHL1   H2B 5743   1.896   4.756   2.512  0.3934  0.0794 -0.7868
   62CHL1   C20 5744   2.239   4.933   3.379  0.1478 -0.0865  0.0890
   62CHL1   H20 5745   2.269   4.829   3.357 -2.2338 -0.5168 -1.5712
   62CHL1   C21 5746   2.103   4.936   3.447 -0.1338 -0.4355  0.2183
   62CHL1  H21A 5747   2.081   5.035   3.493  2.3835  1.2154 -1.8544
   62CHL1  H21B 5748   2.089   4.853   3.520 -2.4055 -0.7397 -0.4599
   62CHL1  H21C 5749   2.024   4.901   3.377 -1.0465  0.6114  0.6969
   62CHL1   C22 5750   2.334   4.996   3.474 -0.6723 -0.5346 -0.5737
   62CHL1  H22A 5751   2.438   4.992   3.436 -0.0356 -3.1809  1.1611
   62CHL1  H22B 5752   2.293   5.099   3.482 -1.1059 -0.8173  1.4384
   62CHL1   C23 5753   2.344   4.942   3.613  0.3323  0.5285 -0.3413
   62CHL1  H23A 5754   2.243   4.931   3.658 -0.7080 -0.6587 -2.8021
   62CHL1  H23B 5755   2.376   4.836   3.605 -1.0041 -0.0413  1.1950
   62CHL1   C24 5756   2.442   5.010   3.707  0.2698  0.6213  0.0037
   62CHL1  H24A 5757   2.542   4.994   3.661 -0.2434 -1.2622 -0.5356
   62CHL1  H24B 5758   2.401   5.114   3.700 -3.6240 -0.6753  0.8177
   62CHL1   C25 5759   2.448   4.956   3.855 -0.6417  0.6861 -0.2476
   62CHL1   H25 5760   2.473   4.848   3.853  1.5526  1.0201  2.5898
   62CHL1   C26 5761   2.562   5.024   3.932  0.3220  0.0744  0.2326
   62CHL1  H26A 5762   2.559   5.135   3.924 -0.7002 -0.0498 -2.0385
   62CHL1  H26B 5763   2.566   4.991   4.038  0.2156  0.1429  0.2594
   62CHL1  H26C 5764   2.663   4.999   3.895  1.6288  2.5027  1.8509
   62CHL1   C27 5765   2.310   4.970   3.918  0.6406  0.0021  0.3714
   62CHL1  H27A 5766   2.230   4.899   3.888 -1.0724  1.4819  1.3247
   62CHL1  H27B 5767   2.324   4.959   4.028  0.5920 -1.2906  0.2686
   62CHL1  H27C 5768   2.275   5.074   3.901 -0.3277 -0.4558 -0.5124
   63CHL1    C3 5769   6.116   1.369   2.273  0.3850  0.3078  0.3769
   63CHL1    H3 5770   6.204   1.301   2.274  1.4637  1.5056 -2.1684
   63CHL1    O3 5771   6.099   1.418   2.142  0.1990  0.1108 -0.0573
   63CHL1   H3' 5772   6.102   1.513   2.156 -3.5702  0.2753  0.7952
   63CHL1    C4 5773   5.986   1.290   2.309 -0.3180 -0.0689  0.1453
   63CHL1   H4A 5774   5.901   1.359   2.287 -0.0370  0.1177 -0.3700
   63CHL1   H4B 5775   5.983   1.207   2.235 -2.1366  1.1108 -1.2024
   63CHL1    C5 5776   5.993   1.235   2.449  0.1442 -0.4937  0.2750
   63CHL1    C6 5777   5.979   1.100   2.468 -0.1069 -0.1746  0.1506
   63CHL1    H6 5778   5.952   1.041   2.380 -0.6893  1.6807 -0.9506
   63CHL1    C7 5779   5.991   1.032   2.606 -0.4647 -0.5599 -0.8885
   63CHL1   H7A 5780   5.919   0.949   2.621 -1.1992  0.2583  0.2784
   63CHL1   H7B 5781   6.085   0.975   2.623 -0.7939 -1.1232 -0.9524
   63CHL1    C8 5782   5.987   1.135   2.721  0.9367  1.0100 -0.6156
   63CHL1    H8 5783   5.880   1.164   2.722  0.4331 -0.6880 -1.3386
   63CHL1   C14 5784   6.031   1.074   2.854  0.6258  0.3410 -0.1037
   63CHL1   H14 5785   6.141   1.061   2.847  0.9817  0.4671  3.4475
   63CHL1   C15 5786   5.967   0.948   2.894  0.0376  0.6460  0.1541
   63CHL1  H15A 5787   5.857   0.957   2.882  0.2182  2.6003 -0.3233
   63CHL1  H15B 5788   6.001   0.859   2.837 -1.4996 -0.6349  1.1657
   63CHL1   C16 5789   5.995   0.932   3.045 -0.2959 -0.3167 -0.3850
   63CHL1  H16A 5790   5.898   0.911   3.095  0.8113 -2.5869  0.9019
   63CHL1  H16B 5791   6.068   0.860   3.086  1.2627  2.1063  1.3678
   63CHL1   C17 5792   6.051   1.068   3.087 -0.2539 -0.8333  1.3584
   63CHL1   H17 5793   6.162   1.065   3.086 -0.2292 -2.2268 -1.2520
   63CHL1   C13 5794   6.015   1.170   2.971 -0.3779  0.4446 -0.2553
   63CHL1   C18 5795   5.867   1.221   2.994 -0.4404 -0.1912 -0.4276
   63CHL1  H18A 5796   5.870   1.291   3.081  0.4414 -0.5639 -0.1409
   63CHL1  H18B 5797   5.823   1.274   2.907 -1.9408  1.7956  1.4264
   63CHL1  H18C 5798   5.796   1.140   3.018  0.2264 -0.2446  1.5758
   63CHL1   C12 5799   6.115   1.284   2.944 -0.5806 -0.2578  0.7248
   63CHL1  H12A 5800   6.097   1.365   3.018 -2.9541  0.4402 -0.5043
   63CHL1  H12B 5801   6.216   1.239   2.941 -0.3640  0.2695 -1.1647
   63CHL1   C11 5802   6.083   1.356   2.810 -0.1716  0.2518 -0.3593
   63CHL1  H11A 5803   5.982   1.400   2.826  0.1442  0.2036  2.1319
   63CHL1  H11B 5804   6.161   1.434   2.795 -1.0550  1.5926  1.6210
   63CHL1    C9 5805   6.068   1.264   2.692 -0.0040  0.8610 -0.6235
   63CHL1    H9 5806   6.172   1.224   2.687  0.4152  1.9096 -0.6824
   63CHL1   C10 5807   6.033   1.339   2.561  0.3559  0.6159  0.8126
   63CHL1   C19 5808   5.913   1.427   2.587 -0.1426  0.0653 -0.1708
   63CHL1  H19A 5809   5.938   1.515   2.650 -0.7892 -0.2007  0.4683
   63CHL1  H19B 5810   5.857   1.451   2.494 -0.2949 -1.8327 -0.6082
   63CHL1  H19C 5811   5.830   1.377   2.642 -1.0382  2.5922  0.9525
   63CHL1    C1 5812   6.161   1.418   2.513 -0.1301 -0.1738  1.0832
   63CHL1   H1A 5813   6.179   1.500   2.586  0.8572  0.2663  0.3647
   63CHL1   H1B 5814   6.241   1.340   2.505 -0.9857 -0.8540 -2.7125
   63CHL1    C2 5815   6.138   1.484   2.375 -0.2487 -0.7572  0.3144
   63CHL1   H2A 5816   6.231   1.542   2.358  0.1400 -1.3408  0.4535
   63CHL1   H2B 5817   6.058   1.561   2.373  1.4328  1.0508 -0.9642
   63CHL1   C20 5818   6.012   1.114   3.234 -0.9772 -0.2837  0.1403
   63CHL1   H20 5819   5.911   1.161   3.241 -1.0664 -0.0532 -1.9716
   63CHL1   C21 5820   6.123   1.213   3.276  0.2836 -0.7214  0.0688
   63CHL1  H21A 5821   6.218   1.177   3.321  0.8361  1.7963  1.0913
   63CHL1  H21B 5822   6.067   1.282   3.343 -1.0360 -0.8428 -0.8602
   63CHL1  H21C 5823   6.161   1.272   3.190 -0.7492 -2.1507 -1.4410
   63CHL1   C22 5824   6.004   1.010   3.348 -0.6590  0.4002 -0.9624
   63CHL1  H22A 5825   5.948   0.923   3.308 -0.4093 -0.5835  0.6943
   63CHL1  H22B 5826   6.110   0.977   3.358 -1.4160 -1.8932  0.1067
   63CHL1   C23 5827   5.933   1.072   3.473  0.0282  0.6322  0.0293
   63CHL1  H23A 5828   5.979   1.169   3.500 -2.4309  1.9007 -0.1529
   63CHL1  H23B 5829   5.827   1.099   3.456 -0.0497  0.3888  0.1281
   63CHL1   C24 5830   5.934   0.974   3.587  0.1802 -0.3335 -0.6880
   63CHL1  H24A 5831   5.892   0.877   3.553 -1.4398  0.9867 -2.6834
   63CHL1  H24B 5832   6.035   0.956   3.629 -0.5632  1.3803  2.0530
   63CHL1   C25 5833   5.839   1.030   3.700  0.4890  0.6247 -0.8009
   63CHL1   H25 5834   5.866   1.133   3.733 -1.8583  0.9651  0.3326
   63CHL1   C26 5835   5.686   1.037   3.680  0.1882  0.5161  0.3075
   63CHL1  H26A 5836   5.663   1.102   3.593  2.1451  1.2269  0.2552
   63CHL1  H26B 5837   5.634   0.942   3.658  0.0885  0.3075  1.4157
   63CHL1  H26C 5838   5.638   1.079   3.770  0.7623  0.9983  0.3981
   63CHL1   C27 5839   5.857   0.941   3.822 -0.5013 -0.2924  0.4955
   63CHL1  H27A 5840   5.782   0.985   3.890  0.7410  0.6675  1.2780
   63CHL1  H27B 5841   5.836   0.834   3.800 -0.6393  0.0695 -1.3588
   63CHL1  H27C 5842   5.959   0.936   3.866 -0.2858 -0.7914 -0.0453
   64CHL1    C3 5843   0.794   1.342   2.457  0.1611  0.7427  0.3032
   64CHL1    H3 5844   0.702   1.384   2.504  0.4438 -0.8116  2.4063
   64CHL1    O3 5845   0.770   1.307   2.319 -0.0608 -0.1356 -0.0692
   64CHL1   H3' 5846   0.858   1.274   2.299  0.6936  0.4206  2.1145
   64CHL1    C4 5847   0.889   1.462   2.463  0.0757  0.1076  0.0735
   64CHL1   H4A 5848   0.973   1.431   2.397 -1.4264 -3.1145 -0.5249
   64CHL1   H4B 5849   0.831   1.544   2.415  0.2815 -0.6472 -1.5260
   64CHL1    C5 5850   0.932   1.509   2.601  0.3238 -0.3028 -0.4004
   64CHL1    C6 5851   0.932   1.643   2.634 -0.0221 -0.5002  0.0960
   64CHL1    H6 5852   0.914   1.718   2.556  0.2632 -1.2319 -0.6864
   64CHL1    C7 5853   0.987   1.692   2.766 -0.4650  0.3264 -0.0786
   64CHL1   H7A 5854   1.068   1.762   2.735  0.3418  0.1056  1.4020
   64CHL1   H7B 5855   0.909   1.753   2.817 -0.2980  0.5371 -0.0707
   64CHL1    C8 5856   1.040   1.582   2.868 -0.0932  0.3015 -0.0002
   64CHL1    H8 5857   1.149   1.565   2.851  0.0056 -2.4222  2.4752
   64CHL1   C14 5858   1.021   1.628   3.009  0.3580  0.1316 -0.3724
   64CHL1   H14 5859   0.911   1.630   3.023  0.0736 -0.7365 -2.2423
   64CHL1   C15 5860   1.080   1.762   3.051  0.4545  0.0221  0.0217
   64CHL1  H15A 5861   1.179   1.782   3.005  0.5209  0.7530  0.4572
   64CHL1  H15B 5862   1.019   1.850   3.024 -4.0550 -1.7253  3.2799
   64CHL1   C16 5863   1.080   1.763   3.201  0.9238  0.4893 -0.6104
   64CHL1  H16A 5864   1.179   1.801   3.234  0.2053  1.5886  0.3376
   64CHL1  H16B 5865   1.001   1.832   3.237 -0.3681 -1.4129  0.3793
   64CHL1   C17 5866   1.059   1.620   3.242  0.0303  0.3010 -0.1960
   64CHL1   H17 5867   0.949   1.611   3.259 -0.3078 -0.1570 -2.2817
   64CHL1   C13 5868   1.087   1.534   3.116 -0.0010  1.0082 -0.2037
   64CHL1   C18 5869   1.240   1.517   3.098 -0.0280  0.7860  0.5275
   64CHL1  H18A 5870   1.285   1.606   3.146 -0.5746  0.6737  1.2524
   64CHL1  H18B 5871   1.282   1.433   3.158  1.6375 -0.1700 -1.7858
   64CHL1  H18C 5872   1.277   1.489   2.997  1.6515  0.2775  1.2409
   64CHL1   C12 5873   1.014   1.400   3.094 -0.0778  0.1798  0.4481
   64CHL1  H12A 5874   1.050   1.322   3.164  0.0014  0.4343  0.6913
   64CHL1  H12B 5875   0.905   1.422   3.106 -0.3312  0.5639 -1.9430
   64CHL1   C11 5876   1.025   1.342   2.948  0.4946 -0.7113 -0.1128
   64CHL1  H11A 5877   1.134   1.323   2.936  0.4872 -1.0668  0.3379
   64CHL1  H11B 5878   0.964   1.249   2.943  0.3454 -0.6184 -0.0403
   64CHL1    C9 5879   0.971   1.446   2.840 -0.5779 -0.7349  0.1018
   64CHL1    H9 5880   0.868   1.472   2.873 -0.9664 -0.7290 -1.0847
   64CHL1   C10 5881   0.966   1.391   2.698  0.2471 -0.3047  0.1728
   64CHL1   C19 5882   1.109   1.345   2.666  0.7781  0.8505  0.8615
   64CHL1  H19A 5883   1.186   1.414   2.706  0.7984  1.7959 -0.7438
   64CHL1  H19B 5884   1.125   1.245   2.713 -1.4622  0.2145  0.4065
   64CHL1  H19C 5885   1.129   1.322   2.560  0.2119 -0.0274  0.9339
   64CHL1    C1 5886   0.861   1.270   2.681  0.1730  0.2786  0.3385
   64CHL1   H1A 5887   0.898   1.184   2.742 -1.3979 -1.2705 -0.7854
   64CHL1   H1B 5888   0.767   1.309   2.727  0.3875  1.3585 -0.1187
   64CHL1    C2 5889   0.841   1.221   2.537 -0.0244  0.2333 -0.4754
   64CHL1   H2A 5890   0.755   1.152   2.548  2.2004 -2.5195  0.8112
   64CHL1   H2B 5891   0.927   1.175   2.483 -1.5886  0.5728 -3.5197
   64CHL1   C20 5892   1.124   1.576   3.377 -0.3818 -0.6650  0.4333
   64CHL1   H20 5893   1.234   1.568   3.361  0.0339  2.2571  1.3028
   64CHL1   C21 5894   1.064   1.443   3.419 -0.1318  0.2090 -0.1808
   64CHL1  H21A 5895   1.107   1.359   3.360  2.4977  0.7663  0.8042
   64CHL1  H21B 5896   0.954   1.446   3.406 -0.0795  0.2606 -0.6395
   64CHL1  H21C 5897   1.084   1.429   3.528 -0.4119  1.3376  0.0217
   64CHL1   C22 5898   1.095   1.690   3.482 -0.6704  0.0144 -0.1377
   64CHL1  H22A 5899   1.129   1.791   3.448 -0.7786  0.5417  1.2591
   64CHL1  H22B 5900   0.985   1.703   3.494 -0.4081  1.1148  1.2738
   64CHL1   C23 5901   1.147   1.667   3.629  0.2999 -0.0054  0.2584
   64CHL1  H23A 5902   1.080   1.586   3.664 -0.1164 -0.4193 -1.4147
   64CHL1  H23B 5903   1.254   1.639   3.619  0.2066 -0.1889 -0.2622
   64CHL1   C24 5904   1.149   1.780   3.731 -0.4266  0.1581 -0.0013
   64CHL1  H24A 5905   1.202   1.869   3.693  0.8403 -0.1706  0.9343
   64CHL1  H24B 5906   1.045   1.793   3.769 -0.3973 -0.6243  0.3885
   64CHL1   C25 5907   1.230   1.754   3.862  0.1712 -0.2611 -0.0409
   64CHL1   H25 5908   1.336   1.727   3.844  0.7146  0.8086  1.3291
   64CHL1   C26 5909   1.221   1.886   3.950 -0.2626  0.3588  0.6281
   64CHL1  H26A 5910   1.296   1.879   4.032 -1.4490 -2.7758  1.5997
   64CHL1  H26B 5911   1.227   1.981   3.892  4.7403 -0.5605 -0.8822
   64CHL1  H26C 5912   1.120   1.891   3.996  0.3430  0.4412  1.9961
   64CHL1   C27 5913   1.183   1.632   3.941 -0.3208 -0.4030  0.0821
   64CHL1  H27A 5914   1.198   1.535   3.888  1.6550 -0.8990  1.4590
   64CHL1  H27B 5915   1.255   1.614   4.024  1.5243  1.8462 -0.8921
   64CHL1  H27C 5916   1.080   1.646   3.979 -0.0609 -0.0913  0.6692
   65CHL1    C3 5917   1.607   5.333   2.769  0.1079  0.3941 -0.8111
   65CHL1    H3 5918   1.550   5.239   2.789  1.1457 -0.2143 -0.6424
   65CHL1    O3 5919   1.591   5.373   2.634 -0.2745 -0.5348 -0.1563
   65CHL1   H3' 5920   1.636   5.308   2.580  1.4220  0.3750  0.0832
   65CHL1    C4 5921   1.583   5.453   2.860  0.1470  0.0946 -0.6596
   65CHL1   H4A 5922   1.661   5.529   2.842  0.2331 -0.4351 -2.8005
   65CHL1   H4B 5923   1.483   5.500   2.847 -0.2296 -0.2456  0.8503
   65CHL1    C5 5924   1.587   5.417   3.009 -0.4465  0.0506  0.7968
   65CHL1    C6 5925   1.476   5.414   3.091  0.1406 -0.7320 -0.0952
   65CHL1    H6 5926   1.386   5.445   3.037  0.0692 -2.7092 -1.2343
   65CHL1    C7 5927   1.477   5.365   3.234 -0.1562  0.4266  0.3225
   65CHL1   H7A 5928   1.417   5.438   3.291 -0.7899 -0.9625  1.5034
   65CHL1   H7B 5929   1.432   5.264   3.242  0.8194 -0.0653 -0.1992
   65CHL1    C8 5930   1.617   5.356   3.296 -0.6903  0.1129  0.3831
   65CHL1    H8 5931   1.651   5.461   3.311  0.7785 -0.4167  0.8997
   65CHL1   C14 5932   1.629   5.286   3.434  0.3319 -0.2584 -0.0173
   65CHL1   H14 5933   1.610   5.178   3.417  1.5278 -0.2947 -1.3620
   65CHL1   C15 5934   1.534   5.320   3.550  0.0715  0.1110 -0.1099
   65CHL1  H15A 5935   1.520   5.430   3.564  1.7408  0.4856 -1.0222
   65CHL1  H15B 5936   1.435   5.271   3.548 -0.0659  0.3982 -0.7604
   65CHL1   C16 5937   1.609   5.273   3.671  0.1598 -0.1398  0.5288
   65CHL1  H16A 5938   1.638   5.364   3.728  0.5631  0.0515  0.0365
   65CHL1  H16B 5939   1.549   5.199   3.727 -0.1689 -0.7168 -0.5506
   65CHL1   C17 5940   1.742   5.205   3.621 -0.3916 -0.6663  0.1885
   65CHL1   H17 5941   1.710   5.101   3.600 -0.6033 -0.7779  1.0321
   65CHL1   C13 5942   1.764   5.287   3.488 -0.0856 -0.7057  0.3163
   65CHL1   C18 5943   1.809   5.430   3.518  0.1191 -0.1082  0.6720
   65CHL1  H18A 5944   1.734   5.497   3.565  2.3289  2.6211  0.5739
   65CHL1  H18B 5945   1.897   5.432   3.586 -0.2352 -1.6111  1.2364
   65CHL1  H18C 5946   1.831   5.487   3.426 -0.5776  0.0597  0.6046
   65CHL1   C12 5947   1.860   5.207   3.396  0.7189 -0.0775  0.2012
   65CHL1  H12A 5948   1.965   5.197   3.432  0.9807 -1.6172 -0.8807
   65CHL1  H12B 5949   1.822   5.104   3.379 -0.2373  0.2876  0.0478
   65CHL1   C11 5950   1.859   5.269   3.253  0.0614  0.3435 -0.3311
   65CHL1  H11A 5951   1.923   5.360   3.260  2.6383 -1.3668 -0.0332
   65CHL1  H11B 5952   1.914   5.197   3.188  0.2610 -0.4948  0.7410
   65CHL1    C9 5953   1.717   5.298   3.193 -0.0785 -0.0893  0.1609
   65CHL1    H9 5954   1.668   5.199   3.177 -1.6450  0.8141 -1.0407
   65CHL1   C10 5955   1.721   5.365   3.047  0.6772 -0.0165 -0.2803
   65CHL1   C19 5956   1.823   5.484   3.049  1.3738 -0.2802  0.3613
   65CHL1  H19A 5957   1.813   5.549   3.139 -0.1433  0.0715 -0.0282
   65CHL1  H19B 5958   1.924   5.439   3.051  1.0307 -1.0689  0.2964
   65CHL1  H19C 5959   1.834   5.549   2.959 -1.0288 -0.8414 -0.4104
   65CHL1    C1 5960   1.778   5.257   2.942 -0.3084 -0.5152 -0.2864
   65CHL1   H1A 5961   1.886   5.247   2.965 -0.1868  1.6467  0.3043
   65CHL1   H1B 5962   1.730   5.157   2.953  0.0304 -0.6961 -0.4217
   65CHL1    C2 5963   1.757   5.295   2.797  0.8568  0.4837 -0.1424
   65CHL1   H2A 5964   1.797   5.218   2.728  2.1731  0.8438  0.2028
   65CHL1   H2B 5965   1.813   5.389   2.779 -2.3188  2.3692 -1.0482
   65CHL1   C20 5966   1.855   5.201   3.723 -0.0359 -0.3573  0.6913
   65CHL1   H20 5967   1.952   5.234   3.681  0.2835 -1.0260  0.8798
   65CHL1   C21 5968   1.869   5.053   3.765  0.1399  0.3448 -0.8485
   65CHL1  H21A 5969   1.972   5.039   3.804 -0.7335  1.4824  2.1618
   65CHL1  H21B 5970   1.865   4.971   3.690  2.8538  0.2276 -0.9703
   65CHL1  H21C 5971   1.808   5.019   3.852  1.8362 -1.4886 -0.2951
   65CHL1   C22 5972   1.841   5.294   3.842 -0.1892 -0.3980 -0.3572
   65CHL1  H22A 5973   1.862   5.392   3.794  0.9970 -0.0933  0.7314
   65CHL1  H22B 5974   1.744   5.311   3.894 -0.3724  1.3254 -1.1823
   65CHL1   C23 5975   1.937   5.259   3.944  0.7147  0.7967 -0.7886
   65CHL1  H23A 5976   1.913   5.160   3.989  1.8705  1.1054  0.5684
   65CHL1  H23B 5977   2.035   5.240   3.894 -0.1211 -2.0812 -1.5172
   65CHL1   C24 5978   1.962   5.385   4.034  0.0880  0.3214 -1.0522
   65CHL1  H24A 5979   2.053   5.355   4.090 -0.1356 -0.9412 -1.3371
   65CHL1  H24B 5980   1.986   5.476   3.975  2.4771  0.7272  0.4214
   65CHL1   C25 5981   1.852   5.421   4.136 -0.0070 -0.2417 -0.0039
   65CHL1   H25 5982   1.757   5.410   4.080 -0.0482  1.7493 -0.4039
   65CHL1   C26 5983   1.845   5.314   4.250  0.0491 -0.0826 -0.1134
   65CHL1  H26A 5984   1.827   5.213   4.206 -0.1334 -0.2395  0.3172
   65CHL1  H26B 5985   1.941   5.317   4.306 -1.9545  1.1012  3.5685
   65CHL1  H26C 5986   1.761   5.336   4.319 -0.2593 -1.9272  0.1519
   65CHL1   C27 5987   1.862   5.568   4.193 -0.4191  0.6048 -0.3120
   65CHL1  H27A 5988   1.793   5.588   4.278  0.6654 -0.7321  0.9405
   65CHL1  H27B 5989   1.966   5.590   4.223 -0.3693  1.0078 -0.7571
   65CHL1  H27C 5990   1.836   5.635   4.108  0.0117 -1.6257 -2.3084
   66CHL1    C3 5991   6.137   6.414   2.727  0.7894  0.0876 -0.3614
   66CHL1    H3 5992   6.090   6.498   2.671  0.1522  0.4575  0.6766
   66CHL1    O3 5993   6.234   6.362   2.637  0.1675  0.0441 -0.1939
   66CHL1   H3' 5994   6.217   6.412   2.557  0.7702  1.5253  0.5685
   66CHL1    C4 5995   6.207   6.457   2.850  0.2143 -0.4555 -0.9624
   66CHL1   H4A 5996   6.276   6.372   2.872 -0.2642 -0.9945 -1.5198
   66CHL1   H4B 5997   6.264   6.551   2.834 -0.2779  0.2943  1.3596
   66CHL1    C5 5998   6.115   6.485   2.972 -0.8098 -0.7473  0.4258
   66CHL1    C6 5999   6.138   6.594   3.047 -0.3061 -0.1810  0.1471
   66CHL1    H6 6000   6.217   6.660   3.008 -0.7813  0.6065  0.4854
   66CHL1    C7 6001   6.063   6.626   3.171 -0.2180 -0.4809  0.2694
   66CHL1   H7A 6002   6.134   6.660   3.249  0.8752  0.6311 -1.1398
   66CHL1   H7B 6003   5.996   6.714   3.162  1.6686  0.9226 -1.1792
   66CHL1    C8 6004   5.981   6.503   3.224  0.0164  0.0081  0.0595
   66CHL1    H8 6005   6.054   6.432   3.269 -0.5650  0.9686  2.7209
   66CHL1   C14 6006   5.880   6.549   3.330  0.1763  1.1544 -1.0017
   66CHL1   H14 6007   5.809   6.620   3.281 -1.2849  2.3031  2.4816
   66CHL1   C15 6008   5.940   6.626   3.455  0.0636 -1.3131  0.7065
   66CHL1  H15A 6009   6.038   6.587   3.491  1.0552  2.1168  2.0604
   66CHL1  H15B 6010   5.959   6.728   3.415 -0.5217 -0.9773  1.2723
   66CHL1   C16 6011   5.829   6.621   3.558 -0.5976  0.3853  0.4397
   66CHL1  H16A 6012   5.863   6.567   3.649  0.8917  1.1402  0.3473
   66CHL1  H16B 6013   5.778   6.718   3.573  0.6481  1.4211 -1.6015
   66CHL1   C17 6014   5.720   6.524   3.499  0.7258 -0.0244 -0.1332
   66CHL1   H17 6015   5.656   6.596   3.444  0.2393  0.7939  1.4335
   66CHL1   C13 6016   5.790   6.443   3.390 -0.7475  0.7172  0.4213
   66CHL1   C18 6017   5.877   6.336   3.465 -0.5006  0.0339 -1.2590
   66CHL1  H18A 6018   5.960   6.285   3.412 -0.3396 -1.4788  0.3734
   66CHL1  H18B 6019   5.919   6.373   3.561 -2.2741 -0.2136 -0.3304
   66CHL1  H18C 6020   5.806   6.261   3.506 -1.8988  0.1216 -3.3570
   66CHL1   C12 6021   5.711   6.379   3.273  0.1091  0.3503 -0.2343
   66CHL1  H12A 6022   5.658   6.289   3.312  1.2502 -1.1009 -1.8483
   66CHL1  H12B 6023   5.640   6.449   3.223  1.4344  2.0968  0.2499
   66CHL1   C11 6024   5.805   6.322   3.160  0.7790  0.1294  0.2067
   66CHL1  H11A 6025   5.865   6.234   3.191  0.5380  0.0349  0.4149
   66CHL1  H11B 6026   5.733   6.288   3.082  1.0290  5.4892 -2.8774
   66CHL1    C9 6027   5.904   6.433   3.108  0.6182 -0.8599  0.0865
   66CHL1    H9 6028   5.839   6.502   3.051  0.4622 -0.6245  0.5399
   66CHL1   C10 6029   6.009   6.378   3.009  0.0872 -0.0973  0.0965
   66CHL1   C19 6030   6.092   6.248   3.059 -0.4515  0.3106  0.3771
   66CHL1  H19A 6031   6.028   6.159   3.075  1.2475 -0.6183  2.4680
   66CHL1  H19B 6032   6.169   6.211   2.988  0.0319  0.4104  0.8401
   66CHL1  H19C 6033   6.148   6.263   3.154 -0.0839  4.0776 -0.2841
   66CHL1    C1 6034   5.937   6.354   2.871  0.1274  0.1902 -0.2682
   66CHL1   H1A 6035   5.863   6.271   2.876  0.2872  0.1054  1.1689
   66CHL1   H1B 6036   5.895   6.451   2.838  1.7295  1.2325  0.5912
   66CHL1    C2 6037   6.029   6.309   2.754  0.2574  0.3400 -0.0489
   66CHL1   H2A 6038   5.969   6.280   2.665  0.0492 -1.3351  0.5957
   66CHL1   H2B 6039   6.075   6.213   2.783 -1.1563 -1.4916 -3.3013
   66CHL1   C20 6040   5.627   6.451   3.600 -0.4660  0.6782 -0.0819
   66CHL1   H20 6041   5.690   6.376   3.652 -1.5696  0.9046  1.6512
   66CHL1   C21 6042   5.518   6.362   3.536 -0.1541 -0.8020  0.0678
   66CHL1  H21A 6043   5.453   6.416   3.463 -1.5994 -1.4690  0.8162
   66CHL1  H21B 6044   5.448   6.318   3.611 -1.2339 -1.2297 -1.1443
   66CHL1  H21C 6045   5.560   6.273   3.485 -1.2217  0.3827 -3.1337
   66CHL1   C22 6046   5.563   6.552   3.700 -0.2260  0.0517 -0.4650
   66CHL1  H22A 6047   5.513   6.486   3.773  1.3140 -1.6745 -0.8968
   66CHL1  H22B 6048   5.644   6.603   3.757  1.0876 -2.6729  0.2963
   66CHL1   C23 6049   5.457   6.644   3.648  0.9424 -0.0177 -0.0594
   66CHL1  H23A 6050   5.506   6.711   3.574 -1.5924  0.2859 -1.5718
   66CHL1  H23B 6051   5.381   6.590   3.587  0.9487 -0.5592  0.4048
   66CHL1   C24 6052   5.387   6.731   3.748  0.0451  0.6313  0.0361
   66CHL1  H24A 6053   5.340   6.675   3.832  0.7090 -1.1409 -0.7185
   66CHL1  H24B 6054   5.468   6.782   3.806  2.7347 -0.8822 -2.1240
   66CHL1   C25 6055   5.290   6.829   3.692  0.1576 -0.0054  0.3137
   66CHL1   H25 6056   5.325   6.871   3.595 -2.9296  2.3000  0.0189
   66CHL1   C26 6057   5.152   6.763   3.646  0.1030  0.1884 -0.9385
   66CHL1  H26A 6058   5.120   6.697   3.729 -1.3570  1.5884 -0.3304
   66CHL1  H26B 6059   5.077   6.845   3.649 -0.2835 -0.1858  0.2932
   66CHL1  H26C 6060   5.159   6.708   3.550 -1.3407 -1.4892 -0.1377
   66CHL1   C27 6061   5.266   6.946   3.790 -0.3022  0.0618  0.1878
   66CHL1  H27A 6062   5.180   7.004   3.750 -1.0501 -0.6431  0.7442
   66CHL1  H27B 6063   5.355   7.012   3.800  0.4489 -1.2114  2.9551
   66CHL1  H27C 6064   5.233   6.906   3.888 -0.5426 -2.5165 -0.8749
   67CHL1    C3 6065   4.996   2.785   2.937  0.2415  0.3506  0.7157
   67CHL1    H3 6066   5.022   2.893   2.944  0.7302  0.3024 -0.1479
   67CHL1    O3 6067   4.998   2.743   2.797  0.4260 -0.0919  0.0712
   67CHL1   H3' 6068   4.959   2.816   2.748 -1.8320 -0.2536  1.4741
   67CHL1    C4 6069   5.092   2.683   3.007  0.0853  0.2408 -0.7263
   67CHL1   H4A 6070   5.067   2.582   2.969  0.9314 -0.3469  0.2645
   67CHL1   H4B 6071   5.197   2.697   2.975 -0.2684  2.1221 -1.1858
   67CHL1    C5 6072   5.076   2.698   3.157  0.7237 -1.2786  0.0850
   67CHL1    C6 6073   5.186   2.725   3.241  1.0813  0.0401  0.0971
   67CHL1    H6 6074   5.286   2.733   3.196  0.3466  1.4063 -1.4149
   67CHL1    C7 6075   5.182   2.750   3.393  0.0565  0.0732 -0.5115
   67CHL1   H7A 6076   5.265   2.701   3.449 -0.3232 -0.8413 -0.7309
   67CHL1   H7B 6077   5.194   2.860   3.408  0.1320  0.3080 -2.1065
   67CHL1    C8 6078   5.048   2.706   3.454 -0.8364  0.4908  0.2212
   67CHL1    H8 6079   5.052   2.596   3.470  1.8285  0.7746  2.2839
   67CHL1   C14 6080   5.043   2.756   3.596 -0.4309 -0.2045 -0.2634
   67CHL1   H14 6081   5.033   2.866   3.585  2.1360  0.1319  0.2120
   67CHL1   C15 6082   5.166   2.739   3.694  0.5283  0.2740 -0.3275
   67CHL1  H15A 6083   5.189   2.631   3.696 -1.7235 -0.2599 -0.1531
   67CHL1  H15B 6084   5.257   2.792   3.659  0.0137  1.0671 -0.5097
   67CHL1   C16 6085   5.099   2.788   3.831  0.0761  0.5170  0.1375
   67CHL1  H16A 6086   5.113   2.711   3.909 -2.9136 -0.0686  0.2152
   67CHL1  H16B 6087   5.144   2.879   3.876 -0.9288  1.3300 -0.4384
   67CHL1   C17 6088   4.937   2.789   3.804 -0.0373  0.2441  0.0246
   67CHL1   H17 6089   4.923   2.897   3.780 -2.2776 -0.7290 -3.8325
   67CHL1   C13 6090   4.908   2.718   3.671 -0.1042  0.4543  0.1747
   67CHL1   C18 6091   4.908   2.572   3.709  0.1676  0.2319  0.6870
   67CHL1  H18A 6092   4.942   2.506   3.627 -1.3362 -1.1642  1.1409
   67CHL1  H18B 6093   4.974   2.563   3.798 -0.0183  1.1629  0.9410
   67CHL1  H18C 6094   4.806   2.541   3.741  0.6861 -1.2598  0.9434
   67CHL1   C12 6095   4.796   2.764   3.586  0.2943  0.2345 -0.7573
   67CHL1  H12A 6096   4.705   2.730   3.640  1.2040 -1.7941 -0.4061
   67CHL1  H12B 6097   4.786   2.874   3.591 -1.8162  0.0382  2.1286
   67CHL1   C11 6098   4.792   2.712   3.432 -0.4751  0.0194  0.2282
   67CHL1  H11A 6099   4.790   2.602   3.449  0.8894 -0.2365 -1.0585
   67CHL1  H11B 6100   4.702   2.747   3.379  0.3527  1.2727 -0.3846
   67CHL1    C9 6101   4.930   2.746   3.364  0.3353 -0.1360 -0.1828
   67CHL1    H9 6102   4.935   2.857   3.359  0.2568 -0.1779 -1.8700
   67CHL1   C10 6103   4.934   2.697   3.218  0.2866 -0.1686  0.5792
   67CHL1   C19 6104   4.880   2.548   3.202  0.3531 -0.1782 -0.4777
   67CHL1  H19A 6105   4.775   2.547   3.238  0.7570  1.0443  0.8008
   67CHL1  H19B 6106   4.884   2.518   3.095  0.4612 -0.0576 -0.5074
   67CHL1  H19C 6107   4.936   2.483   3.273 -0.6901 -0.1396  0.4046
   67CHL1    C1 6108   4.845   2.795   3.137 -0.0830  0.0008 -0.1830
   67CHL1   H1A 6109   4.740   2.782   3.171 -0.2225  0.0104 -0.6024
   67CHL1   H1B 6110   4.860   2.903   3.159  1.3735 -0.7970  3.2830
   67CHL1    C2 6111   4.853   2.772   2.986 -0.0431  0.8656  0.5284
   67CHL1   H2A 6112   4.789   2.845   2.931 -2.5234 -1.5235  0.0156
   67CHL1   H2B 6113   4.818   2.668   2.968  1.9107  0.0084  1.3862
   67CHL1   C20 6114   4.853   2.767   3.929  0.6996 -0.0857 -0.0493
   67CHL1   H20 6115   4.837   2.659   3.951  1.0102 -0.2392 -0.5703
   67CHL1   C21 6116   4.718   2.840   3.899 -0.2381 -0.2961  0.1202
   67CHL1  H21A 6117   4.740   2.935   3.845 -3.0191 -0.4939 -1.6023
   67CHL1  H21B 6118   4.660   2.861   3.991  1.0427  0.1351  0.8416
   67CHL1  H21C 6119   4.653   2.781   3.830  0.5322 -0.8459 -0.1370
   67CHL1   C22 6120   4.924   2.832   4.053  0.2409 -0.1246  0.3119
   67CHL1  H22A 6121   5.021   2.780   4.067  0.1068 -0.9478 -1.5428
   67CHL1  H22B 6122   4.924   2.941   4.032  0.3108  0.1026  1.4262
   67CHL1   C23 6123   4.854   2.813   4.187 -0.3087 -0.0289 -0.6160
   67CHL1  H23A 6124   4.744   2.803   4.175 -0.7457  3.3235 -0.5097
   67CHL1  H23B 6125   4.896   2.720   4.231  0.2117  0.5715  0.1899
   67CHL1   C24 6126   4.885   2.924   4.289  0.2957 -0.7483  0.4016
   67CHL1  H24A 6127   4.852   2.904   4.393 -0.0106  2.4203  1.0355
   67CHL1  H24B 6128   4.996   2.932   4.296  0.2217 -0.7692  2.0406
   67CHL1   C25 6129   4.828   3.070   4.249  0.7613  0.0683  0.2296
   67CHL1   H25 6130   4.875   3.100   4.153  0.5118  0.2217  0.1568
   67CHL1   C26 6131   4.678   3.083   4.229  0.0612  0.1082  0.8953
   67CHL1  H26A 6132   4.630   3.041   4.320 -0.0082 -1.0538  0.3416
   67CHL1  H26B 6133   4.649   3.189   4.214  0.3084 -0.0079 -0.6203
   67CHL1  H26C 6134   4.642   3.026   4.140  1.6293 -0.5173  0.6229
   67CHL1   C27 6135   4.867   3.175   4.352 -0.2478 -0.1027 -0.1078
   67CHL1  H27A 6136   4.975   3.194   4.340 -0.1041 -0.0830  1.0483
   67CHL1  H27B 6137   4.806   3.268   4.343 -1.5188 -0.7946  0.9069
   67CHL1  H27C 6138   4.858   3.124   4.451  0.2830  1.3697  0.7354
   68CHL1    C3 6139   3.198   3.960   2.644  0.0921 -0.1294 -0.1571
   68CHL1    H3 6140   3.251   4.053   2.674  2.7207 -0.6387 -2.7034
   68CHL1    O3 6141   3.245   3.932   2.515 -0.2878 -0.2423  0.5760
   68CHL1   H3' 6142   3.219   3.842   2.493  0.6868 -0.5789  0.7510
   68CHL1    C4 6143   3.229   3.847   2.745 -0.5437 -0.0634  0.3578
   68CHL1   H4A 6144   3.190   3.748   2.711 -1.7105 -0.1305  1.7699
   68CHL1   H4B 6145   3.339   3.833   2.738 -0.4439  0.0127  1.5453
   68CHL1    C5 6146   3.178   3.878   2.877 -0.1906 -0.0342 -0.1222
   68CHL1    C6 6147   3.252   3.893   2.985  0.3189 -0.8916  0.3472
   68CHL1    H6 6148   3.358   3.868   2.968  0.6477  1.3396 -1.2623
   68CHL1    C7 6149   3.192   3.915   3.129 -0.0508  0.1234 -0.3692
   68CHL1   H7A 6150   3.241   3.838   3.192  0.0995  1.4596  1.2152
   68CHL1   H7B 6151   3.223   4.018   3.157  0.5600  0.1550 -1.1258
   68CHL1    C8 6152   3.034   3.904   3.138 -0.1547  0.0288 -0.3057
   68CHL1    H8 6153   3.017   3.796   3.125  0.1789  0.1487 -1.8814
   68CHL1   C14 6154   2.985   3.971   3.260 -0.0616  0.1693  0.1200
   68CHL1   H14 6155   3.011   4.079   3.264 -0.3153  0.2046  2.4065
   68CHL1   C15 6156   3.042   3.912   3.394  0.6687  0.3317 -0.5616
   68CHL1  H15A 6157   3.019   3.804   3.407  0.1775  0.6265  1.1964
   68CHL1  H15B 6158   3.147   3.945   3.411  1.0113 -0.3629 -1.2741
   68CHL1   C16 6159   2.942   3.983   3.503 -0.1571 -0.2187 -0.1025
   68CHL1  H16A 6160   2.911   3.904   3.575  2.6202 -0.5528  0.8538
   68CHL1  H16B 6161   2.992   4.062   3.562  0.8702 -2.7235  2.6599
   68CHL1   C17 6162   2.823   4.030   3.418  0.3157  0.3764  0.4876
   68CHL1   H17 6163   2.834   4.140   3.405  4.0380 -0.0170 -1.0290
   68CHL1   C13 6164   2.832   3.978   3.274 -0.5304 -0.0426 -0.1850
   68CHL1   C18 6165   2.777   3.826   3.267 -0.4718 -0.1154 -0.5510
   68CHL1  H18A 6166   2.817   3.769   3.353  2.5057  2.3946 -0.1068
   68CHL1  H18B 6167   2.666   3.829   3.279 -0.2895 -0.0665  1.6028
   68CHL1  H18C 6168   2.792   3.777   3.168  0.2868 -2.0518  0.4737
   68CHL1   C12 6169   2.781   4.068   3.158  0.0968 -0.3668 -0.1879
   68CHL1  H12A 6170   2.671   4.075   3.164 -0.0857 -2.2555 -0.5435
   68CHL1  H12B 6171   2.836   4.165   3.161 -0.4461 -0.0498 -0.3193
   68CHL1   C11 6172   2.819   4.005   3.024 -0.1763 -0.2982  0.0093
   68CHL1  H11A 6173   2.757   3.914   3.011 -2.8695  1.1394  1.9030
   68CHL1  H11B 6174   2.785   4.061   2.934 -0.4365 -2.6868 -1.4546
   68CHL1    C9 6175   2.974   3.969   3.021 -0.6233  0.2324  0.4059
   68CHL1    H9 6176   3.027   4.067   3.025 -1.1190  0.5043  0.5195
   68CHL1   C10 6177   3.024   3.906   2.878 -0.5254 -0.2605 -0.1045
   68CHL1   C19 6178   2.941   3.779   2.838  0.1582 -0.2219 -0.6637
   68CHL1  H19A 6179   2.838   3.808   2.807  0.4886  0.4899 -1.1149
   68CHL1  H19B 6180   2.975   3.735   2.742  0.2840 -0.4058 -0.5375
   68CHL1  H19C 6181   2.934   3.705   2.921 -3.7943 -1.6849 -2.0630
   68CHL1    C1 6182   2.987   4.014   2.765 -0.8695 -0.5227 -0.0729
   68CHL1   H1A 6183   2.878   4.000   2.749 -0.5525 -1.7165 -1.3049
   68CHL1   H1B 6184   3.005   4.112   2.816  1.6815  0.3463 -2.4071
   68CHL1    C2 6185   3.053   3.990   2.631 -0.4854 -0.7141  0.3012
   68CHL1   H2A 6186   3.025   4.075   2.565 -2.4007 -0.1314  1.7892
   68CHL1   H2B 6187   3.004   3.900   2.587  0.6437 -1.3498  0.2908
   68CHL1   C20 6188   2.693   4.002   3.500 -0.0109 -0.1871 -0.0593
   68CHL1   H20 6189   2.687   3.894   3.524  1.6132  0.2376  2.6976
   68CHL1   C21 6190   2.574   4.062   3.422  0.0339  0.3731  0.0317
   68CHL1  H21A 6191   2.595   4.171   3.409 -1.7093  0.7770  0.3922
   68CHL1  H21B 6192   2.482   4.046   3.482  0.1221  0.6095  0.2322
   68CHL1  H21C 6193   2.560   4.007   3.327  0.2256  2.3240 -1.1874
   68CHL1   C22 6194   2.708   4.077   3.631 -0.0899  0.3002 -0.3022
   68CHL1  H22A 6195   2.799   4.062   3.693 -0.5155  0.3766  0.3520
   68CHL1  H22B 6196   2.708   4.188   3.618 -1.0517  0.2577 -0.7042
   68CHL1   C23 6197   2.594   4.059   3.727  0.7171  0.3381  0.3163
   68CHL1  H23A 6198   2.511   4.130   3.706 -0.0947 -0.6656  0.0688
   68CHL1  H23B 6199   2.547   3.959   3.731 -0.6292  0.9737  2.6911
   68CHL1   C24 6200   2.628   4.098   3.874  0.1585  1.0109 -0.8161
   68CHL1  H24A 6201   2.544   4.064   3.939 -0.8584 -1.1964 -3.0917
   68CHL1  H24B 6202   2.710   4.026   3.897 -2.2622 -2.2743 -1.5862
   68CHL1   C25 6203   2.657   4.249   3.897  1.2219 -0.1392 -0.2452
   68CHL1   H25 6204   2.731   4.271   3.818  1.7662 -1.9023 -0.2653
   68CHL1   C26 6205   2.545   4.348   3.894 -1.0548 -0.6274 -0.5534
   68CHL1  H26A 6206   2.472   4.317   3.972  0.3752 -0.8037  0.7490
   68CHL1  H26B 6207   2.567   4.453   3.921 -2.5370 -0.6420  0.8819
   68CHL1  H26C 6208   2.500   4.340   3.792 -3.9736 -0.0265  0.5931
   68CHL1   C27 6209   2.725   4.261   4.037 -0.3993  0.6951 -0.6045
   68CHL1  H27A 6210   2.646   4.265   4.115 -1.3705  0.3673 -1.5468
   68CHL1  H27B 6211   2.802   4.182   4.051 -3.0707 -2.1979 -1.0660
   68CHL1  H27C 6212   2.771   4.361   4.052 -0.0784  0.0919  3.5894
   69CHL1    C3 6213   6.661   3.738   5.782 -0.2474 -0.1751  0.9571
   69CHL1    H3 6214   6.635   3.630   5.777 -1.4261  0.1484 -0.4550
   69CHL1    O3 6215   6.708   3.772   5.915  0.2573 -0.1263  0.6406
   69CHL1   H3' 6216   6.749   3.859   5.911 -1.2723  0.6095  0.2937
   69CHL1    C4 6217   6.775   3.770   5.677  0.0270  0.1730 -0.1879
   69CHL1   H4A 6218   6.810   3.873   5.701  0.7204 -0.4250  1.5747
   69CHL1   H4B 6219   6.857   3.699   5.702  0.0410  0.4239  0.5060
   69CHL1    C5 6220   6.724   3.765   5.539 -0.1809  0.5018  0.6164
   69CHL1    C6 6221   6.780   3.683   5.445  0.4226  0.2305  0.3190
   69CHL1    H6 6222   6.864   3.624   5.485 -1.4752 -0.4103  3.7549
   69CHL1    C7 6223   6.750   3.675   5.295 -0.2334  0.5937 -0.4501
   69CHL1   H7A 6224   6.848   3.657   5.244  0.7616  1.6928  0.9883
   69CHL1   H7B 6225   6.696   3.580   5.276  2.0533 -0.8190 -0.3123
   69CHL1    C8 6226   6.670   3.798   5.253 -0.5388  0.1353 -0.1858
   69CHL1    H8 6227   6.749   3.875   5.259  0.4638 -0.9144  0.6592
   69CHL1   C14 6228   6.607   3.776   5.117  0.9725  0.2120  0.6351
   69CHL1   H14 6229   6.524   3.702   5.120  1.1245  0.0657  1.7096
   69CHL1   C15 6230   6.690   3.724   4.999 -0.2316 -0.4487 -1.1568
   69CHL1  H15A 6231   6.794   3.763   5.002 -0.2866 -0.3370 -0.6694
   69CHL1  H15B 6232   6.682   3.613   5.000 -0.8611 -0.4675  2.1053
   69CHL1   C16 6233   6.616   3.770   4.862  0.4658 -0.2648  1.1140
   69CHL1  H16A 6234   6.690   3.829   4.803 -0.7139  0.6907  0.5455
   69CHL1  H16B 6235   6.600   3.681   4.798  0.5600  0.4047  0.1358
   69CHL1   C17 6236   6.497   3.858   4.906 -0.2812 -0.5147 -0.1126
   69CHL1   H17 6237   6.409   3.790   4.915 -2.4990  1.7487 -2.9866
   69CHL1   C13 6238   6.529   3.898   5.057 -0.7662  0.0653 -0.4494
   69CHL1   C18 6239   6.632   4.011   5.055 -0.4127 -0.5798 -0.3136
   69CHL1  H18A 6240   6.588   4.110   5.032  0.2319 -0.3534 -0.5859
   69CHL1  H18B 6241   6.691   4.034   5.147 -1.4293 -0.9354  0.4391
   69CHL1  H18C 6242   6.703   3.986   4.974  0.7410 -2.0413  1.0682
   69CHL1   C12 6243   6.415   3.922   5.148  0.5697  0.2381 -0.5282
   69CHL1  H12A 6244   6.349   4.010   5.131 -1.4614 -1.3748 -1.5378
   69CHL1  H12B 6245   6.335   3.845   5.138 -0.5373  1.4199 -1.1674
   69CHL1   C11 6246   6.456   3.935   5.303  0.1381 -0.8293 -0.5344
   69CHL1  H11A 6247   6.487   4.041   5.311  0.1894 -0.9767  1.9195
   69CHL1  H11B 6248   6.363   3.914   5.359  0.6733 -2.5360 -0.2060
   69CHL1    C9 6249   6.556   3.828   5.357 -0.1502 -0.0224 -0.7323
   69CHL1    H9 6250   6.495   3.736   5.357 -0.6272  0.2389 -2.8600
   69CHL1   C10 6251   6.607   3.860   5.503  0.0148  0.1398 -0.1038
   69CHL1   C19 6252   6.665   4.006   5.509 -0.0440  0.4330 -0.3222
   69CHL1  H19A 6253   6.689   4.038   5.612 -1.3435 -1.1200  0.5091
   69CHL1  H19B 6254   6.759   4.013   5.450 -0.5074  0.3459 -1.0874
   69CHL1  H19C 6255   6.599   4.085   5.467 -1.3522 -0.4473  0.0180
   69CHL1    C1 6256   6.499   3.831   5.607  0.4355  0.4998  1.2791
   69CHL1   H1A 6257   6.420   3.905   5.585  0.8738  0.7488  0.4897
   69CHL1   H1B 6258   6.451   3.735   5.578  1.7423  0.0713  0.4105
   69CHL1    C2 6259   6.537   3.824   5.754  0.2979 -0.3318  0.1358
   69CHL1   H2A 6260   6.454   3.773   5.807  0.5609 -1.6444 -0.6624
   69CHL1   H2B 6261   6.558   3.926   5.791 -0.0116 -0.1447 -0.2020
   69CHL1   C20 6262   6.459   3.964   4.797 -0.1783  0.1328 -0.1944
   69CHL1   H20 6263   6.544   4.036   4.795 -1.9971  2.5226  2.0340
   69CHL1   C21 6264   6.341   4.052   4.852 -0.3471 -0.2020  0.4241
   69CHL1  H21A 6265   6.378   4.123   4.929  2.2819 -0.7154 -0.2524
   69CHL1  H21B 6266   6.255   3.994   4.890 -1.6200  1.8525  0.8459
   69CHL1  H21C 6267   6.299   4.121   4.775 -0.6363 -0.3211  0.4771
   69CHL1   C22 6268   6.420   3.896   4.666  0.0477 -0.2059 -0.1263
   69CHL1  H22A 6269   6.492   3.817   4.635 -1.7610 -1.8883 -0.2793
   69CHL1  H22B 6270   6.319   3.850   4.674 -0.1154  0.0093 -0.8405
   69CHL1   C23 6271   6.411   3.989   4.549 -0.4144  0.0923 -0.2155
   69CHL1  H23A 6272   6.347   4.079   4.563 -1.1484 -0.3360 -0.7100
   69CHL1  H23B 6273   6.508   4.032   4.516 -0.7269  0.8040 -0.2368
   69CHL1   C24 6274   6.370   3.918   4.421 -0.1114  0.2735 -0.5865
   69CHL1  H24A 6275   6.436   3.831   4.399  1.8289  1.1401  1.4587
   69CHL1  H24B 6276   6.262   3.893   4.419 -0.2014  0.7028 -1.8036
   69CHL1   C25 6277   6.395   4.013   4.302  0.0353  0.4282 -0.5471
   69CHL1   H25 6278   6.495   4.055   4.325 -0.4367  0.6947  1.1812
   69CHL1   C26 6279   6.408   3.937   4.168 -0.0083 -0.1878 -0.6991
   69CHL1  H26A 6280   6.305   3.915   4.134  0.3475  0.4664 -2.2876
   69CHL1  H26B 6281   6.459   4.005   4.097 -2.5204  1.3669 -1.1330
   69CHL1  H26C 6282   6.455   3.837   4.180  0.1674  0.1591  2.1456
   69CHL1   C27 6283   6.299   4.135   4.290 -1.1080  0.8995  0.2842
   69CHL1  H27A 6284   6.319   4.203   4.376  1.4528 -1.6155  1.8154
   69CHL1  H27B 6285   6.322   4.197   4.200 -2.3773 -1.0205 -1.4603
   69CHL1  H27C 6286   6.194   4.098   4.286 -0.8470  0.1819 -0.0631
   70CHL1    C3 6287   3.131   5.859   2.582 -0.5040  0.2213 -0.0299
   70CHL1    H3 6288   3.093   5.768   2.634  1.7535 -1.3977 -1.0823
   70CHL1    O3 6289   3.119   5.828   2.446 -0.1267 -0.4053  0.2256
   70CHL1   H3' 6290   3.129   5.733   2.438 -2.3703 -0.5863 -1.5924
   70CHL1    C4 6291   3.035   5.974   2.628  0.4542  0.9549 -0.3985
   70CHL1   H4A 6292   3.058   6.062   2.564  0.4852 -0.1816 -1.9984
   70CHL1   H4B 6293   2.930   5.941   2.613  0.3347  0.1796  1.7046
   70CHL1    C5 6294   3.064   6.007   2.777 -0.5728 -0.1808  0.2383
   70CHL1    C6 6295   2.968   6.004   2.866  0.0761  0.4057 -0.2059
   70CHL1    H6 6296   2.866   5.979   2.832  0.3525  0.7552 -1.3614
   70CHL1    C7 6297   2.991   6.038   3.014  0.1347  0.2405  0.2828
   70CHL1   H7A 6298   2.905   6.096   3.054 -0.5180 -0.3497 -0.2220
   70CHL1   H7B 6299   3.000   5.946   3.075 -0.5132 -0.8121 -1.1433
   70CHL1    C8 6300   3.125   6.115   3.042  0.2039 -0.2288  0.3433
   70CHL1    H8 6301   3.109   6.217   3.001 -0.8171 -1.9326 -4.0442
   70CHL1   C14 6302   3.156   6.127   3.187 -0.3990 -0.8492  0.4866
   70CHL1   H14 6303   3.180   6.025   3.225 -0.9992 -0.9896  0.5117
   70CHL1   C15 6304   3.043   6.184   3.278  0.3256  0.9432 -0.2223
   70CHL1  H15A 6305   3.004   6.283   3.248  1.1673  1.4538  0.3178
   70CHL1  H15B 6306   2.958   6.114   3.294 -2.7042  4.3385 -0.2533
   70CHL1   C16 6307   3.120   6.225   3.409  0.2499  0.1874 -0.1758
   70CHL1  H16A 6308   3.089   6.328   3.436  1.6273  1.0720 -1.7881
   70CHL1  H16B 6309   3.113   6.150   3.491  1.9511 -1.1458 -1.1695
   70CHL1   C17 6310   3.270   6.226   3.376 -0.0535  0.2348  0.7852
   70CHL1   H17 6311   3.326   6.133   3.403  0.3792 -0.4342 -2.1126
   70CHL1   C13 6312   3.280   6.208   3.216  0.1984  0.0692 -0.9640
   70CHL1   C18 6313   3.270   6.348   3.160 -0.2158  0.7197 -0.7747
   70CHL1  H18A 6314   3.172   6.400   3.168  0.3050  1.4183  2.2769
   70CHL1  H18B 6315   3.345   6.422   3.194  1.5175 -0.6297 -1.5195
   70CHL1  H18C 6316   3.292   6.343   3.052  0.2999 -0.7270 -0.6199
   70CHL1   C12 6317   3.401   6.123   3.170 -0.2179  0.3985  0.1711
   70CHL1  H12A 6318   3.502   6.163   3.192 -0.1788  0.6413 -0.4336
   70CHL1  H12B 6319   3.400   6.026   3.225 -0.9540 -0.6475 -1.6110
   70CHL1   C11 6320   3.377   6.093   3.020 -1.0464 -0.3453 -0.1373
   70CHL1  H11A 6321   3.409   6.183   2.964 -1.6131 -0.3300 -0.4425
   70CHL1  H11B 6322   3.449   6.012   2.994  0.8365  1.0525  0.4860
   70CHL1    C9 6323   3.235   6.045   2.971  0.3969 -0.1661  0.3166
   70CHL1    H9 6324   3.213   5.942   3.006 -1.1853 -0.1211 -0.4591
   70CHL1   C10 6325   3.212   6.038   2.812  0.0491  0.1466 -0.2897
   70CHL1   C19 6326   3.254   6.175   2.745 -0.0767 -1.4275  0.0326
   70CHL1  H19A 6327   3.365   6.183   2.745 -0.0782 -1.1952  1.2027
   70CHL1  H19B 6328   3.226   6.184   2.638 -0.4473 -0.1733  0.2197
   70CHL1  H19C 6329   3.196   6.255   2.795 -1.8226 -0.9130 -2.6383
   70CHL1    C1 6330   3.300   5.926   2.760 -0.7644  0.5935 -0.4015
   70CHL1   H1A 6331   3.403   5.962   2.777 -0.2959 -0.4874 -0.9059
   70CHL1   H1B 6332   3.293   5.833   2.820 -0.2055 -0.0001 -1.2405
   70CHL1    C2 6333   3.279   5.890   2.611  0.0959  0.4169 -0.7539
   70CHL1   H2A 6334   3.339   5.800   2.585 -2.3612 -1.5606 -0.0672
   70CHL1   H2B 6335   3.314   5.971   2.544  2.2162 -1.0266 -1.5039
   70CHL1   C20 6336   3.337   6.338   3.452 -1.3193 -0.7781 -0.1979
   70CHL1   H20 6337   3.301   6.436   3.414 -0.0700 -0.6845 -1.1748
   70CHL1   C21 6338   3.499   6.329   3.435  0.4363  0.4859 -0.0964
   70CHL1  H21A 6339   3.525   6.349   3.329 -0.7631  0.0083 -0.4995
   70CHL1  H21B 6340   3.519   6.222   3.459 -1.2041  0.0261 -0.6654
   70CHL1  H21C 6341   3.545   6.393   3.512  0.0398  0.3769  0.2353
   70CHL1   C22 6342   3.303   6.343   3.607 -0.5039  0.1978  0.9777
   70CHL1  H22A 6343   3.369   6.423   3.648  1.4167 -0.6938 -0.2048
   70CHL1  H22B 6344   3.199   6.379   3.620 -0.3469  1.6103 -1.2561
   70CHL1   C23 6345   3.336   6.211   3.680  0.3575  0.5943 -0.1315
   70CHL1  H23A 6346   3.281   6.124   3.638  0.5403  0.2945  0.2468
   70CHL1  H23B 6347   3.444   6.192   3.661  0.1936 -2.6663  1.4481
   70CHL1   C24 6348   3.310   6.208   3.832 -0.1276  1.0572 -1.2002
   70CHL1  H24A 6349   3.347   6.301   3.881  1.5110  0.4976 -1.2862
   70CHL1  H24B 6350   3.201   6.221   3.850 -0.2235 -0.4030 -0.6242
   70CHL1   C25 6351   3.380   6.095   3.914  0.1207  0.3297 -0.2497
   70CHL1   H25 6352   3.488   6.096   3.890  0.0931  1.2713 -0.3485
   70CHL1   C26 6353   3.378   6.126   4.067  0.3758 -0.0044 -0.5839
   70CHL1  H26A 6354   3.430   6.221   4.091  0.5380 -0.2425  0.0431
   70CHL1  H26B 6355   3.273   6.141   4.102  0.4484 -1.2204  0.2461
   70CHL1  H26C 6356   3.428   6.043   4.122 -0.8037 -0.3896 -0.0590
   70CHL1   C27 6357   3.319   5.959   3.871  0.9942 -0.7620  0.1013
   70CHL1  H27A 6358   3.356   5.869   3.925  0.4683 -1.3782 -0.5327
   70CHL1  H27B 6359   3.209   5.953   3.887  0.8636  0.1106 -0.4356
   70CHL1  H27C 6360   3.343   5.935   3.765  1.0811 -4.2173  0.7589
   71CHL1    C3 6361   0.592   4.463   2.906 -0.4161 -0.2386  0.5402
   71CHL1    H3 6362   0.484   4.489   2.913 -0.4482  0.1199 -1.0177
   71CHL1    O3 6363   0.623   4.491   2.768 -0.0357  0.3326 -0.7216
   71CHL1   H3' 6364   0.717   4.471   2.772 -0.0586  0.1337 -1.1289
   71CHL1    C4 6365   0.663   4.559   3.004  0.2408 -0.5364  0.1220
   71CHL1   H4A 6366   0.773   4.553   2.985  0.2689 -0.0067  0.1220
   71CHL1   H4B 6367   0.634   4.665   2.988 -1.0716 -0.0246  4.6015
   71CHL1    C5 6368   0.630   4.526   3.150  0.3189  0.4426  0.1089
   71CHL1    C6 6369   0.580   4.617   3.237 -0.3509 -0.2264 -0.0831
   71CHL1    H6 6370   0.570   4.719   3.198  0.4960 -0.5119 -1.0990
   71CHL1    C7 6371   0.574   4.607   3.386 -0.6047 -0.5403  0.1126
   71CHL1   H7A 6372   0.611   4.700   3.436 -0.8467  1.1049 -2.5716
   71CHL1   H7B 6373   0.467   4.589   3.410 -1.0346  0.3273 -1.0247
   71CHL1    C8 6374   0.649   4.472   3.431  0.1359 -0.8576 -0.4265
   71CHL1    H8 6375   0.753   4.508   3.434 -0.3992  0.7940 -0.8231
   71CHL1   C14 6376   0.599   4.438   3.571 -0.4295  0.6076  0.4625
   71CHL1   H14 6377   0.492   4.410   3.558 -0.7016  0.9841  1.7261
   71CHL1   C15 6378   0.601   4.549   3.678 -0.3992 -0.0712  0.5521
   71CHL1  H15A 6379   0.692   4.612   3.677 -0.1805 -0.3282  2.2496
   71CHL1  H15B 6380   0.511   4.611   3.658  0.0120  0.5040  0.4718
   71CHL1   C16 6381   0.594   4.468   3.802 -0.3441  0.5204 -0.7363
   71CHL1  H16A 6382   0.680   4.508   3.862 -0.5132  0.3868 -0.4028
   71CHL1  H16B 6383   0.496   4.493   3.846  0.1522 -0.5693  1.1178
   71CHL1   C17 6384   0.604   4.318   3.771 -0.1567  0.4028  0.0361
   71CHL1   H17 6385   0.498   4.286   3.765  0.3929 -1.3016 -1.4523
   71CHL1   C13 6386   0.673   4.320   3.631  0.0008  0.5006 -0.1593
   71CHL1   C18 6387   0.829   4.357   3.644  0.1776  0.6009  0.5636
   71CHL1  H18A 6388   0.870   4.354   3.541 -1.3277 -1.1901 -0.0295
   71CHL1  H18B 6389   0.857   4.452   3.695 -0.9193  1.7469 -0.8939
   71CHL1  H18C 6390   0.886   4.284   3.706 -2.5950 -1.2657  1.0810
   71CHL1   C12 6391   0.651   4.196   3.546  0.5629 -0.0087  0.8857
   71CHL1  H12A 6392   0.704   4.109   3.590  2.7049  0.2903 -0.9169
   71CHL1  H12B 6393   0.544   4.166   3.546  0.8954 -1.3881 -1.2683
   71CHL1   C11 6394   0.692   4.218   3.397 -0.3065  0.5230 -1.0061
   71CHL1  H11A 6395   0.802   4.204   3.401 -0.4436 -1.0257 -1.8455
   71CHL1  H11B 6396   0.657   4.132   3.335  2.9239 -1.7536  0.0533
   71CHL1    C9 6397   0.637   4.347   3.339 -0.5259  0.0415 -0.3255
   71CHL1    H9 6398   0.527   4.334   3.329 -0.6173  0.2264  0.3823
   71CHL1   C10 6399   0.676   4.379   3.188  0.2607  0.3828 -0.3775
   71CHL1   C19 6400   0.827   4.363   3.184 -0.0840  0.3867  0.8435
   71CHL1  H19A 6401   0.867   4.398   3.086 -3.7172  1.2085 -0.4982
   71CHL1  H19B 6402   0.871   4.413   3.273 -0.0508  0.0278  1.0270
   71CHL1  H19C 6403   0.848   4.255   3.197 -1.2440  0.0409  0.0378
   71CHL1    C1 6404   0.610   4.281   3.085 -0.0836  0.6580 -0.1499
   71CHL1   H1A 6405   0.658   4.182   3.100  1.7093  1.6049  0.8152
   71CHL1   H1B 6406   0.504   4.283   3.116  0.7626  1.1129  3.0937
   71CHL1    C2 6407   0.624   4.318   2.939  0.1971 -0.2007  0.1179
   71CHL1   H2A 6408   0.551   4.250   2.891 -1.8542  1.2449  1.0247
   71CHL1   H2B 6409   0.726   4.302   2.899 -0.5395 -0.1613 -1.8760
   71CHL1   C20 6410   0.673   4.244   3.889 -0.5571 -0.2555  0.1983
   71CHL1   H20 6411   0.766   4.302   3.907 -1.7469  1.8471 -0.1654
   71CHL1   C21 6412   0.722   4.104   3.852 -0.2349  0.0099 -0.1600
   71CHL1  H21A 6413   0.760   4.036   3.932 -1.3319  0.4850  0.7932
   71CHL1  H21B 6414   0.793   4.089   3.768 -0.5603 -1.5135 -0.2028
   71CHL1  H21C 6415   0.636   4.047   3.810 -0.4772 -0.2018  0.6136
   71CHL1   C22 6416   0.596   4.235   4.020 -0.0471  0.0406  0.1921
   71CHL1  H22A 6417   0.539   4.330   4.032  0.2773  0.2786 -0.1218
   71CHL1  H22B 6418   0.527   4.149   4.006 -0.2581  0.2471 -0.0623
   71CHL1   C23 6419   0.693   4.237   4.141  0.0153  0.9641  0.4607
   71CHL1  H23A 6420   0.632   4.230   4.233  1.1729  2.5160  1.3875
   71CHL1  H23B 6421   0.754   4.144   4.141  0.2179  1.0405 -1.7255
   71CHL1   C24 6422   0.779   4.359   4.171 -0.3743  0.0101 -0.5564
   71CHL1  H24A 6423   0.827   4.406   4.083  1.4267 -0.3707  0.1913
   71CHL1  H24B 6424   0.710   4.432   4.218 -1.0290 -1.1527  0.3537
   71CHL1   C25 6425   0.901   4.327   4.268  0.2780 -0.6295  0.3801
   71CHL1   H25 6426   0.864   4.268   4.354  0.5711 -0.3552  0.6945
   71CHL1   C26 6427   1.001   4.245   4.190  0.7606  0.3743 -0.6711
   71CHL1  H26A 6428   1.051   4.289   4.101  1.9013 -0.7346 -0.6071
   71CHL1  H26B 6429   1.087   4.213   4.253 -0.0870 -0.4086  0.1130
   71CHL1  H26C 6430   0.955   4.155   4.144  0.8635 -0.3126  0.5215
   71CHL1   C27 6431   0.971   4.455   4.324 -0.1724 -0.0754 -0.0202
   71CHL1  H27A 6432   0.999   4.528   4.245  0.3355  0.8544  0.9945
   71CHL1  H27B 6433   0.893   4.505   4.386 -0.2057  0.4634 -0.4837
   71CHL1  H27C 6434   1.070   4.432   4.367 -0.0796 -0.1257 -0.2584
   72CHL1    C3 6435   0.993   0.082   3.199  1.0478 -0.2131  0.0936
   72CHL1    H3 6436   1.103   0.067   3.207  1.1384  0.0738 -0.5166
   72CHL1    O3 6437   0.956   0.046   3.066 -0.0612 -0.2894  0.2459
   72CHL1   H3' 6438   0.861   0.062   3.066 -0.2760 -1.3305  1.7405
   72CHL1    C4 6439   0.917  -0.016   3.293  0.2222 -0.5455  0.7107
   72CHL1   H4A 6440   0.810  -0.004   3.268 -0.1338  1.0124  2.7649
   72CHL1   H4B 6441   0.930  -0.121   3.258  0.6284  0.3279 -2.0551
   72CHL1    C5 6442   0.952   0.023   3.434 -0.4248  0.1731 -0.0304
   72CHL1    C6 6443   0.998  -0.074   3.514  0.6048 -0.5449 -0.1118
   72CHL1    H6 6444   0.996  -0.178   3.479 -1.8765 -0.6384  0.1166
   72CHL1    C7 6445   1.037  -0.060   3.654 -0.5218  0.0081 -0.1710
   72CHL1   H7A 6446   1.006  -0.141   3.724  3.0205 -0.8910  0.5760
   72CHL1   H7B 6447   1.148  -0.057   3.657 -0.2704 -3.2033 -1.4859
   72CHL1    C8 6448   0.977   0.071   3.706  0.0259 -0.2582 -0.2579
   72CHL1    H8 6449   0.867   0.063   3.721  0.0433  2.2603  1.8845
   72CHL1   C14 6450   1.043   0.106   3.842  0.0948  0.5957 -0.1495
   72CHL1   H14 6451   1.148   0.138   3.826  0.9777 -1.7365  0.5332
   72CHL1   C15 6452   1.051  -0.011   3.945 -0.4183 -0.1020  0.8872
   72CHL1  H15A 6453   0.951  -0.057   3.960 -0.4494 -1.0221 -1.6801
   72CHL1  H15B 6454   1.131  -0.081   3.914 -1.6263 -0.6352 -1.2727
   72CHL1   C16 6455   1.080   0.072   4.076 -0.2786  0.1349 -0.3223
   72CHL1  H16A 6456   1.030   0.033   4.168  1.4678 -1.2626  0.1026
   72CHL1  H16B 6457   1.187   0.066   4.107  0.4792  0.5278 -2.6950
   72CHL1   C17 6458   1.060   0.225   4.046  0.1341 -0.6875  0.2139
   72CHL1   H17 6459   1.160   0.267   4.022 -0.0262  0.3715  1.3062
   72CHL1   C13 6460   0.981   0.229   3.909 -0.4572  0.3308  0.1146
   72CHL1   C18 6461   0.828   0.210   3.927  0.7833 -0.6443 -0.6094
   72CHL1  H18A 6462   0.772   0.293   3.974  1.3474  1.4202 -3.3513
   72CHL1  H18B 6463   0.766   0.203   3.835  1.1826 -1.3104 -0.8414
   72CHL1  H18C 6464   0.808   0.127   3.999  2.3784  0.9841  1.8599
   72CHL1   C12 6465   1.015   0.355   3.823 -0.2902  0.0535  1.1192
   72CHL1  H12A 6466   0.989   0.452   3.871 -2.0152 -0.6988  1.7915
   72CHL1  H12B 6467   1.125   0.356   3.816 -0.3771  0.2680 -1.6001
   72CHL1   C11 6468   0.954   0.334   3.681  0.4098  0.4316  0.6157
   72CHL1  H11A 6469   0.845   0.321   3.694  0.3864 -1.1190 -0.8660
   72CHL1  H11B 6470   0.979   0.419   3.613 -1.5526 -0.3028 -1.1109
   72CHL1    C9 6471   0.994   0.196   3.619  0.3138  0.0466  0.2195
   72CHL1    H9 6472   1.105   0.205   3.609  0.1200  1.8323 -0.7222
   72CHL1   C10 6473   0.932   0.168   3.482  0.1765 -0.3518 -0.0766
   72CHL1   C19 6474   0.774   0.202   3.477 -0.2403  0.5307  0.5288
   72CHL1  H19A 6475   0.732   0.172   3.575  1.5206 -0.9381  0.8938
   72CHL1  H19B 6476   0.752   0.310   3.467  3.0771  1.4691  1.8106
   72CHL1  H19C 6477   0.721   0.144   3.398  2.8739  3.0107 -3.8695
   72CHL1    C1 6478   0.998   0.259   3.370 -0.0732  0.0866  1.0735
   72CHL1   H1A 6479   0.985   0.368   3.387 -0.4891  0.4234 -1.0996
   72CHL1   H1B 6480   1.108   0.247   3.383  0.0723  0.9673  0.7553
   72CHL1    C2 6481   0.952   0.221   3.228  0.2675  0.2978  0.0541
   72CHL1   H2A 6482   0.999   0.299   3.164  1.6354  0.3867  1.1298
   72CHL1   H2B 6483   0.842   0.219   3.216  0.2553  2.0566 -0.3376
   72CHL1   C20 6484   1.002   0.291   4.171 -0.3051 -0.3099  0.0566
   72CHL1   H20 6485   0.909   0.236   4.198 -0.5000 -0.0876 -0.1455
   72CHL1   C21 6486   0.959   0.438   4.137  0.8184 -0.1716 -0.6874
   72CHL1  H21A 6487   0.904   0.478   4.225 -2.1089  0.7839 -2.7931
   72CHL1  H21B 6488   0.890   0.432   4.050 -0.8180  0.1745  0.5334
   72CHL1  H21C 6489   1.047   0.500   4.111 -0.4931  1.0328 -2.5129
   72CHL1   C22 6490   1.102   0.288   4.292 -0.0053  0.1647 -0.3487
   72CHL1  H22A 6491   1.120   0.183   4.324 -0.0834  0.3276  0.2487
   72CHL1  H22B 6492   1.199   0.331   4.259  1.0843 -1.2345  0.8976
   72CHL1   C23 6493   1.050   0.353   4.425 -0.1123  0.4085  0.4684
   72CHL1  H23A 6494   1.052   0.464   4.431  0.3139  0.4053  0.4245
   72CHL1  H23B 6495   0.941   0.330   4.434 -0.0245 -0.2653 -0.0789
   72CHL1   C24 6496   1.138   0.294   4.542 -0.0903  0.0459 -0.1140
   72CHL1  H24A 6497   1.143   0.184   4.526 -1.9115  0.2678 -2.9597
   72CHL1  H24B 6498   1.241   0.335   4.542 -0.6466  1.4984 -0.0356
   72CHL1   C25 6499   1.069   0.341   4.671 -0.2748 -0.2833 -0.3775
   72CHL1   H25 6500   1.040   0.448   4.667 -0.6284 -0.3722 -0.2393
   72CHL1   C26 6501   0.939   0.248   4.686 -0.8941 -0.6155 -0.3779
   72CHL1  H26A 6502   0.865   0.294   4.756 -2.7131 -2.7481 -0.7734
   72CHL1  H26B 6503   0.894   0.216   4.590 -0.1180  0.7439 -1.2110
   72CHL1  H26C 6504   0.975   0.152   4.729  0.3570  0.2098  0.4898
   72CHL1   C27 6505   1.174   0.328   4.783 -0.4271  0.1124  0.5774
   72CHL1  H27A 6506   1.245   0.412   4.770 -0.9739  0.4397 -0.4396
   72CHL1  H27B 6507   1.126   0.336   4.883 -1.4262 -0.3713  0.1592
   72CHL1  H27C 6508   1.228   0.231   4.774  0.8090  0.9244 -1.3700
   73CHL1    C3 6509   2.479   4.639   2.559  0.2834 -0.4262  0.1845
   73CHL1    H3 6510   2.427   4.733   2.588 -0.9006 -1.1186  0.3416
   73CHL1    O3 6511   2.457   4.627   2.417  0.1435 -0.6824 -0.1981
   73CHL1   H3' 6512   2.478   4.538   2.386  0.2536 -0.1714 -1.6626
   73CHL1    C4 6513   2.625   4.651   2.592 -0.0921 -0.1872  0.6560
   73CHL1   H4A 6514   2.668   4.558   2.549 -0.5133  0.8803 -2.3572
   73CHL1   H4B 6515   2.660   4.745   2.543 -2.6046 -0.2636 -1.5618
   73CHL1    C5 6516   2.661   4.662   2.737 -0.3083 -0.2347  0.2372
   73CHL1    C6 6517   2.735   4.769   2.778  0.1669  0.0736 -0.3665
   73CHL1    H6 6518   2.760   4.850   2.708  2.2630  0.0506  0.2823
   73CHL1    C7 6519   2.774   4.784   2.922  0.2017  0.9943  0.1815
   73CHL1   H7A 6520   2.884   4.800   2.930  0.4450  0.1300 -1.1473
   73CHL1   H7B 6521   2.729   4.876   2.965  3.5751  2.6695  0.4448
   73CHL1    C8 6522   2.740   4.656   3.011 -0.3745  0.1861 -0.6511
   73CHL1    H8 6523   2.823   4.583   2.998  0.0413  0.3231  1.0167
   73CHL1   C14 6524   2.738   4.701   3.163  0.2208 -0.4606  0.0879
   73CHL1   H14 6525   2.660   4.779   3.155  1.7917  1.0450 -1.2386
   73CHL1   C15 6526   2.866   4.766   3.221  0.5032 -0.2245 -0.2370
   73CHL1  H15A 6527   2.946   4.691   3.202  0.6598 -0.2330  0.4330
   73CHL1  H15B 6528   2.882   4.865   3.173 -1.1962 -0.0511 -0.5267
   73CHL1   C16 6529   2.840   4.777   3.367 -0.2443 -0.1718  0.1532
   73CHL1  H16A 6530   2.933   4.743   3.419 -0.7235  0.3933  1.4166
   73CHL1  H16B 6531   2.827   4.882   3.400  0.6419 -0.4877  1.6369
   73CHL1   C17 6532   2.724   4.677   3.391 -0.5984  0.0106  0.2190
   73CHL1   H17 6533   2.639   4.746   3.404  0.9472  2.4827 -1.8478
   73CHL1   C13 6534   2.700   4.595   3.264 -0.1777 -0.5545  0.7333
   73CHL1   C18 6535   2.803   4.482   3.251  0.2770  0.2943 -0.7599
   73CHL1  H18A 6536   2.797   4.432   3.152 -0.5372  0.2295 -0.6827
   73CHL1  H18B 6537   2.911   4.504   3.261  0.8007 -2.5353  1.0741
   73CHL1  H18C 6538   2.778   4.406   3.329  0.2545 -1.1129 -2.0976
   73CHL1   C12 6539   2.560   4.538   3.233  0.1512 -0.2149 -0.5680
   73CHL1  H12A 6540   2.556   4.442   3.288  1.6528  0.0620  0.0596
   73CHL1  H12B 6541   2.481   4.606   3.272 -1.3460 -1.7761 -0.7553
   73CHL1   C11 6542   2.539   4.506   3.084  0.3547  0.1875  0.7145
   73CHL1  H11A 6543   2.596   4.412   3.071 -0.2125 -0.0790  0.1047
   73CHL1  H11B 6544   2.433   4.477   3.065 -0.0757  1.5345  0.8818
   73CHL1    C9 6545   2.599   4.606   2.975 -0.1139 -0.7189  0.3533
   73CHL1    H9 6546   2.523   4.688   2.980 -0.4009 -0.9214 -0.6213
   73CHL1   C10 6547   2.592   4.553   2.825 -0.0914  0.7230 -0.1277
   73CHL1   C19 6548   2.671   4.419   2.822  0.3754 -1.0565  0.4676
   73CHL1  H19A 6549   2.781   4.435   2.823  0.3876 -0.8396 -1.0425
   73CHL1  H19B 6550   2.629   4.345   2.893 -0.0430  0.0582  1.4016
   73CHL1  H19C 6551   2.655   4.380   2.718 -1.5770 -2.5341  1.2541
   73CHL1    C1 6552   2.446   4.533   2.782  0.1692 -0.4767 -0.5719
   73CHL1   H1A 6553   2.407   4.440   2.828  0.0948  0.8714  2.2440
   73CHL1   H1B 6554   2.381   4.611   2.826  2.4649 -0.8502  4.0511
   73CHL1    C2 6555   2.423   4.524   2.628  1.2032  0.0386 -0.1102
   73CHL1   H2A 6556   2.314   4.522   2.608  1.4516  1.8522 -2.0577
   73CHL1   H2B 6557   2.458   4.425   2.593 -2.8023 -1.8949  0.7882
   73CHL1   C20 6558   2.734   4.610   3.529  0.7003 -0.4137 -0.3577
   73CHL1   H20 6559   2.821   4.542   3.539  1.7427  0.6174 -1.9515
   73CHL1   C21 6560   2.609   4.522   3.555 -0.3188  0.2778 -0.5415
   73CHL1  H21A 6561   2.614   4.480   3.658  0.3177  1.7063  0.0324
   73CHL1  H21B 6562   2.614   4.435   3.486  0.6992  1.9388 -2.6721
   73CHL1  H21C 6563   2.521   4.590   3.545  0.4367  1.2868 -0.4359
   73CHL1   C22 6564   2.750   4.717   3.639 -0.2832 -0.3073  0.4541
   73CHL1  H22A 6565   2.841   4.775   3.614 -1.9967  1.5707 -1.9223
   73CHL1  H22B 6566   2.666   4.789   3.642  1.0900  1.3413  0.4452
   73CHL1   C23 6567   2.769   4.656   3.784 -0.3743 -0.1775  0.0780
   73CHL1  H23A 6568   2.666   4.650   3.827 -1.0380  2.0637 -1.0826
   73CHL1  H23B 6569   2.810   4.553   3.776  2.7584  1.0623 -1.5871
   73CHL1   C24 6570   2.859   4.745   3.871  0.4213  0.7485 -0.0151
   73CHL1  H24A 6571   2.957   4.743   3.819  1.2454  0.9647  1.4700
   73CHL1  H24B 6572   2.822   4.850   3.866  1.0768  0.9706 -0.2826
   73CHL1   C25 6573   2.875   4.709   4.014 -0.1195 -0.2031  1.1197
   73CHL1   H25 6574   2.921   4.607   4.012  1.1307  0.3528  0.4956
   73CHL1   C26 6575   2.970   4.802   4.087  0.2070 -0.2696  0.0419
   73CHL1  H26A 6576   2.942   4.907   4.068 -0.8040 -0.5917 -0.3272
   73CHL1  H26B 6577   2.974   4.768   4.193  3.3017 -1.5966 -0.3945
   73CHL1  H26C 6578   3.071   4.794   4.042  0.3075 -1.3308  0.4169
   73CHL1   C27 6579   2.741   4.691   4.091 -0.2063  0.7465 -1.1944
   73CHL1  H27A 6580   2.688   4.787   4.074 -0.6272  0.6694 -0.3372
   73CHL1  H27B 6581   2.681   4.607   4.050 -1.1163  2.2886 -3.2127
   73CHL1  H27C 6582   2.775   4.689   4.197 -1.4087  2.0793 -0.7614
   74CHL1    C3 6583   0.147   2.478   2.455 -0.6061 -0.3904  0.7689
   74CHL1    H3 6584   0.237   2.542   2.464 -0.8554  0.6352 -2.4832
   74CHL1    O3 6585   0.138   2.449   2.314 -0.0402  0.4376 -0.5629
   74CHL1   H3' 6586   0.221   2.404   2.298  0.5730  0.8598  1.1755
   74CHL1    C4 6587   0.149   2.347   2.516  0.1631  0.2668 -0.5544
   74CHL1   H4A 6588   0.065   2.284   2.481  0.3725 -0.5084  0.2761
   74CHL1   H4B 6589   0.233   2.283   2.482  0.3218 -1.0289  2.0126
   74CHL1    C5 6590   0.148   2.344   2.668  0.6488 -0.7076  0.0054
   74CHL1    C6 6591   0.236   2.272   2.738 -0.0563  0.1730  0.3764
   74CHL1    H6 6592   0.302   2.200   2.688  1.7634  1.3917  0.8973
   74CHL1    C7 6593   0.229   2.268   2.890  0.2511  0.2258  0.5836
   74CHL1   H7A 6594   0.248   2.163   2.921  1.1168 -0.5759 -2.3652
   74CHL1   H7B 6595   0.315   2.322   2.937 -0.2831  1.5395  0.1135
   74CHL1    C8 6596   0.108   2.335   2.952  0.7118  0.4325 -0.2259
   74CHL1    H8 6597   0.035   2.251   2.942  1.4365 -0.0103 -2.1608
   74CHL1   C14 6598   0.142   2.366   3.100 -0.1027  0.3390  0.5432
   74CHL1   H14 6599   0.224   2.441   3.090  0.5786 -0.5967 -1.1686
   74CHL1   C15 6600   0.186   2.253   3.190  0.1050  0.7303 -0.3344
   74CHL1  H15A 6601   0.125   2.163   3.168 -0.7451  0.8419  1.3846
   74CHL1  H15B 6602   0.293   2.227   3.177  0.4174  1.9579 -0.3121
   74CHL1   C16 6603   0.163   2.317   3.331  0.1501  0.4680 -0.3133
   74CHL1  H16A 6604   0.092   2.242   3.374 -1.7820  1.3572 -1.7966
   74CHL1  H16B 6605   0.247   2.327   3.402 -0.3064 -0.2581  0.3541
   74CHL1   C17 6606   0.087   2.445   3.310  0.4409 -0.1058  0.6880
   74CHL1   H17 6607   0.164   2.525   3.297  0.3797  0.0233  1.1017
   74CHL1   C13 6608   0.028   2.435   3.169  0.1962 -0.2009  0.5674
   74CHL1   C18 6609  -0.091   2.340   3.159 -0.0710  0.0505 -0.4898
   74CHL1  H18A 6610  -0.184   2.382   3.203  1.5274  1.0441  2.1660
   74CHL1  H18B 6611  -0.134   2.317   3.059 -1.2668 -2.9908  0.5974
   74CHL1  H18C 6612  -0.062   2.246   3.212  0.4650 -0.1026 -1.0380
   74CHL1   C12 6613  -0.011   2.569   3.102 -0.0823 -0.0005 -0.3356
   74CHL1  H12A 6614  -0.082   2.631   3.160 -0.0896 -2.0570  2.0732
   74CHL1  H12B 6615   0.081   2.630   3.117 -0.1989  0.0033  0.3792
   74CHL1   C11 6616  -0.031   2.566   2.951  0.4267  0.1975  1.0455
   74CHL1  H11A 6617  -0.130   2.516   2.942 -0.1925  1.4494  0.8427
   74CHL1  H11B 6618  -0.035   2.662   2.896  0.9033 -0.6913 -0.5828
   74CHL1    C9 6619   0.073   2.472   2.880 -0.4852  0.3716 -0.5872
   74CHL1    H9 6620   0.172   2.522   2.886 -0.0345 -0.5434 -0.2399
   74CHL1   C10 6621   0.050   2.449   2.730 -0.0835 -0.0620  0.0388
   74CHL1   C19 6622  -0.093   2.390   2.719 -0.1259  0.6555 -1.0877
   74CHL1  H19A 6623  -0.101   2.295   2.776  0.2841  0.5233 -1.2492
   74CHL1  H19B 6624  -0.179   2.447   2.762 -0.8447 -0.6719 -0.6850
   74CHL1  H19C 6625  -0.112   2.350   2.617  1.7899 -0.8944 -0.8917
   74CHL1    C1 6626   0.035   2.578   2.653  0.3189  0.0419 -0.3023
   74CHL1   H1A 6627  -0.056   2.631   2.690  0.6088  0.7411 -0.5730
   74CHL1   H1B 6628   0.118   2.647   2.679 -2.0949  2.1571  2.4721
   74CHL1    C2 6629   0.030   2.553   2.500 -0.2168 -0.9716  0.5444
   74CHL1   H2A 6630   0.020   2.651   2.449  2.1720 -0.4510  0.9337
   74CHL1   H2B 6631  -0.067   2.504   2.478  0.6800 -1.5750 -2.4033
   74CHL1   C20 6632  -0.018   2.497   3.416 -0.2382  0.3305  1.1400
   74CHL1   H20 6633  -0.072   2.584   3.373  1.1914  1.1234  0.8989
   74CHL1   C21 6634   0.061   2.557   3.540 -0.3814  0.3054 -0.1974
   74CHL1  H21A 6635   0.105   2.469   3.592  0.1953 -0.3494 -1.7277
   74CHL1  H21B 6636  -0.007   2.615   3.606  0.6419  1.1430  0.1702
   74CHL1  H21C 6637   0.153   2.615   3.515 -0.7400  1.0272  0.1179
   74CHL1   C22 6638  -0.113   2.385   3.471  0.0440 -0.2789  0.4500
   74CHL1  H22A 6639  -0.170   2.321   3.400 -0.5273  1.0253 -0.3082
   74CHL1  H22B 6640  -0.039   2.322   3.526  0.4914 -0.4825 -0.3785
   74CHL1   C23 6641  -0.218   2.436   3.573 -0.2352  0.4866 -0.2379
   74CHL1  H23A 6642  -0.167   2.448   3.671  0.7547 -1.5530 -0.4331
   74CHL1  H23B 6643  -0.264   2.529   3.535  0.5720  0.9522 -0.0898
   74CHL1   C24 6644  -0.340   2.346   3.597 -0.5237  0.4357  0.0338
   74CHL1  H24A 6645  -0.380   2.323   3.496 -1.0142  0.0378  0.3151
   74CHL1  H24B 6646  -0.295   2.255   3.642  0.3114  0.5975 -0.4518
   74CHL1   C25 6647  -0.452   2.402   3.686 -0.4018  0.3165  0.8621
   74CHL1   H25 6648  -0.479   2.498   3.638  1.5484  1.7191  2.3878
   74CHL1   C26 6649  -0.574   2.304   3.692  0.4818 -0.7929 -0.1269
   74CHL1  H26A 6650  -0.544   2.211   3.744 -0.8207 -0.7165  0.8163
   74CHL1  H26B 6651  -0.647   2.348   3.763  2.0616 -0.1354  1.1741
   74CHL1  H26C 6652  -0.619   2.286   3.592  0.3121  3.5086 -1.0184
   74CHL1   C27 6653  -0.402   2.435   3.828 -0.1917 -0.1140  0.3037
   74CHL1  H27A 6654  -0.485   2.486   3.881  0.6777  1.9502 -0.2306
   74CHL1  H27B 6655  -0.359   2.343   3.873  0.5829 -0.5216 -1.2048
   74CHL1  H27C 6656  -0.322   2.512   3.830 -0.1508 -0.1348 -0.4262
   75CHL1    C3 6657   0.273   1.546   2.585 -0.1462  0.0124 -1.0578
   75CHL1    H3 6658   0.176   1.541   2.638 -1.9238  5.3173 -3.0848
   75CHL1    O3 6659   0.244   1.537   2.447  0.0676  0.3698  0.0870
   75CHL1   H3' 6660   0.329   1.534   2.402 -0.1170 -0.5620 -0.2317
   75CHL1    C4 6661   0.328   1.691   2.608  0.0849  1.1518  0.9276
   75CHL1   H4A 6662   0.422   1.709   2.551 -0.6792 -0.1093 -0.8196
   75CHL1   H4B 6663   0.243   1.749   2.567 -0.3101  0.1297  0.2632
   75CHL1    C5 6664   0.362   1.718   2.754 -0.1259  0.5388 -0.5129
   75CHL1    C6 6665   0.290   1.806   2.822 -0.0390 -0.4859 -0.3408
   75CHL1    H6 6666   0.221   1.867   2.762 -0.9168 -1.2849 -0.1637
   75CHL1    C7 6667   0.318   1.836   2.965 -0.8004  0.0827  0.0953
   75CHL1   H7A 6668   0.337   1.945   2.975  0.4796 -0.0972 -0.1552
   75CHL1   H7B 6669   0.238   1.794   3.029  0.5827  0.6077  2.2554
   75CHL1    C8 6670   0.455   1.779   3.020  0.5474 -0.2390 -0.3613
   75CHL1    H8 6671   0.543   1.837   2.984 -0.3094  0.6483 -1.0613
   75CHL1   C14 6672   0.446   1.777   3.177 -0.0183 -0.5692  0.2241
   75CHL1   H14 6673   0.363   1.708   3.203 -0.1835  0.0261  1.3687
   75CHL1   C15 6674   0.426   1.911   3.255  0.0674  0.2859 -0.0965
   75CHL1  H15A 6675   0.503   1.985   3.221  0.5465  0.0166  0.3920
   75CHL1  H15B 6676   0.333   1.971   3.255 -1.0029 -1.2240  2.2852
   75CHL1   C16 6677   0.443   1.874   3.396 -0.2171 -0.1639 -0.7363
   75CHL1  H16A 6678   0.498   1.945   3.461 -1.5255 -1.4913  1.9930
   75CHL1  H16B 6679   0.345   1.871   3.450  0.7649 -0.8407  1.0837
   75CHL1   C17 6680   0.509   1.732   3.408  0.0179 -0.3670 -0.3642
   75CHL1   H17 6681   0.428   1.659   3.428 -0.3838  0.3781  0.8540
   75CHL1   C13 6682   0.560   1.713   3.256  0.4347  0.5035 -0.2915
   75CHL1   C18 6683   0.690   1.795   3.225  0.1146  0.8696 -0.6940
   75CHL1  H18A 6684   0.678   1.902   3.253  1.6710  0.0964  3.6350
   75CHL1  H18B 6685   0.773   1.761   3.290 -1.0087  0.1060  0.3952
   75CHL1  H18C 6686   0.720   1.787   3.119  0.9926 -0.4336 -0.3653
   75CHL1   C12 6687   0.570   1.565   3.199 -0.1184 -0.4146 -1.0025
   75CHL1  H12A 6688   0.665   1.523   3.238  0.1197  1.1696  0.2499
   75CHL1  H12B 6689   0.485   1.505   3.238 -0.2882  0.8428  0.6717
   75CHL1   C11 6690   0.576   1.553   3.043  0.0985 -0.2521 -0.1025
   75CHL1  H11A 6691   0.671   1.593   3.001 -0.6153 -1.3902 -3.0425
   75CHL1  H11B 6692   0.573   1.443   3.027 -1.4098 -0.1673 -0.5369
   75CHL1    C9 6693   0.460   1.629   2.974  0.0714 -0.3897  0.1121
   75CHL1    H9 6694   0.366   1.585   3.012 -1.3278  0.1689 -2.4722
   75CHL1   C10 6695   0.458   1.618   2.823 -0.0220  0.3531 -0.3477
   75CHL1   C19 6696   0.605   1.636   2.772 -0.1374 -0.1527  0.1858
   75CHL1  H19A 6697   0.664   1.721   2.812 -0.2466 -0.1654  0.3774
   75CHL1  H19B 6698   0.660   1.542   2.795 -1.3114 -1.5635 -2.3193
   75CHL1  H19C 6699   0.616   1.641   2.661  2.8966  1.7673  0.4619
   75CHL1    C1 6700   0.421   1.472   2.788  0.1180 -0.5513  0.6533
   75CHL1   H1A 6701   0.499   1.396   2.810 -0.2759 -0.6479  1.7557
   75CHL1   H1B 6702   0.344   1.442   2.862 -0.6177  2.9879  1.5228
   75CHL1    C2 6703   0.376   1.442   2.641 -0.3184  0.1536  0.0663
   75CHL1   H2A 6704   0.338   1.338   2.647 -0.9289  0.4207  1.2585
   75CHL1   H2B 6705   0.459   1.452   2.568  1.4791 -3.6262  1.3583
   75CHL1   C20 6706   0.598   1.713   3.526  0.2886  0.1298 -0.2006
   75CHL1   H20 6707   0.681   1.786   3.534 -0.9092  1.4022  1.1142
   75CHL1   C21 6708   0.661   1.569   3.523  0.1312  0.5572  0.7110
   75CHL1  H21A 6709   0.753   1.559   3.461 -1.7403 -2.2103 -1.8956
   75CHL1  H21B 6710   0.593   1.501   3.466 -2.4986  3.2192  0.4292
   75CHL1  H21C 6711   0.688   1.531   3.624 -0.5323 -1.0829  0.3013
   75CHL1   C22 6712   0.520   1.731   3.661  0.0517  0.0874  0.3100
   75CHL1  H22A 6713   0.583   1.717   3.751  0.1744  1.1970  0.4086
   75CHL1  H22B 6714   0.488   1.837   3.672  0.3469  0.2037  0.0627
   75CHL1   C23 6715   0.389   1.641   3.685 -0.4901 -0.2898  0.2175
   75CHL1  H23A 6716   0.323   1.677   3.604  0.1718 -0.5212 -0.4355
   75CHL1  H23B 6717   0.408   1.532   3.676 -0.2539 -0.1531 -1.2154
   75CHL1   C24 6718   0.320   1.667   3.827  0.7774 -0.3553 -0.5675
   75CHL1  H24A 6719   0.390   1.648   3.911 -0.4755 -1.2490  0.3028
   75CHL1  H24B 6720   0.280   1.771   3.818 -2.0361 -1.2031  1.0237
   75CHL1   C25 6721   0.203   1.578   3.849  0.0071 -0.1976  0.0099
   75CHL1   H25 6722   0.229   1.473   3.822 -0.7685 -0.1822 -0.8501
   75CHL1   C26 6723   0.165   1.571   4.000 -0.2211 -0.2021  0.1009
   75CHL1  H26A 6724   0.253   1.529   4.053 -0.1493  1.1197  1.0785
   75CHL1  H26B 6725   0.148   1.669   4.050 -1.6876  0.4500 -1.5649
   75CHL1  H26C 6726   0.079   1.502   4.006  0.4064 -1.1212 -0.9950
   75CHL1   C27 6727   0.086   1.640   3.771 -0.7909  0.4845 -0.4341
   75CHL1  H27A 6728   0.053   1.737   3.815  0.6684  1.0915 -0.6212
   75CHL1  H27B 6729   0.107   1.673   3.667  2.3559 -0.9559 -0.3477
   75CHL1  H27C 6730   0.009   1.560   3.766 -2.1691  1.7765 -0.6054
   76CHL1    C3 6731   5.190   3.272   2.774 -0.0047  0.0843  0.2911
   76CHL1    H3 6732   5.121   3.347   2.816  2.4616  3.7804 -1.6853
   76CHL1    O3 6733   5.156   3.247   2.637 -0.5428 -0.6159 -0.3866
   76CHL1   H3' 6734   5.060   3.242   2.635 -0.5286 -1.1381  0.0762
   76CHL1    C4 6735   5.337   3.311   2.797 -0.7092  0.0533  0.0147
   76CHL1   H4A 6736   5.391   3.242   2.729 -1.3140  0.4037 -0.8397
   76CHL1   H4B 6737   5.347   3.412   2.753  0.8348  0.3315  0.9314
   76CHL1    C5 6738   5.392   3.307   2.938  0.4723 -0.4646 -0.6002
   76CHL1    C6 6739   5.449   3.416   2.989 -0.0062 -0.4163  0.4495
   76CHL1    H6 6740   5.473   3.502   2.925  1.3898 -1.2640 -0.2201
   76CHL1    C7 6741   5.505   3.423   3.130 -0.3098 -0.4621 -0.2011
   76CHL1   H7A 6742   5.611   3.458   3.128  0.2002 -1.8044  1.4857
   76CHL1   H7B 6743   5.442   3.495   3.187  2.1111 -0.1005  2.2121
   76CHL1    C8 6744   5.507   3.283   3.203 -0.5278  0.4131 -0.2733
   76CHL1    H8 6745   5.593   3.227   3.159 -1.0063 -2.6076  2.2824
   76CHL1   C14 6746   5.518   3.295   3.353 -0.0678  0.2277 -0.3520
   76CHL1   H14 6747   5.426   3.342   3.393  1.5354  2.3172  1.0360
   76CHL1   C15 6748   5.635   3.373   3.411  0.2322  0.4539 -0.1949
   76CHL1  H15A 6749   5.728   3.356   3.353 -0.1855  2.5190 -1.5845
   76CHL1  H15B 6750   5.610   3.480   3.427 -1.3060 -0.1086  1.6012
   76CHL1   C16 6751   5.657   3.305   3.551 -0.0932 -0.2255  0.3781
   76CHL1  H16A 6752   5.763   3.271   3.547  1.3343  3.4478  1.9169
   76CHL1  H16B 6753   5.663   3.383   3.630  1.4653  0.1851 -0.0944
   76CHL1   C17 6754   5.558   3.194   3.569  0.3436  0.2803 -0.2283
   76CHL1   H17 6755   5.471   3.244   3.616 -0.0371 -1.0865  0.5615
   76CHL1   C13 6756   5.525   3.152   3.428 -0.1880 -0.0796  0.0148
   76CHL1   C18 6757   5.640   3.065   3.372  0.6602  0.0940  0.2136
   76CHL1  H18A 6758   5.612   3.029   3.271 -0.7467  0.0376  0.5996
   76CHL1  H18B 6759   5.740   3.115   3.368  0.4233  0.5252 -0.4032
   76CHL1  H18C 6760   5.641   2.975   3.437  0.0905  1.0079  1.5250
   76CHL1   C12 6761   5.387   3.094   3.397 -0.8515 -0.5700  0.0812
   76CHL1  H12A 6762   5.375   2.992   3.442  0.4307 -0.4709  0.6941
   76CHL1  H12B 6763   5.310   3.160   3.443  1.0159  1.9730 -0.2612
   76CHL1   C11 6764   5.361   3.081   3.252 -0.0970  0.3136 -0.4695
   76CHL1  H11A 6765   5.425   2.997   3.216 -1.0010 -0.3244 -0.6472
   76CHL1  H11B 6766   5.256   3.046   3.236 -0.5787  2.4470 -2.5709
   76CHL1    C9 6767   5.382   3.206   3.161 -0.4943 -0.3173 -0.1231
   76CHL1    H9 6768   5.303   3.277   3.194 -0.8002 -1.6752  2.3406
   76CHL1   C10 6769   5.357   3.178   3.013 -0.0830  0.6278  0.0135
   76CHL1   C19 6770   5.456   3.063   2.958 -0.3962 -0.9506  0.0233
   76CHL1  H19A 6771   5.560   3.088   2.988 -1.2354  0.0073  2.4000
   76CHL1  H19B 6772   5.429   2.967   3.006  2.1694 -0.6243  2.3763
   76CHL1  H19C 6773   5.447   3.045   2.849  1.1093 -0.2605 -0.2408
   76CHL1    C1 6774   5.205   3.141   2.990  0.1584 -0.2629 -0.1707
   76CHL1   H1A 6775   5.171   3.046   3.037 -1.4358  0.3647  0.0071
   76CHL1   H1B 6776   5.140   3.206   3.052  0.1747 -0.8853  0.5274
   76CHL1    C2 6777   5.164   3.139   2.842  0.4185  0.0676 -0.1415
   76CHL1   H2A 6778   5.058   3.113   2.824  0.2405 -0.4323  1.5164
   76CHL1   H2B 6779   5.223   3.061   2.789  0.6444 -0.9251  1.5137
   76CHL1   C20 6780   5.603   3.084   3.665  0.7883  0.1345 -0.0459
   76CHL1   H20 6781   5.681   3.014   3.628  1.1182 -0.0333  0.9590
   76CHL1   C21 6782   5.478   2.999   3.707 -0.1627  0.3674 -0.7789
   76CHL1  H21A 6783   5.495   2.925   3.788 -0.7315  1.7370  0.6407
   76CHL1  H21B 6784   5.450   2.938   3.618 -2.1096  0.5335 -0.3431
   76CHL1  H21C 6785   5.388   3.062   3.722 -0.6953 -0.4205 -0.5878
   76CHL1   C22 6786   5.666   3.155   3.789  0.3688  0.3483  0.0049
   76CHL1  H22A 6787   5.760   3.214   3.780  0.9973 -0.2145  2.1867
   76CHL1  H22B 6788   5.594   3.217   3.848  0.2862 -1.4993  1.9781
   76CHL1   C23 6789   5.707   3.065   3.913  0.2116  0.4483  0.2767
   76CHL1  H23A 6790   5.619   3.001   3.934  1.2291 -1.0211  0.2105
   76CHL1  H23B 6791   5.772   2.984   3.874 -0.8295  0.9629 -2.8360
   76CHL1   C24 6792   5.769   3.134   4.039 -0.5585  0.2205  0.4873
   76CHL1  H24A 6793   5.868   3.173   4.009  0.3870 -1.9788  0.5942
   76CHL1  H24B 6794   5.694   3.213   4.063 -1.6274 -0.5979 -0.0823
   76CHL1   C25 6795   5.796   3.036   4.156  0.2098 -0.3389  0.2299
   76CHL1   H25 6796   5.720   2.956   4.159 -0.4735  0.3177  2.0644
   76CHL1   C26 6797   5.937   2.969   4.139  0.1883  0.3402 -0.0690
   76CHL1  H26A 6798   6.023   3.033   4.167  0.7205 -0.6109  0.5059
   76CHL1  H26B 6799   5.945   2.889   4.215  0.9646 -0.3251 -0.8452
   76CHL1  H26C 6800   5.940   2.928   4.036 -0.4062 -3.3368  1.2455
   76CHL1   C27 6801   5.772   3.110   4.294  0.6869  0.3617 -0.1820
   76CHL1  H27A 6802   5.860   3.171   4.321  2.0375 -1.1740 -0.9064
   76CHL1  H27B 6803   5.679   3.171   4.292  0.1126 -0.2794  2.7117
   76CHL1  H27C 6804   5.754   3.048   4.384 -0.3932  0.6911 -0.1636
   77SOPE     N 6805   3.276   2.656   6.288 -0.0079  0.2809  0.3763
   77SOPE   HN1 6806   3.267   2.552   6.296  0.5798  0.0511 -1.3386
   77SOPE   HN2 6807   3.369   2.679   6.329  1.0763 -1.3824 -0.9968
   77SOPE   HN3 6808   3.204   2.707   6.341 -2.1749 -1.1296 -1.0430
   77SOPE   C12 6809   3.271   2.692   6.146  0.0047 -0.5215  0.4815
   77SOPE  H12A 6810   3.272   2.802   6.131 -0.3447 -0.5462  0.2502
   77SOPE  H12B 6811   3.173   2.664   6.103  0.3794 -0.1886 -0.6255
   77SOPE   C11 6812   3.374   2.630   6.055  0.4488  0.3809  0.1679
   77SOPE  H11A 6813   3.477   2.670   6.067  1.0762 -0.6317 -1.4025
   77SOPE  H11B 6814   3.357   2.650   5.947  0.5862 -1.7136 -0.2807
   77SOPE     P 6815   3.271   2.380   6.025  0.1293  0.3020 -0.0620
   77SOPE   O13 6816   3.139   2.444   6.020  0.5430  0.0202 -0.0049
   77SOPE   O14 6817   3.284   2.258   6.101  0.7070 -0.1491  0.0430
   77SOPE   O12 6818   3.375   2.487   6.071  0.2178 -0.4227  0.3496
   77SOPE   O11 6819   3.311   2.364   5.880 -0.0299  1.0988 -0.3521
   77SOPE    C1 6820   3.420   2.280   5.847 -0.5089 -1.0973  0.3532
   77SOPE    HA 6821   3.408   2.173   5.875 -1.0648 -2.2086 -3.5290
   77SOPE    HB 6822   3.507   2.307   5.911  0.4715 -1.8261 -0.6200
   77SOPE    C2 6823   3.467   2.285   5.700  0.2720 -0.4746 -0.8464
   77SOPE    HS 6824   3.491   2.392   5.686 -0.1480 -0.3431 -0.5824
   77SOPE   O21 6825   3.361   2.254   5.611 -0.3028 -0.4305 -0.2190
   77SOPE   C21 6826   3.324   2.129   5.598  0.1253 -0.0197  0.5641
   77SOPE   O22 6827   3.350   2.038   5.672 -0.1839 -0.2422  1.1974
   77SOPE   C22 6828   3.233   2.109   5.469  0.0555 -0.5095  0.0088
   77SOPE   H2R 6829   3.194   2.212   5.449  0.8249  0.0795  1.4325
   77SOPE   H2S 6830   3.158   2.041   5.514 -0.3674 -0.1981 -0.2171
   77SOPE    C3 6831   3.595   2.195   5.679 -0.5835  0.0002 -0.7406
   77SOPE    HX 6832   3.571   2.093   5.717 -0.7547 -0.0764 -1.0571
   77SOPE    HY 6833   3.672   2.237   5.748 -0.8141  0.9824 -1.0699
   77SOPE   O31 6834   3.636   2.190   5.541  0.4026  0.2033 -0.0515
   77SOPE   C31 6835   3.738   2.280   5.516  0.1455  0.0591  0.2624
   77SOPE   O32 6836   3.774   2.368   5.586 -0.2624  0.2640 -0.8196
   77SOPE   C32 6837   3.803   2.243   5.390  0.1287  0.1313  0.6991
   77SOPE   H2X 6838   3.775   2.138   5.365 -0.4923  0.7862 -1.6320
   77SOPE   H2Y 6839   3.913   2.250   5.396  0.0902  2.5063 -0.2550
   77SOPE   C23 6840   3.308   2.046   5.348 -0.0546 -0.7619  0.0359
   77SOPE   H3R 6841   3.234   2.011   5.272 -1.6236 -1.2434  1.7159
   77SOPE   H3S 6842   3.363   1.954   5.377  1.5226  0.0210 -0.3810
   77SOPE   C24 6843   3.405   2.129   5.266  0.0815  0.0880 -0.1526
   77SOPE   H4R 6844   3.354   2.216   5.220  1.1646  0.7691 -0.1078
   77SOPE   H4S 6845   3.485   2.176   5.328 -0.0683  0.4940 -0.2604
   77SOPE   C25 6846   3.478   2.054   5.148  0.1784  0.6416  0.2619
   77SOPE   H5R 6847   3.564   2.121   5.126  0.2475  0.1881 -0.9110
   77SOPE   H5S 6848   3.508   1.948   5.162  0.3404  0.3333 -2.1388
   77SOPE   C26 6849   3.404   2.068   5.015  0.2552  0.6296  0.3306
   77SOPE   H6R 6850   3.297   2.036   5.019  0.8227 -1.5904 -0.7484
   77SOPE   H6S 6851   3.395   2.176   4.990  0.4115 -0.0499 -3.2096
   77SOPE   C27 6852   3.479   1.991   4.910  0.1103 -0.2495 -0.0674
   77SOPE   H7R 6853   3.579   2.038   4.901  0.9325 -2.0886 -1.1051
   77SOPE   H7S 6854   3.493   1.886   4.943  0.0150 -0.6283 -1.1775
   77SOPE   C28 6855   3.405   1.994   4.773  0.2841 -0.0178 -0.0644
   77SOPE   H8R 6856   3.464   1.938   4.698  3.3505  3.4983 -0.5577
   77SOPE   H8S 6857   3.301   1.957   4.786  0.3931 -1.7151 -3.1717
   77SOPE   C29 6858   3.401   2.133   4.718  0.5159 -0.3029  0.3567
   77SOPE   H91 6859   3.302   2.178   4.739 -0.7408 -3.7607  2.6993
   77SOPE  C210 6860   3.499   2.198   4.656  0.0812  0.2495 -0.0165
   77SOPE  H101 6861   3.478   2.299   4.616  0.3196  0.8976  1.4305
   77SOPE  C211 6862   3.639   2.158   4.641 -0.0533  0.1629  0.1140
   77SOPE  H11R 6863   3.655   2.053   4.675  0.2598 -0.8299 -2.7399
   77SOPE  H11S 6864   3.704   2.231   4.694 -1.3441 -0.5780  2.9115
   77SOPE  C212 6865   3.673   2.163   4.490  0.3369 -0.1863 -0.3963
   77SOPE  H12R 6866   3.781   2.174   4.468  0.3730 -1.6098 -1.0211
   77SOPE  H12S 6867   3.610   2.240   4.441 -2.9320 -2.6069 -0.3981
   77SOPE  C213 6868   3.643   2.033   4.416  0.5910 -0.9412 -0.2852
   77SOPE  H13R 6869   3.538   2.000   4.429 -0.1292  0.3252 -2.3917
   77SOPE  H13S 6870   3.717   1.959   4.453  0.1638 -0.9522  0.5871
   77SOPE  C214 6871   3.663   2.065   4.270  0.0381 -0.3090  0.5012
   77SOPE  H14R 6872   3.773   2.080   4.258  0.3635 -2.5456  0.2963
   77SOPE  H14S 6873   3.609   2.155   4.233 -0.6417 -1.2646 -0.9488
   77SOPE  C215 6874   3.613   1.958   4.168 -1.3917 -0.1364 -0.5198
   77SOPE  H15R 6875   3.511   1.926   4.196 -0.7254 -1.3797  0.6258
   77SOPE  H15S 6876   3.675   1.867   4.183 -0.0454  0.0474 -4.0045
   77SOPE  C216 6877   3.615   1.995   4.018 -0.7241  0.1938 -0.5369
   77SOPE  H16R 6878   3.702   2.063   4.004 -1.3238  0.6626 -2.2777
   77SOPE  H16S 6879   3.521   2.044   3.986  0.1831  1.3878 -1.5237
   77SOPE  C217 6880   3.633   1.876   3.927  0.0737 -0.2695  0.7471
   77SOPE  H17R 6881   3.584   1.791   3.980  1.5571 -0.4359  1.9006
   77SOPE  H17S 6882   3.739   1.844   3.931  0.2449  0.0564 -0.7834
   77SOPE  C218 6883   3.588   1.881   3.780 -0.7505 -0.1797 -0.8234
   77SOPE  H18R 6884   3.659   1.937   3.716 -0.2623 -1.1511 -1.1648
   77SOPE  H18S 6885   3.486   1.923   3.768 -0.7963 -0.1347 -0.2933
   77SOPE  H18T 6886   3.600   1.777   3.743  1.5354  0.9420 -3.6389
   77SOPE   C33 6887   3.758   2.328   5.270  0.1892  0.0054 -0.1594
   77SOPE   H3X 6888   3.797   2.431   5.285 -0.7936  0.6004 -1.4806
   77SOPE   H3Y 6889   3.649   2.308   5.265  0.5850 -2.1691 -3.2761
   77SOPE   C34 6890   3.804   2.283   5.130  0.6286 -0.1094  0.5722
   77SOPE   H4X 6891   3.748   2.339   5.052  1.1815  0.5663  0.6514
   77SOPE   H4Y 6892   3.779   2.175   5.116  0.4889  0.1525 -1.5008
   77SOPE   C35 6893   3.953   2.296   5.105  0.1931  0.1704 -0.5372
   77SOPE   H5X 6894   4.004   2.211   5.154 -1.7813 -1.8861 -1.8250
   77SOPE   H5Y 6895   3.981   2.386   5.164  2.3911  0.2390 -1.5776
   77SOPE   C36 6896   4.002   2.315   4.962 -0.0403  0.3309  0.4811
   77SOPE   H6X 6897   3.928   2.380   4.910  1.5261  2.3659  0.6666
   77SOPE   H6Y 6898   4.006   2.219   4.906 -0.4874  0.1057  0.8258
   77SOPE   C37 6899   4.144   2.372   4.953  0.1669 -0.6353  0.2668
   77SOPE   H7X 6900   4.211   2.293   4.994 -0.2940 -0.7309  0.8563
   77SOPE   H7Y 6901   4.148   2.472   5.001  1.3681 -0.3106 -0.4729
   77SOPE   C38 6902   4.179   2.397   4.806  0.1081  0.0433  0.6464
   77SOPE   H8X 6903   4.286   2.429   4.812  0.1047  0.0362  0.7417
   77SOPE   H8Y 6904   4.130   2.486   4.761 -0.0194  0.0153  0.7321
   77SOPE   C39 6905   4.156   2.274   4.712 -0.0109  0.5182 -0.2465
   77SOPE   H9X 6906   4.050   2.247   4.694  0.4396 -0.6687 -1.3174
   77SOPE   H9Y 6907   4.191   2.183   4.766  1.0747  1.8777  1.4381
   77SOPE  C310 6908   4.241   2.263   4.580 -0.0001 -0.1664  0.0365
   77SOPE  H10X 6909   4.349   2.263   4.604  0.0143  0.4543 -0.0237
   77SOPE  H10Y 6910   4.229   2.354   4.517  0.5458 -1.2555 -1.7420
   77SOPE  C311 6911   4.221   2.128   4.513  0.3286 -0.1693 -0.0807
   77SOPE  H11X 6912   4.113   2.102   4.505  0.2560 -0.3138  1.1823
   77SOPE  H11Y 6913   4.266   2.050   4.578  1.5475  1.2182  0.8066
   77SOPE  C312 6914   4.264   2.134   4.367 -0.6958 -0.2724 -0.6367
   77SOPE  H12X 6915   4.215   2.221   4.317 -1.6810 -0.4733 -0.0479
   77SOPE  H12Y 6916   4.247   2.032   4.327  0.8931 -0.1343 -1.7469
   77SOPE  C313 6917   4.414   2.166   4.357  0.2073  0.2401 -0.4601
   77SOPE  H13X 6918   4.462   2.083   4.412 -2.5685 -0.8854  0.4385
   77SOPE  H13Y 6919   4.444   2.255   4.418  0.9502  1.3133 -2.2863
   77SOPE  C314 6920   4.453   2.156   4.218  0.5481 -0.7140  0.0666
   77SOPE  H14X 6921   4.387   2.226   4.162  0.2104  0.3268  1.7085
   77SOPE  H14Y 6922   4.448   2.050   4.185  2.8964 -0.9419  0.2216
   77SOPE  C315 6923   4.604   2.189   4.182  0.5292 -0.8208  0.4205
   77SOPE  H15X 6924   4.673   2.152   4.261  1.5647 -0.7778 -0.4451
   77SOPE  H15Y 6925   4.614   2.298   4.168  0.0643 -0.8638 -0.3127
   77SOPE  C316 6926   4.651   2.120   4.050 -0.5095 -0.1634  0.0935
   77SOPE  H16X 6927   4.582   2.140   3.966 -0.7452  1.3112  0.5971
   77SOPE  H16Y 6928   4.641   2.010   4.061  2.8272 -0.9939 -3.2314
   77SOPE  C317 6929   4.796   2.142   4.018  0.3660 -0.3068 -0.2463
   77SOPE  H17X 6930   4.851   2.128   4.113 -0.0729 -0.9368 -0.0847
   77SOPE  H17Y 6931   4.804   2.245   3.976  0.8217 -0.2055  0.0756
   77SOPE  C318 6932   4.840   2.046   3.913 -0.3114 -0.5161  0.1404
   77SOPE  H18X 6933   4.840   1.943   3.955  0.5558 -0.6226 -0.0954
   77SOPE  H18Y 6934   4.932   2.069   3.855 -1.5378  1.8899 -0.9620
   77SOPE  H18Z 6935   4.759   2.042   3.838  0.1936 -1.1486 -0.3900
   78SOPE     N 6936   2.321   3.002   6.655 -0.5480 -0.5971  0.3474
   78SOPE   HN1 6937   2.217   3.012   6.650 -0.4712 -0.2430 -1.1751
   78SOPE   HN2 6938   2.355   2.972   6.748  1.4051  0.5787  0.0593
   78SOPE   HN3 6939   2.373   3.083   6.617  0.7275 -1.9286 -0.8591
   78SOPE   C12 6940   2.362   2.892   6.560  0.1880 -0.6648  0.4447
   78SOPE  H12A 6941   2.365   2.938   6.459 -0.1472  2.0365  1.5887
   78SOPE  H12B 6942   2.288   2.809   6.558  0.4163 -0.8628 -0.4122
   78SOPE   C11 6943   2.508   2.837   6.579 -0.0796  0.3100  0.3573
   78SOPE  H11A 6944   2.517   2.786   6.678 -1.7195 -0.4056  0.1751
   78SOPE  H11B 6945   2.577   2.923   6.574  0.5145 -0.2303 -2.2281
   78SOPE     P 6946   2.579   2.754   6.329  0.3795 -0.7175 -0.3296
   78SOPE   O13 6947   2.539   2.632   6.262  0.0768 -0.0053  0.0938
   78SOPE   O14 6948   2.722   2.781   6.335  0.1752  0.3423 -0.0300
   78SOPE   O12 6949   2.533   2.740   6.480  0.2741  0.7174  0.2385
   78SOPE   O11 6950   2.506   2.882   6.268 -0.0794 -0.2645  0.3410
   78SOPE    C1 6951   2.377   2.860   6.209 -0.3664 -0.8605 -0.4091
   78SOPE    HA 6952   2.317   2.952   6.224  1.8118  0.6960 -0.6484
   78SOPE    HB 6953   2.326   2.778   6.263 -0.6787  0.0604  0.7688
   78SOPE    C2 6954   2.375   2.839   6.053 -0.6707 -0.1441 -0.1318
   78SOPE    HS 6955   2.275   2.861   6.011 -1.0500 -2.6064 -0.6270
   78SOPE   O21 6956   2.416   2.707   6.023 -0.3373  0.6212  0.2996
   78SOPE   C21 6957   2.321   2.606   6.048  0.1652 -0.6668  0.1215
   78SOPE   O22 6958   2.212   2.635   6.081  0.3630 -0.4863  0.5528
   78SOPE   C22 6959   2.370   2.460   6.020  0.4789  0.5730 -0.8726
   78SOPE   H2R 6960   2.315   2.402   6.097  0.8946 -3.1239 -3.1099
   78SOPE   H2S 6961   2.480   2.464   6.036  0.1800  0.8231  1.4706
   78SOPE    C3 6962   2.472   2.940   5.980 -0.8870  0.8790 -0.3308
   78SOPE    HX 6963   2.577   2.910   6.003 -1.6224 -1.9823 -0.3565
   78SOPE    HY 6964   2.451   3.034   6.036  0.0360  0.4097  0.8457
   78SOPE   O31 6965   2.442   2.959   5.838 -0.3339 -0.2328 -0.2993
   78SOPE   C31 6966   2.526   2.901   5.749 -0.2711 -0.1140 -1.1103
   78SOPE   O32 6967   2.628   2.850   5.787 -0.3705 -0.0557  0.3086
   78SOPE   C32 6968   2.487   2.919   5.608 -0.4542 -0.3059 -0.5113
   78SOPE   H2X 6969   2.536   3.007   5.560  0.9881 -0.1986  1.0645
   78SOPE   H2Y 6970   2.376   2.932   5.603 -0.4595  1.1642  1.8824
   78SOPE   C23 6971   2.332   2.401   5.884 -0.1280 -0.8767  0.2553
   78SOPE   H3R 6972   2.241   2.456   5.851  0.2611 -0.9052 -0.9265
   78SOPE   H3S 6973   2.302   2.294   5.888 -0.7237 -0.7627 -0.7412
   78SOPE   C24 6974   2.452   2.416   5.791  0.3231 -0.1983  0.4188
   78SOPE   H4R 6975   2.485   2.522   5.798  0.1473  0.1042 -2.2883
   78SOPE   H4S 6976   2.538   2.360   5.832  0.1493 -0.4501  0.4450
   78SOPE   C25 6977   2.423   2.377   5.640 -0.1625 -0.6049 -0.6469
   78SOPE   H5R 6978   2.516   2.381   5.580 -0.0261  2.3796 -0.3638
   78SOPE   H5S 6979   2.374   2.278   5.653 -1.5845 -0.0130 -1.3071
   78SOPE   C26 6980   2.316   2.458   5.577 -0.2012  0.3418  0.4680
   78SOPE   H6R 6981   2.224   2.426   5.631 -0.4260  0.3011  0.0668
   78SOPE   H6S 6982   2.331   2.568   5.587 -0.2780  0.3836  0.1421
   78SOPE   C27 6983   2.331   2.436   5.425 -0.6733 -0.3574 -0.0741
   78SOPE   H7R 6984   2.420   2.487   5.381 -1.0973  0.8350  0.3924
   78SOPE   H7S 6985   2.341   2.326   5.411 -1.6263 -0.3883 -0.5601
   78SOPE   C28 6986   2.213   2.462   5.331 -0.4562 -0.4006 -0.6331
   78SOPE   H8R 6987   2.127   2.421   5.387  0.4141  0.8000  1.7234
   78SOPE   H8S 6988   2.201   2.573   5.340 -1.6415 -0.3188 -2.5962
   78SOPE   C29 6989   2.218   2.398   5.203  0.0950  0.1216 -1.0224
   78SOPE   H91 6990   2.232   2.289   5.205  2.5083  0.3891 -0.4894
   78SOPE  C210 6991   2.249   2.464   5.090  0.3433 -0.1803 -0.4660
   78SOPE  H101 6992   2.261   2.401   5.001 -0.9363  1.2941 -1.7376
   78SOPE  C211 6993   2.263   2.611   5.065 -0.8145 -0.5846  0.4276
   78SOPE  H11R 6994   2.369   2.625   5.036 -0.3498 -3.2530  0.6121
   78SOPE  H11S 6995   2.226   2.668   5.153 -0.5933  0.3667 -0.0789
   78SOPE  C212 6996   2.176   2.666   4.944  0.0316  0.4392 -0.1626
   78SOPE  H12R 6997   2.185   2.776   4.949  1.5967  0.4806 -2.2099
   78SOPE  H12S 6998   2.073   2.628   4.961  0.4422 -0.0164  1.4073
   78SOPE  C213 6999   2.219   2.615   4.807  0.5726  0.5850  0.0444
   78SOPE  H13R 7000   2.212   2.504   4.799  1.8907  0.4342  0.7422
   78SOPE  H13S 7001   2.326   2.637   4.785  0.9564  0.3124  1.5097
   78SOPE  C214 7002   2.144   2.685   4.696 -0.0691  0.2431 -0.3116
   78SOPE  H14R 7003   2.142   2.791   4.727 -0.8543 -0.4150  2.1263
   78SOPE  H14S 7004   2.038   2.651   4.698 -0.4867  1.5187  0.7397
   78SOPE  C215 7005   2.201   2.674   4.554  0.0755  0.2161  0.2420
   78SOPE  H15R 7006   2.300   2.720   4.536  0.0864 -0.3497 -1.3297
   78SOPE  H15S 7007   2.133   2.729   4.485  1.6798 -1.9247 -3.3590
   78SOPE  C216 7008   2.199   2.535   4.490  0.2259 -0.5192  0.5177
   78SOPE  H16R 7009   2.098   2.490   4.497 -0.0873  0.0339 -0.2600
   78SOPE  H16S 7010   2.276   2.471   4.538  1.2675 -0.4119 -0.9175
   78SOPE  C217 7011   2.239   2.556   4.345  0.7631  0.6022  0.3136
   78SOPE  H17R 7012   2.308   2.642   4.334  1.4900 -0.3113 -3.5493
   78SOPE  H17S 7013   2.150   2.581   4.284  1.5025  0.5395 -0.8156
   78SOPE  C218 7014   2.302   2.433   4.279  0.0353  0.3547  0.2362
   78SOPE  H18R 7015   2.312   2.448   4.169 -0.6937 -0.8431 -0.0116
   78SOPE  H18S 7016   2.239   2.345   4.302  0.9117 -0.2971  0.2125
   78SOPE  H18T 7017   2.397   2.400   4.327 -1.8695 -1.0465  3.2735
   78SOPE   C33 7018   2.541   2.806   5.524 -0.9849 -0.8720 -0.2012
   78SOPE   H3X 7019   2.492   2.712   5.558 -2.3817 -0.6332 -1.4426
   78SOPE   H3Y 7020   2.648   2.796   5.550 -0.9207 -0.9137 -0.4763
   78SOPE   C34 7021   2.515   2.820   5.365 -0.6445 -0.3948 -0.7409
   78SOPE   H4X 7022   2.405   2.820   5.347 -0.4338  1.1872 -2.3237
   78SOPE   H4Y 7023   2.554   2.726   5.321  0.6668  0.7042 -2.0342
   78SOPE   C35 7024   2.592   2.931   5.296  0.3669 -0.0407  0.2722
   78SOPE   H5X 7025   2.702   2.926   5.310  0.5517 -1.4823 -1.4158
   78SOPE   H5Y 7026   2.560   3.028   5.339  1.2895 -0.5914  2.3618
   78SOPE   C36 7027   2.553   2.934   5.151  0.0039 -0.5025 -0.2065
   78SOPE   H6X 7028   2.597   3.025   5.106 -1.2893  0.8346  1.1210
   78SOPE   H6Y 7029   2.442   2.941   5.150 -0.0454 -0.4513  1.7134
   78SOPE   C37 7030   2.608   2.821   5.058  0.2618 -0.1913  0.9828
   78SOPE   H7X 7031   2.589   2.723   5.107 -1.4365 -1.0339 -1.1888
   78SOPE   H7Y 7032   2.718   2.831   5.048  0.3174 -0.6031  1.1524
   78SOPE   C38 7033   2.549   2.820   4.916  0.0076  0.4514  0.4853
   78SOPE   H8X 7034   2.440   2.828   4.931  0.1577  0.3232  1.7517
   78SOPE   H8Y 7035   2.557   2.719   4.870 -3.8349  0.8713 -1.4456
   78SOPE   C39 7036   2.597   2.916   4.809  0.5807 -0.2422  0.5049
   78SOPE   H9X 7037   2.693   2.883   4.763  0.5287  2.8220 -2.1017
   78SOPE   H9Y 7038   2.618   3.017   4.850  1.4934  0.8988 -2.5133
   78SOPE  C310 7039   2.500   2.932   4.691 -0.3221 -0.2210 -0.3075
   78SOPE  H10X 7040   2.402   2.966   4.732  0.7644  0.7556  1.5858
   78SOPE  H10Y 7041   2.479   2.831   4.649 -0.9674 -0.9627  1.6868
   78SOPE  C311 7042   2.567   3.013   4.576  0.3150 -0.1425  0.1411
   78SOPE  H11X 7043   2.556   3.122   4.596 -0.0936 -0.4785  1.9616
   78SOPE  H11Y 7044   2.502   2.982   4.492  0.7596 -1.6288  0.3255
   78SOPE  C312 7045   2.705   2.971   4.532 -0.6130  0.1539  0.5973
   78SOPE  H12X 7046   2.697   2.860   4.529 -0.8134  0.1663  0.6843
   78SOPE  H12Y 7047   2.783   3.005   4.603 -0.7524  0.4297  0.6172
   78SOPE  C313 7048   2.739   3.025   4.393  0.4428  0.2894 -0.0232
   78SOPE  H13X 7049   2.746   3.136   4.383  2.7947  0.0197 -2.2606
   78SOPE  H13Y 7050   2.647   3.003   4.335  0.9342  2.2284 -1.6499
   78SOPE  C314 7051   2.865   2.951   4.333  0.4672 -0.1993 -0.0818
   78SOPE  H14X 7052   2.855   2.971   4.224 -0.8229 -0.1338  0.0275
   78SOPE  H14Y 7053   2.852   2.843   4.356 -1.9774  0.0058 -0.2551
   78SOPE  C315 7054   2.997   3.002   4.391 -0.6469 -0.7538  0.2650
   78SOPE  H15X 7055   3.067   2.938   4.332 -1.2415  0.6515 -2.0795
   78SOPE  H15Y 7056   3.000   2.963   4.495 -1.1725  1.4975  1.1659
   78SOPE  C316 7057   3.025   3.154   4.375 -0.0471  0.6848  0.2771
   78SOPE  H16X 7058   3.122   3.176   4.425 -0.7922  1.5383  1.4047
   78SOPE  H16Y 7059   2.951   3.219   4.426  0.6227  0.4725  1.5759
   78SOPE  C317 7060   3.044   3.188   4.224 -0.4223 -0.3843 -0.3815
   78SOPE  H17X 7061   2.956   3.166   4.159 -1.5570  1.4515  0.4370
   78SOPE  H17Y 7062   3.127   3.122   4.193  0.7694  0.3368  1.1546
   78SOPE  C318 7063   3.083   3.334   4.199 -0.0267 -1.2217 -0.0680
   78SOPE  H18X 7064   3.057   3.367   4.096 -0.1921 -2.0112 -0.2809
   78SOPE  H18Y 7065   3.193   3.349   4.200 -0.0929 -0.3562  2.2738
   78SOPE  H18Z 7066   3.033   3.406   4.268  0.0142  0.0739 -1.3453
   79SOPE     N 7067   4.910   1.240   6.128  0.2581  0.3023  0.4377
   79SOPE   HN1 7068   4.965   1.325   6.106  2.0203 -1.3323 -1.9610
   79SOPE   HN2 7069   4.922   1.191   6.037 -1.3293  3.5916 -1.7251
   79SOPE   HN3 7070   4.811   1.270   6.140 -0.8107 -2.3669 -0.9295
   79SOPE   C12 7071   4.968   1.157   6.240  0.3613 -0.7552 -0.5228
   79SOPE  H12A 7072   4.886   1.097   6.284 -1.1439  2.3459  1.2718
   79SOPE  H12B 7073   4.997   1.228   6.320  0.3129 -1.3028 -0.0199
   79SOPE   C11 7074   5.078   1.070   6.183  0.5287  0.6826 -0.0284
   79SOPE  H11A 7075   5.049   1.010   6.094  2.1247  0.7635 -0.6389
   79SOPE  H11B 7076   5.106   0.996   6.260 -2.6675 -2.1098 -1.3046
   79SOPE     P 7077   5.341   1.122   6.166  0.2718  0.0354  0.1104
   79SOPE   O13 7078   5.354   0.977   6.125 -0.0703 -0.1139 -0.0738
   79SOPE   O14 7079   5.395   1.159   6.294 -0.0287  0.3224  0.3152
   79SOPE   O12 7080   5.188   1.153   6.150  0.7431  0.5001  0.2661
   79SOPE   O11 7081   5.407   1.217   6.059  0.2084 -0.6416 -0.1573
   79SOPE    C1 7082   5.342   1.232   5.927 -0.1953  0.2091 -0.5793
   79SOPE    HA 7083   5.343   1.335   5.886 -0.5453  0.2981 -0.3733
   79SOPE    HB 7084   5.233   1.242   5.949  0.0581  0.7864  0.4960
   79SOPE    C2 7085   5.394   1.135   5.816 -0.1530  0.6308 -0.9267
   79SOPE    HS 7086   5.360   1.174   5.718 -0.3224 -0.3771 -1.2824
   79SOPE   O21 7087   5.351   1.001   5.832 -0.7454  0.7726 -0.2121
   79SOPE   C21 7088   5.222   0.975   5.824  0.1102  0.1169 -0.0497
   79SOPE   O22 7089   5.137   1.054   5.786 -0.4176  0.0971 -0.0362
   79SOPE   C22 7090   5.186   0.829   5.869  0.4364  0.7501  0.2409
   79SOPE   H2R 7091   5.077   0.811   5.861  0.1244  2.2031  0.9266
   79SOPE   H2S 7092   5.207   0.826   5.978  2.8679 -1.5109 -0.1978
   79SOPE    C3 7093   5.552   1.137   5.800 -0.0369  0.1707 -0.9311
   79SOPE    HX 7094   5.592   1.104   5.898 -0.8736 -2.0203 -1.2633
   79SOPE    HY 7095   5.569   1.246   5.790 -3.5434  0.8269 -0.9036
   79SOPE   O31 7096   5.596   1.082   5.680 -0.2840  0.3959  0.2569
   79SOPE   C31 7097   5.629   0.955   5.695  0.5158 -0.3950 -0.3712
   79SOPE   O32 7098   5.650   0.898   5.801  0.6115 -0.6629 -0.0651
   79SOPE   C32 7099   5.668   0.887   5.564 -0.9830  0.8269 -0.0863
   79SOPE   H2X 7100   5.685   0.778   5.576 -1.9116  0.7749  0.9342
   79SOPE   H2Y 7101   5.767   0.927   5.534 -0.6696  0.7125  0.7574
   79SOPE   C23 7102   5.268   0.727   5.787  0.1714 -0.2414  0.6765
   79SOPE   H3R 7103   5.258   0.625   5.829 -1.4536 -0.4883 -0.1963
   79SOPE   H3S 7104   5.376   0.753   5.789 -0.3084  1.9851  0.2012
   79SOPE   C24 7105   5.238   0.735   5.631 -0.4110  0.3313 -0.2781
   79SOPE   H4R 7106   5.129   0.717   5.621 -0.3782 -0.4678  0.6139
   79SOPE   H4S 7107   5.270   0.834   5.592  1.8096 -0.3839 -0.4175
   79SOPE   C25 7108   5.312   0.621   5.551  0.5019  0.1058 -0.4209
   79SOPE   H5R 7109   5.416   0.637   5.585  1.2458  1.4121 -3.0422
   79SOPE   H5S 7110   5.269   0.525   5.587 -0.0742  0.3510 -0.4389
   79SOPE   C26 7111   5.307   0.631   5.402  0.1986  0.0558 -0.1549
   79SOPE   H6R 7112   5.198   0.616   5.382  0.3575 -0.4298 -0.7093
   79SOPE   H6S 7113   5.328   0.733   5.363 -0.9813  0.7845  1.0419
   79SOPE   C27 7114   5.392   0.524   5.322 -0.1649 -0.6980 -0.2978
   79SOPE   H7R 7115   5.499   0.549   5.336  0.4451 -1.8129 -2.5810
   79SOPE   H7S 7116   5.377   0.426   5.371 -1.5921  1.0431  3.0415
   79SOPE   C28 7117   5.347   0.525   5.173 -0.1779 -0.2849  0.2701
   79SOPE   H8R 7118   5.360   0.626   5.128  0.9278  0.1260  1.4181
   79SOPE   H8S 7119   5.421   0.459   5.124 -0.0723  0.4685 -0.6095
   79SOPE   C29 7120   5.202   0.478   5.153  0.5560  0.0924 -0.0622
   79SOPE   H91 7121   5.161   0.431   5.244  0.8998 -0.2634 -0.0876
   79SOPE  C210 7122   5.141   0.479   5.031 -1.1660 -0.0703 -0.0372
   79SOPE  H101 7123   5.041   0.434   5.015 -1.6201  0.8286  0.2040
   79SOPE  C211 7124   5.202   0.524   4.895 -0.0803  0.7213  0.0773
   79SOPE  H11R 7125   5.302   0.478   4.878  0.4806  0.4946  3.3061
   79SOPE  H11S 7126   5.220   0.633   4.889  2.9053  0.2865 -1.1374
   79SOPE  C212 7127   5.108   0.470   4.787 -0.2015 -0.5587 -0.4939
   79SOPE  H12R 7128   5.007   0.516   4.800 -0.0839 -1.0653  3.9924
   79SOPE  H12S 7129   5.083   0.362   4.798 -1.2676 -0.1840  1.2882
   79SOPE  C213 7130   5.149   0.500   4.644 -0.1901 -0.3580 -0.7261
   79SOPE  H13R 7131   5.243   0.442   4.627  0.9694  0.4934  2.1705
   79SOPE  H13S 7132   5.167   0.607   4.622  0.5855 -0.4568 -0.5894
   79SOPE  C214 7133   5.045   0.451   4.536 -0.2141  0.1266 -0.5442
   79SOPE  H14R 7134   4.971   0.534   4.544  1.1619  1.3050  0.4623
   79SOPE  H14S 7135   4.999   0.357   4.572  0.9883  0.2243  1.3331
   79SOPE  C215 7136   5.097   0.441   4.392  0.4436  1.3828  0.1303
   79SOPE  H15R 7137   5.183   0.370   4.392  0.1371  0.8674 -3.1913
   79SOPE  H15S 7138   5.147   0.536   4.364  0.7493  1.4136  0.7525
   79SOPE  C216 7139   4.991   0.403   4.284  0.0171  0.4699 -0.2129
   79SOPE  H16R 7140   4.936   0.493   4.249  4.1644  3.4694  0.2669
   79SOPE  H16S 7141   4.936   0.314   4.320  1.8553 -0.6704 -0.0691
   79SOPE  C217 7142   5.045   0.355   4.150  0.3598  0.2172  0.4634
   79SOPE  H17R 7143   5.102   0.262   4.169 -0.9798 -0.8502 -0.5362
   79SOPE  H17S 7144   5.112   0.437   4.118  2.3515 -1.1506  0.9661
   79SOPE  C218 7145   4.927   0.343   4.046 -0.4025  0.3341  0.1154
   79SOPE  H18R 7146   4.959   0.326   3.941 -3.8946  0.7581 -1.1407
   79SOPE  H18S 7147   4.866   0.436   4.054  1.7370  1.6838  1.6611
   79SOPE  H18T 7148   4.855   0.263   4.076  1.2602 -0.8888  0.9992
   79SOPE   C33 7149   5.574   0.913   5.450  0.8896 -0.0695 -0.0529
   79SOPE   H3X 7150   5.540   1.019   5.448 -2.8660 -1.1648 -1.3302
   79SOPE   H3Y 7151   5.482   0.854   5.467  1.6732 -0.7304  2.1727
   79SOPE   C34 7152   5.628   0.886   5.313  0.7915  0.7979  0.6179
   79SOPE   H4X 7153   5.634   0.779   5.282 -0.2319  1.0972 -0.7567
   79SOPE   H4Y 7154   5.735   0.914   5.311  1.0260 -0.0372 -1.5827
   79SOPE   C35 7155   5.553   0.954   5.198 -0.6101  0.2575  0.4707
   79SOPE   H5X 7156   5.559   1.065   5.200 -0.6789  0.3017 -0.7026
   79SOPE   H5Y 7157   5.443   0.939   5.197 -0.6815  0.7783 -0.0835
   79SOPE   C36 7158   5.596   0.903   5.061 -0.2249  0.2155  0.2161
   79SOPE   H6X 7159   5.592   0.793   5.073  1.5809 -0.0668 -1.2820
   79SOPE   H6Y 7160   5.705   0.922   5.049  0.0095  0.7074  2.6557
   79SOPE   C37 7161   5.513   0.940   4.936  0.5902  0.3907 -0.1211
   79SOPE   H7X 7162   5.525   1.050   4.919 -2.2400  0.7206 -0.4474
   79SOPE   H7Y 7163   5.409   0.912   4.962  1.2100 -1.5995  0.3210
   79SOPE   C38 7164   5.545   0.860   4.806 -0.6776  1.5805  0.1726
   79SOPE   H8X 7165   5.556   0.752   4.825  1.8173  1.1974 -2.6840
   79SOPE   H8Y 7166   5.644   0.899   4.773 -0.8569  1.1169 -0.9577
   79SOPE   C39 7167   5.442   0.874   4.698 -0.5846 -0.3779  0.5108
   79SOPE   H9X 7168   5.411   0.980   4.691  1.6224  0.2810 -0.0334
   79SOPE   H9Y 7169   5.346   0.833   4.736 -0.8774  0.0601  0.2531
   79SOPE  C310 7170   5.487   0.820   4.560 -0.1334 -0.3079  0.5134
   79SOPE  H10X 7171   5.521   0.715   4.572  0.2599 -0.1406  0.8773
   79SOPE  H10Y 7172   5.571   0.883   4.524 -1.1851  0.7395 -0.1595
   79SOPE  C311 7173   5.375   0.808   4.449  0.0977 -0.3051 -0.3686
   79SOPE  H11X 7174   5.350   0.898   4.389  1.9061 -1.0228 -2.3437
   79SOPE  H11Y 7175   5.283   0.786   4.507 -0.1818 -0.5228 -0.8940
   79SOPE  C312 7176   5.410   0.699   4.352 -0.2623 -0.1715 -0.9157
   79SOPE  H12X 7177   5.326   0.701   4.279 -0.6649 -1.5344 -0.5188
   79SOPE  H12Y 7178   5.392   0.604   4.407 -0.1584 -0.1031 -0.7652
   79SOPE  C313 7179   5.561   0.707   4.291  1.1060 -0.4960  0.8179
   79SOPE  H13X 7180   5.627   0.741   4.374  1.0166 -2.0881  1.5778
   79SOPE  H13Y 7181   5.552   0.770   4.200 -0.4535 -1.9602 -0.0973
   79SOPE  C314 7182   5.629   0.573   4.237  0.5526 -0.2439  0.0275
   79SOPE  H14X 7183   5.563   0.519   4.166 -1.4162  0.8624  0.9096
   79SOPE  H14Y 7184   5.652   0.517   4.330  1.7573 -0.7143 -0.5379
   79SOPE  C315 7185   5.758   0.614   4.160  0.5802  0.3911  0.8601
   79SOPE  H15X 7186   5.846   0.633   4.227  0.5296 -0.4870  1.2037
   79SOPE  H15Y 7187   5.741   0.696   4.088  0.2103 -0.0797  0.4043
   79SOPE  C316 7188   5.803   0.489   4.086 -0.6952  0.1170  0.3484
   79SOPE  H16X 7189   5.721   0.468   4.013 -0.9971 -0.1714  0.7671
   79SOPE  H16Y 7190   5.812   0.408   4.161  0.7140  0.7650  0.9036
   79SOPE  C317 7191   5.938   0.496   4.013  0.2944 -0.1535  0.2396
   79SOPE  H17X 7192   6.022   0.515   4.083  1.9300  1.5397 -2.0429
   79SOPE  H17Y 7193   5.937   0.576   3.936  1.4020  0.0215  0.3920
   79SOPE  C318 7194   5.952   0.361   3.939 -0.2627  0.5720  0.1236
   79SOPE  H18X 7195   5.872   0.326   3.870 -0.8905  1.1976  0.5143
   79SOPE  H18Y 7196   5.962   0.276   4.010  3.0147  1.6582  1.1380
   79SOPE  H18Z 7197   6.048   0.340   3.889 -1.2555 -0.7724 -1.3001
   80SOPE     N 7198   0.939   1.377   6.523 -0.7168  0.1143 -0.6271
   80SOPE   HN1 7199   0.837   1.383   6.544 -0.7918 -0.9231 -0.6474
   80SOPE   HN2 7200   0.965   1.442   6.446  1.6009  0.1951  0.1506
   80SOPE   HN3 7201   0.961   1.280   6.490 -0.2502  0.0087 -0.0187
   80SOPE   C12 7202   1.012   1.410   6.657  0.3576 -0.4279  1.0768
   80SOPE  H12A 7203   1.109   1.356   6.648  0.1281 -0.9941  1.8960
   80SOPE  H12B 7204   0.948   1.372   6.740  0.8177 -3.5484  0.1074
   80SOPE   C11 7205   1.046   1.562   6.672 -0.5384  0.1403 -0.8409
   80SOPE  H11A 7206   1.109   1.577   6.761 -0.3517  1.7643 -1.2178
   80SOPE  H11B 7207   0.944   1.604   6.683 -0.8519 -0.3163 -1.8776
   80SOPE     P 7208   1.067   1.693   6.438  0.2697  0.1715  0.0238
   80SOPE   O13 7209   0.959   1.777   6.486  0.2554  0.3872  0.1405
   80SOPE   O14 7210   1.038   1.600   6.326  0.1098  0.0441  0.1882
   80SOPE   O12 7211   1.121   1.608   6.555 -0.0088  0.6290  0.3759
   80SOPE   O11 7212   1.192   1.790   6.398  0.8256 -0.4652 -0.5087
   80SOPE    C1 7213   1.274   1.767   6.285  0.5025  0.0446 -0.1545
   80SOPE    HA 7214   1.221   1.791   6.190 -0.0590 -0.1887  0.0916
   80SOPE    HB 7215   1.301   1.659   6.281  1.1999  0.1975  0.4152
   80SOPE    C2 7216   1.405   1.850   6.281 -0.4037  0.4872 -0.3622
   80SOPE    HS 7217   1.437   1.863   6.387  2.2541 -0.9566 -0.8783
   80SOPE   O21 7218   1.370   1.972   6.223 -0.6459  0.2233  0.2123
   80SOPE   C21 7219   1.450   2.069   6.252  0.1261 -0.2975 -0.0660
   80SOPE   O22 7220   1.531   2.065   6.346  0.2076 -0.8949 -0.2562
   80SOPE   C22 7221   1.425   2.186   6.155 -0.1646 -0.5153  0.6171
   80SOPE   H2R 7222   1.317   2.210   6.156 -0.4468 -1.5231 -1.1226
   80SOPE   H2S 7223   1.447   2.134   6.059  0.2815 -1.6820  1.3343
   80SOPE    C3 7224   1.520   1.765   6.218 -0.0990  0.3401 -0.4164
   80SOPE    HX 7225   1.534   1.672   6.277 -1.9943  0.2304 -0.0699
   80SOPE    HY 7226   1.615   1.823   6.216 -0.0549  0.4357 -4.7442
   80SOPE   O31 7227   1.495   1.720   6.084  0.0622  0.3065 -0.0083
   80SOPE   C31 7228   1.533   1.809   5.997  0.3691 -0.4781  0.2654
   80SOPE   O32 7229   1.592   1.915   6.017  0.4647  0.0376  0.3282
   80SOPE   C32 7230   1.529   1.745   5.857  0.4836 -0.1929  0.3609
   80SOPE   H2X 7231   1.432   1.693   5.844 -0.5181  1.5992  0.4137
   80SOPE   H2Y 7232   1.597   1.656   5.860 -0.5079 -1.1968 -3.0122
   80SOPE   C23 7233   1.518   2.313   6.170 -0.3200 -0.5089 -0.1065
   80SOPE   H3R 7234   1.621   2.272   6.176 -0.6879 -1.6054 -0.8890
   80SOPE   H3S 7235   1.495   2.364   6.266  1.2943 -2.0494  1.1873
   80SOPE   C24 7236   1.526   2.410   6.048  0.1346  0.3019  0.0000
   80SOPE   H4R 7237   1.538   2.352   5.954  1.8406 -0.4605  0.6356
   80SOPE   H4S 7238   1.435   2.473   6.034 -0.9781 -1.1609  0.4879
   80SOPE   C25 7239   1.648   2.515   6.050 -0.7001  0.1461  0.4493
   80SOPE   H5R 7240   1.633   2.591   6.130 -2.6246  0.1980  0.0988
   80SOPE   H5S 7241   1.735   2.455   6.083 -0.2322  0.5821  0.0233
   80SOPE   C26 7242   1.687   2.570   5.914 -0.3368  0.0227 -0.7804
   80SOPE   H6R 7243   1.677   2.493   5.834 -0.9137  1.3395 -2.0224
   80SOPE   H6S 7244   1.623   2.658   5.891  0.6747  0.6987 -1.0892
   80SOPE   C27 7245   1.832   2.627   5.914 -0.0667 -0.0808 -0.5948
   80SOPE   H7R 7246   1.857   2.698   5.996  1.7244  0.1295 -1.2971
   80SOPE   H7S 7247   1.912   2.553   5.936  1.0251  1.9653  3.3632
   80SOPE   C28 7248   1.868   2.709   5.781  0.6327 -0.0140  0.0638
   80SOPE   H8R 7249   1.863   2.637   5.697  1.8200 -1.9851  1.6036
   80SOPE   H8S 7250   1.795   2.791   5.761  1.0891  0.3783 -0.0202
   80SOPE   C29 7251   2.011   2.764   5.785  0.1111  0.3424  0.7942
   80SOPE   H91 7252   2.035   2.805   5.884  2.1251 -2.2446  1.4815
   80SOPE  C210 7253   2.094   2.774   5.677 -0.4839 -0.1102  0.2046
   80SOPE  H101 7254   2.194   2.819   5.691 -0.2194 -0.2627 -1.0952
   80SOPE  C211 7255   2.070   2.736   5.537  0.3900  0.3687 -0.3589
   80SOPE  H11R 7256   2.010   2.644   5.523  0.0888  0.2991  1.1812
   80SOPE  H11S 7257   2.170   2.706   5.499  0.1423 -1.2032  0.1691
   80SOPE  C212 7258   2.015   2.846   5.453  0.0999 -0.1836  0.6488
   80SOPE  H12R 7259   1.953   2.923   5.503 -0.2324  0.8400 -1.2323
   80SOPE  H12S 7260   1.946   2.794   5.383 -1.5057 -0.1689  2.1664
   80SOPE  C213 7261   2.132   2.913   5.371  0.0962  0.2226  0.2915
   80SOPE  H13R 7262   2.202   2.836   5.333 -1.1603 -0.0688 -1.5731
   80SOPE  H13S 7263   2.188   2.989   5.429 -0.0364 -2.0545  3.7269
   80SOPE  C214 7264   2.077   2.986   5.248  0.7901 -0.3897  1.0102
   80SOPE  H14R 7265   2.006   3.065   5.282 -0.3352 -0.6342 -0.6202
   80SOPE  H14S 7266   2.001   2.920   5.199 -1.3562  2.4256  0.2556
   80SOPE  C215 7267   2.185   3.034   5.157 -0.4238  0.0502  0.1129
   80SOPE  H15R 7268   2.226   2.954   5.092 -1.2723  0.0135 -0.4048
   80SOPE  H15S 7269   2.261   3.089   5.216 -1.3459 -0.1336  1.5259
   80SOPE  C216 7270   2.127   3.126   5.047  0.1329 -0.5804  0.2979
   80SOPE  H16R 7271   2.211   3.187   5.008 -0.3299 -0.4061 -0.4275
   80SOPE  H16S 7272   2.051   3.202   5.074 -2.1565 -1.4753 -3.0434
   80SOPE  C217 7273   2.074   3.045   4.930 -0.3110  0.1980  0.2238
   80SOPE  H17R 7274   1.981   2.994   4.963 -1.1613  1.2635 -0.4350
   80SOPE  H17S 7275   2.153   2.970   4.911 -0.8945 -1.6791  4.1787
   80SOPE  C218 7276   2.052   3.123   4.800  0.2121 -0.8666  0.3902
   80SOPE  H18R 7277   1.965   3.190   4.786  0.9563 -0.1186 -0.7906
   80SOPE  H18S 7278   2.048   3.052   4.715 -2.3607  0.5867 -0.8112
   80SOPE  H18T 7279   2.141   3.186   4.785  1.7119 -3.2390 -1.3051
   80SOPE   C33 7280   1.568   1.848   5.749 -0.2926  0.4051  0.6802
   80SOPE   H3X 7281   1.676   1.875   5.745  0.5710 -2.8019 -0.8575
   80SOPE   H3Y 7282   1.509   1.940   5.767  0.4436  0.4661  3.2406
   80SOPE   C34 7283   1.535   1.786   5.618  0.2674 -0.1058 -0.5249
   80SOPE   H4X 7284   1.433   1.742   5.626 -0.4532  1.4150 -1.0018
   80SOPE   H4Y 7285   1.608   1.704   5.605  0.5740  0.0174  0.3540
   80SOPE   C35 7286   1.553   1.893   5.503 -0.0355 -0.3937 -1.2685
   80SOPE   H5X 7287   1.635   1.962   5.532 -0.9928  0.7571 -1.2088
   80SOPE   H5Y 7288   1.455   1.946   5.509 -1.6258 -3.2155  0.0491
   80SOPE   C36 7289   1.580   1.830   5.370 -0.1053  0.3597  0.3545
   80SOPE   H6X 7290   1.684   1.793   5.363 -0.4053 -0.3821 -0.3513
   80SOPE   H6Y 7291   1.564   1.903   5.288  1.1359 -1.7455 -1.9017
   80SOPE   C37 7292   1.475   1.724   5.335  0.2642 -0.0040 -0.4564
   80SOPE   H7X 7293   1.380   1.771   5.369  1.7363  1.2897  2.1581
   80SOPE   H7Y 7294   1.490   1.639   5.405 -0.9787 -0.5264 -0.7942
   80SOPE   C38 7295   1.466   1.675   5.190  0.1808 -0.6473 -0.2411
   80SOPE   H8X 7296   1.392   1.593   5.194 -1.1022  0.3619 -1.9086
   80SOPE   H8Y 7297   1.565   1.633   5.161  0.5482  0.4613 -0.6824
   80SOPE   C39 7298   1.404   1.775   5.084 -0.0967 -0.2411 -0.4216
   80SOPE   H9X 7299   1.477   1.858   5.070 -0.5330  0.4240  1.0288
   80SOPE   H9Y 7300   1.306   1.825   5.103  0.8615  2.7430 -2.5033
   80SOPE  C310 7301   1.396   1.722   4.946  0.5579  0.4239 -1.0544
   80SOPE  H10X 7302   1.318   1.643   4.950  1.8381 -0.8632 -0.4255
   80SOPE  H10Y 7303   1.492   1.674   4.916  0.7883  0.1322  0.0976
   80SOPE  C311 7304   1.366   1.821   4.835 -0.0327  0.3429 -0.1239
   80SOPE  H11X 7305   1.436   1.906   4.848 -1.3268  1.3265  0.6843
   80SOPE  H11Y 7306   1.260   1.855   4.844  0.3162  1.6256 -0.6543
   80SOPE  C312 7307   1.385   1.762   4.688 -0.1869  0.0055  0.3687
   80SOPE  H12X 7308   1.326   1.669   4.680  0.7911 -0.8314  2.1954
   80SOPE  H12Y 7309   1.491   1.735   4.668 -0.5882  0.0024 -2.0415
   80SOPE  C313 7310   1.339   1.868   4.588  0.3891 -0.6440 -0.5125
   80SOPE  H13X 7311   1.387   1.967   4.598 -0.2988 -0.2605 -0.9780
   80SOPE  H13Y 7312   1.235   1.889   4.621  0.2414 -0.4042 -1.1208
   80SOPE  C314 7313   1.346   1.824   4.442  0.0734  0.2313  0.0453
   80SOPE  H14X 7314   1.287   1.894   4.379  1.1354  1.5998  0.5212
   80SOPE  H14Y 7315   1.297   1.725   4.440  0.1413  0.2004 -0.3145
   80SOPE  C315 7316   1.496   1.832   4.389  0.4682  0.0336  1.0660
   80SOPE  H15X 7317   1.559   1.756   4.439  0.4237 -2.9832 -3.0014
   80SOPE  H15Y 7318   1.522   1.938   4.409 -1.7254  0.7713  0.2832
   80SOPE  C316 7319   1.498   1.813   4.234  0.0095  0.3785 -0.1515
   80SOPE  H16X 7320   1.469   1.902   4.175  0.6328  1.0409  0.5088
   80SOPE  H16Y 7321   1.425   1.731   4.219  0.4747 -0.7908  3.0520
   80SOPE  C317 7322   1.639   1.766   4.197  0.5808  0.0546 -0.7227
   80SOPE  H17X 7323   1.656   1.662   4.232  0.5239  0.8638  1.9400
   80SOPE  H17Y 7324   1.704   1.840   4.248 -1.0568  1.2163 -0.2016
   80SOPE  C318 7325   1.655   1.773   4.045 -0.0398 -0.2608 -0.4662
   80SOPE  H18X 7326   1.761   1.763   4.012  0.2997  0.6880  0.2771
   80SOPE  H18Y 7327   1.617   1.870   4.006  0.3482 -0.3232 -1.0128
   80SOPE  H18Z 7328   1.603   1.688   3.997  1.1784 -1.0242 -0.4941
   81SOPE     N 7329   4.286   5.913   6.857  0.2033  0.1742 -0.2020
   81SOPE   HN1 7330   4.244   5.817   6.853 -1.0306  0.6745  0.2008
   81SOPE   HN2 7331   4.216   5.984   6.887 -0.6262 -0.4246 -0.6779
   81SOPE   HN3 7332   4.317   5.933   6.760 -2.5001  1.1573 -0.9421
   81SOPE   C12 7333   4.394   5.897   6.961  0.0813  0.3571  0.0482
   81SOPE  H12A 7334   4.453   5.812   6.922  0.2716  0.8201 -0.6862
   81SOPE  H12B 7335   4.340   5.863   7.052  0.2311  1.4432  0.5678
   81SOPE   C11 7336   4.485   6.021   6.984 -0.3322  0.5008 -0.0544
   81SOPE  H11A 7337   4.569   5.990   7.050 -0.1715  0.3251 -0.3380
   81SOPE  H11B 7338   4.423   6.099   7.033  0.3289  0.3221  1.1057
   81SOPE     P 7339   4.676   6.017   6.798  0.1978 -0.1789 -0.2756
   81SOPE   O13 7340   4.699   5.875   6.841 -0.1247 -0.6375 -0.3737
   81SOPE   O14 7341   4.787   6.112   6.821  0.1975  0.4526 -0.3830
   81SOPE   O12 7342   4.539   6.076   6.860 -0.5060  0.4565 -0.3823
   81SOPE   O11 7343   4.651   6.013   6.638 -1.2567 -0.0787 -0.4460
   81SOPE    C1 7344   4.559   6.112   6.593  0.0028  0.1216  0.4240
   81SOPE    HA 7345   4.578   6.213   6.638  1.7205 -0.5346  1.2655
   81SOPE    HB 7346   4.454   6.079   6.608  0.2462 -0.0254  2.0526
   81SOPE    C2 7347   4.577   6.136   6.436  0.2974  0.5364 -0.9635
   81SOPE    HS 7348   4.529   6.046   6.392  1.1746 -0.0783 -0.6896
   81SOPE   O21 7349   4.711   6.137   6.404 -1.0119 -0.4718 -0.2054
   81SOPE   C21 7350   4.740   6.110   6.277  0.8328 -0.0736 -0.6320
   81SOPE   O22 7351   4.658   6.077   6.190  0.1903 -0.0190  0.4521
   81SOPE   C22 7352   4.892   6.096   6.259  0.8317  0.5345  1.1286
   81SOPE   H2R 7353   4.929   5.996   6.287 -1.1036 -1.8259 -3.5567
   81SOPE   H2S 7354   4.934   6.179   6.320 -3.7830  3.7544  0.4981
   81SOPE    C3 7355   4.505   6.259   6.396 -0.7782 -0.8178  0.3224
   81SOPE    HX 7356   4.560   6.340   6.450  1.0489 -0.1594 -2.2963
   81SOPE    HY 7357   4.401   6.249   6.434 -0.5412 -0.3192  1.1270
   81SOPE   O31 7358   4.510   6.287   6.256  0.3638 -0.0340 -0.4428
   81SOPE   C31 7359   4.406   6.251   6.194  0.1199  0.3578 -0.1686
   81SOPE   O32 7360   4.300   6.222   6.239 -0.0269  0.1709 -0.3663
   81SOPE   C32 7361   4.432   6.251   6.049  0.3733 -0.1332 -0.1292
   81SOPE   H2X 7362   4.539   6.240   6.020  0.7572 -1.4876  1.5979
   81SOPE   H2Y 7363   4.397   6.351   6.017 -0.7491  0.0164  1.4343
   81SOPE   C23 7364   4.921   6.108   6.110  0.2548 -0.2627  0.1844
   81SOPE   H3R 7365   4.865   6.029   6.055 -0.3981  0.0437  0.4030
   81SOPE   H3S 7366   5.026   6.071   6.106 -0.4832 -2.4325 -1.0678
   81SOPE   C24 7367   4.920   6.242   6.041  0.4127  0.4944  0.1201
   81SOPE   H4R 7368   4.820   6.290   6.039  0.6081  0.8891 -0.5049
   81SOPE   H4S 7369   4.978   6.309   6.109  0.1056  1.3054 -0.4024
   81SOPE   C25 7370   4.978   6.232   5.899  0.8376 -0.2931 -0.4768
   81SOPE   H5R 7371   4.984   6.338   5.865 -2.0215  1.0005  2.4958
   81SOPE   H5S 7372   5.080   6.190   5.908  1.9203  2.3398  0.4065
   81SOPE   C26 7373   4.906   6.148   5.797  0.2462  0.1550  0.3070
   81SOPE   H6R 7374   4.889   6.046   5.837 -1.0669  0.2859  0.1220
   81SOPE   H6S 7375   4.804   6.190   5.793  0.6237  1.1043  0.3775
   81SOPE   C27 7376   4.986   6.135   5.660  0.4316 -1.1187 -0.6880
   81SOPE   H7R 7377   4.995   6.238   5.622 -2.0422  0.1525  1.7880
   81SOPE   H7S 7378   5.093   6.113   5.680  1.0889  1.7837 -0.5664
   81SOPE   C28 7379   4.916   6.057   5.547  0.4467  0.3104 -0.7665
   81SOPE   H8R 7380   4.986   6.020   5.469  1.1589  0.5921 -0.2699
   81SOPE   H8S 7381   4.855   5.976   5.593 -1.4371  1.7594 -0.5607
   81SOPE   C29 7382   4.814   6.139   5.475 -0.5855 -0.2809 -0.6535
   81SOPE   H91 7383   4.755   6.211   5.534  0.4556  0.4166 -0.4470
   81SOPE  C210 7384   4.806   6.146   5.338 -0.3634 -0.1445  0.4955
   81SOPE  H101 7385   4.729   6.215   5.301 -0.4277 -1.0118 -1.0790
   81SOPE  C211 7386   4.882   6.061   5.236 -0.1207 -0.7691  0.4673
   81SOPE  H11R 7387   4.853   5.954   5.245 -2.8763 -0.3640 -2.0620
   81SOPE  H11S 7388   4.991   6.068   5.257  0.0329  2.0183 -0.8642
   81SOPE  C212 7389   4.874   6.103   5.089  0.0360 -0.0330  0.4579
   81SOPE  H12R 7390   4.927   6.016   5.044  0.8236 -0.0931  1.4688
   81SOPE  H12S 7391   4.922   6.200   5.065  2.6958 -1.2544  0.4259
   81SOPE  C213 7392   4.732   6.106   5.036  1.2230 -0.0328 -0.6563
   81SOPE  H13R 7393   4.659   6.153   5.105 -1.3201 -1.7706 -2.0075
   81SOPE  H13S 7394   4.694   6.002   5.026  1.1877  0.0271 -1.1789
   81SOPE  C214 7395   4.717   6.179   4.905  0.4591 -0.0076  0.4086
   81SOPE  H14R 7396   4.771   6.133   4.820  0.4066 -0.3411  0.5546
   81SOPE  H14S 7397   4.749   6.285   4.915 -1.4798  0.8991 -1.9851
   81SOPE  C215 7398   4.583   6.169   4.835  0.0599 -0.4348 -0.4823
   81SOPE  H15R 7399   4.518   6.210   4.915 -1.9241  0.6430 -2.5324
   81SOPE  H15S 7400   4.550   6.066   4.811 -3.8793  0.6833 -0.5518
   81SOPE  C216 7401   4.561   6.247   4.704 -0.9164 -0.1413 -0.0229
   81SOPE  H16R 7402   4.529   6.349   4.735 -3.1559 -1.0374  0.8281
   81SOPE  H16S 7403   4.457   6.228   4.671 -0.8045 -1.5214  0.3232
   81SOPE  C217 7404   4.656   6.246   4.586  0.0065  0.1788 -0.0897
   81SOPE  H17R 7405   4.668   6.144   4.542  1.5618 -0.1015  0.9021
   81SOPE  H17S 7406   4.756   6.284   4.618  0.0250 -0.0007  0.0697
   81SOPE  C218 7407   4.595   6.335   4.474 -0.1302  0.1257  0.0636
   81SOPE  H18R 7408   4.660   6.326   4.385  1.0957 -0.3481  0.9843
   81SOPE  H18S 7409   4.577   6.440   4.506 -0.4815  0.6551 -1.7482
   81SOPE  H18T 7410   4.495   6.290   4.452 -0.6199  1.2294 -0.0444
   81SOPE   C33 7411   4.358   6.140   5.974 -0.5797 -0.7693  0.4865
   81SOPE   H3X 7412   4.248   6.153   5.980 -0.5438 -0.2673  0.0924
   81SOPE   H3Y 7413   4.390   6.039   6.009  0.4053 -0.1806  1.3334
   81SOPE   C34 7414   4.389   6.162   5.824 -0.5989  0.3911 -0.4784
   81SOPE   H4X 7415   4.499   6.146   5.816 -0.3875  1.9790 -1.0010
   81SOPE   H4Y 7416   4.372   6.269   5.800 -1.1552  1.1563  2.8455
   81SOPE   C35 7417   4.296   6.078   5.739 -0.3742 -0.6672 -0.3032
   81SOPE   H5X 7418   4.192   6.109   5.762  0.5270  1.1585  1.5605
   81SOPE   H5Y 7419   4.297   5.979   5.790 -0.1933 -0.7342 -0.4357
   81SOPE   C36 7420   4.309   6.095   5.584 -0.7268  0.0059  0.3065
   81SOPE   H6X 7421   4.293   6.203   5.562 -0.0715  0.1132  0.3115
   81SOPE   H6Y 7422   4.230   6.035   5.535 -0.9978  0.3521  0.3175
   81SOPE   C37 7423   4.440   6.047   5.523  0.0313  0.4084  0.0794
   81SOPE   H7X 7424   4.446   5.938   5.540 -1.4995  0.5908  2.1600
   81SOPE   H7Y 7425   4.519   6.082   5.593 -0.5580 -2.0744  2.1218
   81SOPE   C38 7426   4.467   6.077   5.375 -1.0941 -0.4031 -0.1883
   81SOPE   H8X 7427   4.571   6.047   5.349  0.2518  3.4363  0.2049
   81SOPE   H8Y 7428   4.458   6.183   5.345  1.9316  0.3181  1.0895
   81SOPE   C39 7429   4.382   5.991   5.287 -0.0833 -0.1181 -0.5668
   81SOPE   H9X 7430   4.276   6.015   5.310 -0.0454 -0.5008  0.0130
   81SOPE   H9Y 7431   4.392   5.882   5.304 -1.6533  0.1287  2.5919
   81SOPE  C310 7432   4.395   6.032   5.144  0.9903 -0.0483  0.3416
   81SOPE  H10X 7433   4.499   6.013   5.111  1.1211  0.2936  0.5541
   81SOPE  H10Y 7434   4.377   6.140   5.127 -0.3533 -0.3237 -0.1798
   81SOPE  C311 7435   4.308   5.968   5.033  0.2753 -0.0106  0.5767
   81SOPE  H11X 7436   4.291   5.861   5.060  0.8613 -0.5280 -1.0083
   81SOPE  H11Y 7437   4.350   5.964   4.930 -1.5447  0.6308 -0.2327
   81SOPE  C312 7438   4.173   6.049   5.019  0.3352  0.0791 -0.1875
   81SOPE  H12X 7439   4.186   6.153   4.980  1.9479  0.1517  0.4513
   81SOPE  H12Y 7440   4.145   6.066   5.125  1.4812 -2.0229  0.5014
   81SOPE  C313 7441   4.060   5.976   4.935 -0.1655 -0.5812  0.1808
   81SOPE  H13X 7442   3.964   6.030   4.952  1.5761  2.6161  0.5517
   81SOPE  H13Y 7443   4.041   5.874   4.974 -1.1777 -0.7525 -0.7080
   81SOPE  C314 7444   4.082   5.975   4.788  0.1267 -0.0555 -0.3292
   81SOPE  H14X 7445   4.159   5.896   4.773 -1.1502 -1.3745 -0.2259
   81SOPE  H14Y 7446   4.114   6.072   4.743 -0.4934  0.2637 -0.0848
   81SOPE  C315 7447   3.964   5.916   4.709  0.0463  0.8608  0.0862
   81SOPE  H15X 7448   3.878   5.985   4.713 -0.2660  0.4367  1.1709
   81SOPE  H15Y 7449   3.933   5.821   4.759  2.1159  1.2623  2.3583
   81SOPE  C316 7450   3.988   5.879   4.559 -0.4124  0.1800 -0.0711
   81SOPE  H16X 7451   4.075   5.809   4.563  1.9998  2.9759 -0.4073
   81SOPE  H16Y 7452   4.023   5.963   4.495  0.7750  0.5057  0.9637
   81SOPE  C317 7453   3.880   5.808   4.484  0.2720 -0.4437 -0.3372
   81SOPE  H17X 7454   3.802   5.883   4.458  1.6899  1.2084  0.0037
   81SOPE  H17Y 7455   3.834   5.740   4.559  1.8534  1.0818  2.1678
   81SOPE  C318 7456   3.920   5.733   4.353 -0.1308  0.1263  0.2453
   81SOPE  H18X 7457   3.830   5.700   4.296 -1.1319  0.0910  1.7813
   81SOPE  H18Y 7458   3.980   5.644   4.379  1.3240  0.5025 -1.5510
   81SOPE  H18Z 7459   3.980   5.797   4.284  2.3823 -3.2196 -0.9226
   82SOPE     N 7460   2.642   4.902   5.861  0.0259 -0.1992  0.0178
   82SOPE   HN1 7461   2.581   4.863   5.937  1.2256  0.4707  1.3593
   82SOPE   HN2 7462   2.669   4.834   5.787 -0.7180 -2.4405  1.6785
   82SOPE   HN3 7463   2.728   4.936   5.907  0.5788 -0.4463 -0.8153
   82SOPE   C12 7464   2.572   5.015   5.813  0.1458 -0.9179 -0.0428
   82SOPE  H12A 7465   2.486   5.039   5.879  1.3507 -0.0654  1.2988
   82SOPE  H12B 7466   2.531   4.986   5.714  0.1619  1.9741 -0.9901
   82SOPE   C11 7467   2.665   5.138   5.780 -0.3882 -0.0210 -0.2430
   82SOPE  H11A 7468   2.613   5.206   5.710  1.5637  0.0802 -1.6755
   82SOPE  H11B 7469   2.745   5.099   5.714  1.4788 -0.6436  2.2259
   82SOPE     P 7470   2.639   5.315   5.972 -0.0023  0.2969  0.0095
   82SOPE   O13 7471   2.734   5.368   6.071 -0.0336 -0.2566  0.0938
   82SOPE   O14 7472   2.519   5.248   6.022  0.3001  0.2494  0.3346
   82SOPE   O12 7473   2.720   5.206   5.893 -0.7214 -0.0587  0.0131
   82SOPE   O11 7474   2.590   5.425   5.861 -0.2553 -0.1079 -0.2361
   82SOPE    C1 7475   2.681   5.471   5.758  0.2981 -0.0760 -0.3528
   82SOPE    HA 7476   2.623   5.479   5.663  0.5072  2.6380 -0.3434
   82SOPE    HB 7477   2.765   5.402   5.739 -1.6433 -2.2770 -1.4942
   82SOPE    C2 7478   2.727   5.616   5.800 -0.4487 -0.9201 -0.1146
   82SOPE    HS 7479   2.718   5.627   5.910 -4.8011  1.4885 -0.4865
   82SOPE   O21 7480   2.648   5.728   5.749 -0.5442  0.2929 -0.2658
   82SOPE   C21 7481   2.540   5.757   5.813 -0.2535 -0.0907  0.6156
   82SOPE   O22 7482   2.492   5.689   5.904 -0.1900 -0.7285 -0.4683
   82SOPE   C22 7483   2.476   5.877   5.753  0.3405 -0.1230 -0.3789
   82SOPE   H2R 7484   2.538   5.918   5.671 -0.7050 -0.0137 -1.1445
   82SOPE   H2S 7485   2.470   5.961   5.825  0.5423  0.7584 -1.3590
   82SOPE    C3 7486   2.876   5.636   5.768  0.1742  0.1071 -0.2367
   82SOPE    HX 7487   2.932   5.559   5.825  1.6037  1.7632  0.7054
   82SOPE    HY 7488   2.904   5.731   5.820  0.0625 -0.6059  1.1894
   82SOPE   O31 7489   2.895   5.634   5.624 -0.0443  0.0953 -0.1784
   82SOPE   C31 7490   2.890   5.748   5.570  0.0990 -0.2006  0.1638
   82SOPE   O32 7491   2.891   5.854   5.628  0.3662 -0.3385  0.2799
   82SOPE   C32 7492   2.898   5.737   5.414  0.6730  0.4456 -0.5435
   82SOPE   H2X 7493   2.807   5.685   5.376  0.8278 -0.9295  0.8694
   82SOPE   H2Y 7494   2.983   5.676   5.377 -1.0982 -1.8371 -1.1161
   82SOPE   C23 7495   2.337   5.831   5.703 -0.0063 -0.0851 -0.1879
   82SOPE   H3R 7496   2.298   5.919   5.649 -1.4776 -1.2871 -1.1541
   82SOPE   H3S 7497   2.267   5.815   5.787  2.4910 -2.1026  1.6570
   82SOPE   C24 7498   2.338   5.704   5.620  0.3602  0.2454  0.2679
   82SOPE   H4R 7499   2.371   5.624   5.690  1.9315 -0.5213 -1.2725
   82SOPE   H4S 7500   2.237   5.668   5.592  0.3858 -0.9364  1.5602
   82SOPE   C25 7501   2.432   5.705   5.495 -0.9365 -0.3539  0.5495
   82SOPE   H5R 7502   2.538   5.710   5.527 -0.6961  0.1758 -0.2937
   82SOPE   H5S 7503   2.419   5.607   5.443 -2.7495 -0.1106  0.4776
   82SOPE   C26 7504   2.399   5.808   5.381  0.1555 -0.3484  0.1270
   82SOPE   H6R 7505   2.403   5.914   5.413  0.6748 -0.7113  1.3644
   82SOPE   H6S 7506   2.478   5.812   5.304 -1.2156 -1.1858 -1.3910
   82SOPE   C27 7507   2.269   5.779   5.308 -0.0809 -0.5023 -0.1984
   82SOPE   H7R 7508   2.280   5.681   5.257  0.0556 -0.3261 -0.5080
   82SOPE   H7S 7509   2.188   5.780   5.384  1.2305  1.4243  1.2692
   82SOPE   C28 7510   2.224   5.888   5.207  0.7026  0.0706  0.5244
   82SOPE   H8R 7511   2.184   5.970   5.270 -2.8208 -0.0624 -1.3005
   82SOPE   H8S 7512   2.310   5.926   5.150  0.4888  1.5916  1.1736
   82SOPE   C29 7513   2.105   5.838   5.116 -0.5510  0.8179  0.7622
   82SOPE   H91 7514   2.022   5.796   5.174  0.2543  0.5851  1.7851
   82SOPE  C210 7515   2.112   5.819   4.982  0.1054  0.1317 -0.3001
   82SOPE  H101 7516   2.014   5.795   4.937 -1.5438 -1.0176  3.5222
   82SOPE  C211 7517   2.224   5.862   4.893 -0.9641  0.7527 -0.4248
   82SOPE  H11R 7518   2.248   5.796   4.807  1.7747  3.3366 -1.8382
   82SOPE  H11S 7519   2.317   5.853   4.954 -2.1242 -2.2397  1.1155
   82SOPE  C212 7520   2.203   6.007   4.856 -0.1064  0.4689 -0.3978
   82SOPE  H12R 7521   2.196   6.078   4.941 -0.5887  0.5398 -0.4919
   82SOPE  H12S 7522   2.109   6.021   4.798 -1.6890  1.0205  2.1251
   82SOPE  C213 7523   2.327   6.050   4.782 -0.0063 -0.1334 -0.2655
   82SOPE  H13R 7524   2.333   5.986   4.692  0.7340  0.6588 -0.8065
   82SOPE  H13S 7525   2.414   6.044   4.851 -1.7104 -3.1325  1.8558
   82SOPE  C214 7526   2.311   6.203   4.725  0.0465  0.7896  0.4293
   82SOPE  H14R 7527   2.297   6.269   4.813  1.2179  0.4122  0.9174
   82SOPE  H14S 7528   2.227   6.222   4.655  0.9790 -0.4850 -1.0940
   82SOPE  C215 7529   2.443   6.255   4.668  0.3768 -0.1548  0.5159
   82SOPE  H15R 7530   2.512   6.249   4.755 -0.0704  1.1492  0.9941
   82SOPE  H15S 7531   2.443   6.366   4.659  1.0464 -0.0822  1.3142
   82SOPE  C216 7532   2.511   6.181   4.549  0.0064 -0.3822 -0.8127
   82SOPE  H16R 7533   2.443   6.191   4.462 -0.3480  1.7043 -0.3548
   82SOPE  H16S 7534   2.531   6.076   4.580  1.0366 -0.3053 -1.1733
   82SOPE  C217 7535   2.635   6.244   4.491  0.4855  0.4390  0.5525
   82SOPE  H17R 7536   2.715   6.244   4.569  1.1094 -0.0212 -0.0680
   82SOPE  H17S 7537   2.615   6.350   4.467  0.7256  0.2832 -0.3802
   82SOPE  C218 7538   2.685   6.172   4.365 -0.3532  0.4522  0.4468
   82SOPE  H18R 7539   2.787   6.211   4.347  0.0353 -1.1419 -1.0040
   82SOPE  H18S 7540   2.612   6.184   4.282  0.6289 -3.8527 -1.3073
   82SOPE  H18T 7541   2.694   6.063   4.387 -0.6543  0.4171  0.3992
   82SOPE   C33 7542   2.899   5.876   5.350 -0.1657  0.1003  0.1844
   82SOPE   H3X 7543   2.956   5.947   5.414 -1.6267  1.2329  0.2968
   82SOPE   H3Y 7544   2.797   5.920   5.341  1.5448  4.2745 -1.4178
   82SOPE   C34 7545   2.956   5.886   5.213  0.2482  0.7636  0.0018
   82SOPE   H4X 7546   2.894   5.814   5.156  1.0291  0.7348 -0.8179
   82SOPE   H4Y 7547   3.063   5.859   5.210  0.7280  2.4351  0.7710
   82SOPE   C35 7548   2.946   6.038   5.166  0.9148  0.0241  0.0752
   82SOPE   H5X 7549   2.975   6.102   5.251  1.6961  0.1391 -0.2636
   82SOPE   H5Y 7550   2.840   6.057   5.140  0.4162 -2.2512  0.2165
   82SOPE   C36 7551   3.019   6.067   5.029  0.1751  0.1908  0.2764
   82SOPE   H6X 7552   3.018   5.967   4.980 -1.5179  1.7374 -3.2429
   82SOPE   H6Y 7553   3.126   6.096   5.036  0.3774 -0.3649 -0.3573
   82SOPE   C37 7554   2.949   6.150   4.925  0.0020 -0.8218 -0.3391
   82SOPE   H7X 7555   2.948   6.247   4.979 -0.6353 -1.6276  1.1711
   82SOPE   H7Y 7556   2.846   6.111   4.908  0.3286 -1.2419 -1.4762
   82SOPE   C38 7557   3.013   6.143   4.784 -0.1664 -0.6555  0.0461
   82SOPE   H8X 7558   2.976   6.048   4.739 -0.4356 -0.4395 -0.1914
   82SOPE   H8Y 7559   3.123   6.128   4.773 -0.0811  0.0594 -0.1089
   82SOPE   C39 7560   2.982   6.268   4.709  0.4989 -0.4249 -0.7486
   82SOPE   H9X 7561   3.032   6.345   4.770 -1.3946 -1.0913  1.8288
   82SOPE   H9Y 7562   2.877   6.303   4.707  0.2100  0.1495  5.4632
   82SOPE  C310 7563   3.007   6.270   4.558  0.0304  0.3439 -0.1530
   82SOPE  H10X 7564   2.947   6.193   4.504  1.3221 -1.3658  0.7293
   82SOPE  H10Y 7565   3.109   6.232   4.536  0.8231  1.8054  0.8516
   82SOPE  C311 7566   2.996   6.403   4.486  0.4876  0.0050  0.8095
   82SOPE  H11X 7567   3.040   6.486   4.546  1.2144 -0.9416  1.6164
   82SOPE  H11Y 7568   2.888   6.422   4.468  0.8540 -0.8165 -3.3458
   82SOPE  C312 7569   3.059   6.416   4.343 -0.2892  0.3526 -0.5421
   82SOPE  H12X 7570   3.017   6.323   4.299 -0.6915  1.6059 -3.0209
   82SOPE  H12Y 7571   3.168   6.398   4.348 -0.1102  1.3318 -0.5881
   82SOPE  C313 7572   3.009   6.545   4.276  0.4624 -0.7555  0.3171
   82SOPE  H13X 7573   3.060   6.616   4.344 -0.8032 -0.3715  0.8985
   82SOPE  H13Y 7574   2.899   6.552   4.290  0.4621  2.1133 -0.4958
   82SOPE  C314 7575   3.051   6.538   4.128  0.0180 -0.6765  0.3730
   82SOPE  H14X 7576   3.152   6.499   4.103  0.2939  0.9460 -1.2425
   82SOPE  H14Y 7577   3.039   6.642   4.092  0.0296 -0.1021  1.9204
   82SOPE  C315 7578   2.947   6.462   4.048 -0.1266 -0.3169  0.7748
   82SOPE  H15X 7579   2.843   6.485   4.081 -1.6376 -1.3485 -2.6931
   82SOPE  H15Y 7580   2.966   6.357   4.079 -0.0920 -0.5422  0.0296
   82SOPE  C316 7581   2.968   6.487   3.897  0.7058  0.2872 -0.1799
   82SOPE  H16X 7582   3.075   6.463   3.877  0.8459  0.8848 -0.1777
   82SOPE  H16Y 7583   2.945   6.589   3.859  0.1490 -0.6685 -2.6433
   82SOPE  C317 7584   2.879   6.382   3.821 -0.2090 -0.1913 -0.3897
   82SOPE  H17X 7585   2.774   6.405   3.849  0.3786  2.7764 -0.3325
   82SOPE  H17Y 7586   2.919   6.290   3.869  0.4553  2.4128  4.6820
   82SOPE  C318 7587   2.902   6.385   3.670 -0.2105 -0.6065 -0.4448
   82SOPE  H18X 7588   2.856   6.481   3.639  0.4070  0.2333  1.0917
   82SOPE  H18Y 7589   2.838   6.307   3.623 -0.5293 -0.4085 -0.3411
   82SOPE  H18Z 7590   3.006   6.397   3.634  0.1000  1.5795  1.0118
   83SOPE     N 7591   6.708   1.843   1.913  0.5254  0.6928  0.3161
   83SOPE   HN1 7592   6.616   1.814   1.952 -1.1311 -0.2987 -3.8134
   83SOPE   HN2 7593   6.678   1.912   1.840  1.3014  1.5363  0.7779
   83SOPE   HN3 7594   6.742   1.760   1.859 -2.8167  0.0007 -0.9756
   83SOPE   C12 7595   6.812   1.879   2.013 -0.1030  0.1438 -0.6645
   83SOPE  H12A 7596   6.798   1.809   2.098 -0.2841 -0.5629 -1.2663
   83SOPE  H12B 7597   6.793   1.983   2.047 -0.8589 -0.7676  1.9683
   83SOPE   C11 7598   6.948   1.861   1.947  0.2172 -0.2185  0.3510
   83SOPE  H11A 7599   7.027   1.867   2.026  0.7086  0.8655 -0.2047
   83SOPE  H11B 7600   6.961   1.936   1.866  1.0864 -2.6894 -1.9491
   83SOPE     P 7601   7.101   1.707   1.811 -0.0690 -0.3454 -0.0385
   83SOPE   O13 7602   7.161   1.831   1.761 -0.0514  0.3676 -0.0921
   83SOPE   O14 7603   7.072   1.609   1.707 -0.1831  0.2672  0.3151
   83SOPE   O12 7604   6.958   1.741   1.880 -0.3541  0.6002  0.6804
   83SOPE   O11 7605   7.180   1.652   1.928 -0.1691  0.5003 -0.2916
   83SOPE    C1 7606   7.154   1.511   1.954  0.0894  0.3928  0.1100
   83SOPE    HA 7607   7.244   1.471   2.006 -0.2887 -1.0544 -0.3010
   83SOPE    HB 7608   7.135   1.447   1.865 -1.6650 -0.0256  0.7642
   83SOPE    C2 7609   7.026   1.486   2.041 -1.3423 -0.0300  0.0654
   83SOPE    HS 7610   6.935   1.515   1.985 -1.4199 -0.9772 -0.3096
   83SOPE   O21 7611   7.037   1.567   2.157  0.3881  0.2113 -0.2909
   83SOPE   C21 7612   6.924   1.587   2.218 -0.6826 -0.0832  0.2249
   83SOPE   O22 7613   6.812   1.550   2.180  0.0304  0.3219  0.1865
   83SOPE   C22 7614   6.955   1.651   2.351  0.4830  0.1408  0.2375
   83SOPE   H2R 7615   7.053   1.702   2.361  0.0982  0.8048  0.7233
   83SOPE   H2S 7616   6.943   1.565   2.420 -1.3480 -0.9307 -1.3136
   83SOPE    C3 7617   7.002   1.332   2.066 -0.3994  0.5429  0.4616
   83SOPE    HX 7618   7.016   1.277   1.970 -0.1950 -0.0789  0.8394
   83SOPE    HY 7619   6.895   1.320   2.093 -1.1577  2.3233 -1.4879
   83SOPE   O31 7620   7.098   1.281   2.162  0.1095  0.3585  0.1696
   83SOPE   C31 7621   7.059   1.274   2.281 -0.1417 -0.0872  0.1690
   83SOPE   O32 7622   6.946   1.298   2.323 -0.3293  0.8669  0.1403
   83SOPE   C32 7623   7.176   1.228   2.368  0.1642 -0.4319  0.8816
   83SOPE   H2X 7624   7.153   1.262   2.471 -2.0737 -1.4118  0.7594
   83SOPE   H2Y 7625   7.272   1.270   2.332  0.1751 -1.9031 -0.9574
   83SOPE   C23 7626   6.849   1.753   2.395 -0.0545  0.0858 -0.3706
   83SOPE   H3R 7627   6.746   1.712   2.382 -0.7944  0.5724  3.0073
   83SOPE   H3S 7628   6.865   1.845   2.336 -1.6643  0.9094  0.4023
   83SOPE   C24 7629   6.867   1.801   2.541 -0.2071  0.4601 -0.3351
   83SOPE   H4R 7630   6.816   1.723   2.601  0.4975  0.2979  0.0649
   83SOPE   H4S 7631   6.975   1.799   2.567 -0.7088 -0.2764  1.8725
   83SOPE   C25 7632   6.818   1.942   2.575 -0.3562 -0.4429  0.7859
   83SOPE   H5R 7633   6.895   2.015   2.543 -1.0775 -0.0378 -0.0599
   83SOPE   H5S 7634   6.722   1.973   2.528  0.4730  0.1820 -0.5428
   83SOPE   C26 7635   6.793   1.964   2.723  0.1700 -0.1769  0.0563
   83SOPE   H6R 7636   6.752   2.067   2.727 -1.4018 -0.7664 -0.2821
   83SOPE   H6S 7637   6.723   1.889   2.765  0.6886 -0.7805 -0.1377
   83SOPE   C27 7638   6.928   1.967   2.807 -0.2938  0.0106 -0.3045
   83SOPE   H7R 7639   6.987   1.879   2.775  0.8532  0.6542 -0.0011
   83SOPE   H7S 7640   6.986   2.055   2.776 -2.0365  2.1032  1.9588
   83SOPE   C28 7641   6.906   1.961   2.959 -0.2288 -0.4533  0.3223
   83SOPE   H8R 7642   7.005   1.963   3.009  1.1658  0.7616 -2.2897
   83SOPE   H8S 7643   6.865   2.060   2.989  0.7288  0.1395 -0.2764
   83SOPE   C29 7644   6.824   1.850   3.013  0.6445  0.1798  0.5127
   83SOPE   H91 7645   6.743   1.821   2.945  1.5892  0.9517 -1.0189
   83SOPE  C210 7646   6.848   1.780   3.117  0.0112  0.9969  0.1597
   83SOPE  H101 7647   6.771   1.704   3.138  0.6650  0.6304  1.3263
   83SOPE  C211 7648   6.959   1.798   3.217 -0.5561 -0.1633  0.0548
   83SOPE  H11R 7649   7.047   1.852   3.175 -0.2677  0.9675  2.0246
   83SOPE  H11S 7650   6.992   1.695   3.243 -0.0343 -0.7624 -2.6776
   83SOPE  C212 7651   6.911   1.884   3.342 -0.3452  0.0226 -0.0104
   83SOPE  H12R 7652   6.822   1.833   3.385  0.2700 -0.2933  0.9285
   83SOPE  H12S 7653   6.868   1.983   3.314 -0.7231  0.0750  0.7160
   83SOPE  C213 7654   7.018   1.893   3.445 -0.4070  0.1945  0.4745
   83SOPE  H13R 7655   7.111   1.927   3.396  1.5756 -2.1151  2.3841
   83SOPE  H13S 7656   7.042   1.791   3.483 -1.8087 -0.9287 -1.4309
   83SOPE  C214 7657   6.988   1.988   3.571 -0.1081 -0.0964 -0.8415
   83SOPE  H14R 7658   6.938   1.934   3.654  1.2617  2.2920  1.6673
   83SOPE  H14S 7659   6.924   2.071   3.534 -0.7400  0.3076  1.0787
   83SOPE  C215 7660   7.118   2.050   3.630  0.5110 -0.2289 -0.3838
   83SOPE  H15R 7661   7.180   2.094   3.549 -1.4676  3.4066 -0.1158
   83SOPE  H15S 7662   7.187   1.978   3.680 -0.6300  0.2943  2.0766
   83SOPE  C216 7663   7.084   2.148   3.741  0.7638 -0.1680  0.7465
   83SOPE  H16R 7664   6.988   2.191   3.707  1.1438  0.5386  0.5426
   83SOPE  H16S 7665   7.163   2.226   3.743  0.1577  0.4447  1.1532
   83SOPE  C217 7666   7.051   2.074   3.873  1.7712 -0.0790  0.5664
   83SOPE  H17R 7667   7.133   2.006   3.904  1.6876 -1.5061 -2.0644
   83SOPE  H17S 7668   6.963   2.009   3.851 -1.2257  4.1957 -1.5039
   83SOPE  C218 7669   7.019   2.179   3.980  0.1887 -0.5894 -0.1346
   83SOPE  H18R 7670   7.112   2.238   3.995  1.6899 -3.2101  1.7858
   83SOPE  H18S 7671   6.982   2.138   4.076  2.0246 -1.2723  0.3216
   83SOPE  H18T 7672   6.943   2.252   3.945  1.7785  0.4348 -1.6068
   83SOPE   C33 7673   7.190   1.072   2.374  0.4038  0.0953 -0.3931
   83SOPE   H3X 7674   7.218   1.045   2.270 -1.0263  2.5262 -1.4847
   83SOPE   H3Y 7675   7.088   1.037   2.400  0.1414  0.0566 -1.4234
   83SOPE   C34 7676   7.276   1.023   2.494  0.0560  0.1765 -0.4058
   83SOPE   H4X 7677   7.251   0.920   2.531  0.4311  0.5778  1.0282
   83SOPE   H4Y 7678   7.262   1.091   2.581 -0.2252 -0.8377  0.3644
   83SOPE   C35 7679   7.425   1.022   2.470  0.6577 -0.9583  0.1334
   83SOPE   H5X 7680   7.464   1.116   2.425 -2.7963  0.4974 -0.1515
   83SOPE   H5Y 7681   7.445   0.941   2.397  0.6614 -1.0868  0.2780
   83SOPE   C36 7682   7.498   0.968   2.594  0.0037  0.6726  0.1779
   83SOPE   H6X 7683   7.606   0.977   2.572  0.8346 -0.6860  3.1684
   83SOPE   H6Y 7684   7.479   0.861   2.619  1.2950  0.9911  2.8214
   83SOPE   C37 7685   7.469   1.049   2.727  0.4582 -0.5728 -0.3526
   83SOPE   H7X 7686   7.360   1.047   2.748  0.4848  0.4789 -0.0735
   83SOPE   H7Y 7687   7.484   1.153   2.691 -0.5854 -0.5631 -0.8000
   83SOPE   C38 7688   7.551   0.999   2.846 -1.1633 -0.4714  0.5466
   83SOPE   H8X 7689   7.659   1.010   2.825 -1.4222  1.8710  0.1950
   83SOPE   H8Y 7690   7.539   0.889   2.854  1.4404 -0.7336  1.9312
   83SOPE   C39 7691   7.528   1.075   2.978 -0.3165  0.7400  0.7837
   83SOPE   H9X 7692   7.423   1.060   3.011 -0.8417 -1.5526 -1.5528
   83SOPE   H9Y 7693   7.551   1.181   2.953  0.0299  0.6102  0.5459
   83SOPE  C310 7694   7.635   1.042   3.083 -0.0902  0.1596 -0.8935
   83SOPE  H10X 7695   7.739   1.047   3.042 -0.5825  1.3700 -2.0695
   83SOPE  H10Y 7696   7.624   0.940   3.125  2.6898 -0.5601 -1.6794
   83SOPE  C311 7697   7.630   1.141   3.205  0.3523 -0.2258  0.5781
   83SOPE  H11X 7698   7.524   1.147   3.237 -0.0164 -1.0075 -0.4398
   83SOPE  H11Y 7699   7.663   1.237   3.160 -0.0479 -0.8748 -1.1827
   83SOPE  C312 7700   7.719   1.097   3.323  0.0646 -0.0584 -0.0051
   83SOPE  H12X 7701   7.821   1.077   3.283  0.3153  1.8615 -0.4597
   83SOPE  H12Y 7702   7.677   1.000   3.357  0.0937 -1.0781 -2.6721
   83SOPE  C313 7703   7.721   1.191   3.446  0.3931  0.0142  0.1692
   83SOPE  H13X 7704   7.617   1.199   3.483  0.0173  0.1559 -0.8884
   83SOPE  H13Y 7705   7.776   1.287   3.433  2.1177 -0.7417  1.5220
   83SOPE  C314 7706   7.813   1.129   3.553 -0.4826 -0.8727 -0.1320
   83SOPE  H14X 7707   7.917   1.113   3.517  0.0382  0.7822  0.5709
   83SOPE  H14Y 7708   7.765   1.033   3.582 -2.7864 -0.3672 -1.9783
   83SOPE  C315 7709   7.812   1.222   3.673  0.0779 -0.1263  0.8128
   83SOPE  H15X 7710   7.710   1.255   3.702  0.4052  0.1800  1.6359
   83SOPE  H15Y 7711   7.876   1.312   3.661  0.1511 -0.3705 -0.9492
   83SOPE  C316 7712   7.864   1.138   3.797  0.2956 -0.5935  0.4077
   83SOPE  H16X 7713   7.937   1.064   3.759  0.2219  0.0005 -0.9633
   83SOPE  H16Y 7714   7.776   1.091   3.844  0.8164 -0.8107  1.1887
   83SOPE  C317 7715   7.912   1.233   3.911  1.0339 -0.2138 -0.1751
   83SOPE  H17X 7716   7.915   1.169   4.002 -3.2547 -2.0146 -1.0468
   83SOPE  H17Y 7717   7.827   1.301   3.934 -0.5662 -2.5561  1.2323
   83SOPE  C318 7718   8.041   1.309   3.897  0.2621 -0.2324  0.3692
   83SOPE  H18X 7719   8.124   1.237   3.880  1.2529  0.8648  0.4422
   83SOPE  H18Y 7720   8.067   1.360   3.992  1.8879  0.9247 -0.6371
   83SOPE  H18Z 7721   8.043   1.385   3.816  1.7140  0.2545  0.8308
   84SOPE     N 7722   2.870   6.909   2.202 -0.4480 -0.4902 -0.3890
   84SOPE   HN1 7723   2.957   6.941   2.156  0.0789 -1.2934  0.0298
   84SOPE   HN2 7724   2.846   6.825   2.145 -1.5026 -0.5867  0.1718
   84SOPE   HN3 7725   2.798   6.984   2.199  2.1747  2.2255 -0.2674
   84SOPE   C12 7726   2.890   6.868   2.340 -0.0611 -0.3076 -0.6752
   84SOPE  H12A 7727   2.927   6.956   2.396  0.8129 -0.5076 -0.9158
   84SOPE  H12B 7728   2.972   6.793   2.347 -1.4018 -1.9357 -1.6554
   84SOPE   C11 7729   2.758   6.803   2.395 -0.5215  0.8573  0.0433
   84SOPE  H11A 7730   2.774   6.766   2.499 -1.0351  1.1200  0.2171
   84SOPE  H11B 7731   2.730   6.720   2.327 -0.9150 -1.3168  2.6551
   84SOPE     P 7732   2.517   6.840   2.465  0.1006 -0.0254  0.3886
   84SOPE   O13 7733   2.545   6.769   2.590 -0.4480  0.2454 -0.2294
   84SOPE   O14 7734   2.443   6.758   2.362  0.7192  0.5480  0.5512
   84SOPE   O12 7735   2.651   6.893   2.399  0.5002  0.1119 -0.9304
   84SOPE   O11 7736   2.430   6.962   2.497 -0.5146 -0.5920 -0.8046
   84SOPE    C1 7737   2.481   7.087   2.544 -0.3611  0.0968 -0.3714
   84SOPE    HA 7738   2.495   7.157   2.459  1.8618 -1.3256 -1.2857
   84SOPE    HB 7739   2.578   7.077   2.598 -0.2968  1.3246 -0.2351
   84SOPE    C2 7740   2.393   7.147   2.655 -0.9386 -0.8247  0.2996
   84SOPE    HS 7741   2.286   7.160   2.629 -0.3922 -0.0536 -1.7249
   84SOPE   O21 7742   2.462   7.263   2.706  0.2525  0.0184  1.6590
   84SOPE   C21 7743   2.404   7.378   2.692 -0.2433 -0.2022  0.0847
   84SOPE   O22 7744   2.307   7.402   2.621  0.1824  0.5273  0.2041
   84SOPE   C22 7745   2.492   7.487   2.769  0.2330  0.4865  0.0868
   84SOPE   H2R 7746   2.481   7.574   2.701 -0.1088  0.1396 -0.3087
   84SOPE   H2S 7747   2.592   7.438   2.768 -1.1886 -2.7112 -1.5173
   84SOPE    C3 7748   2.385   7.046   2.774  0.4537  0.5736 -0.2040
   84SOPE    HX 7749   2.480   7.021   2.825  0.7453  1.7100 -0.1614
   84SOPE    HY 7750   2.342   6.956   2.725  0.8886 -0.4046  1.1654
   84SOPE   O31 7751   2.292   7.105   2.872 -0.0833 -0.3043  0.1719
   84SOPE   C31 7752   2.229   7.019   2.950  0.4245  0.3517  0.4036
   84SOPE   O32 7753   2.260   6.900   2.956  0.1116 -0.7424 -0.3707
   84SOPE   C32 7754   2.100   7.081   3.008 -0.3108  0.7357  0.0568
   84SOPE   H2X 7755   2.040   7.133   2.931 -0.0751  0.7513 -0.1168
   84SOPE   H2Y 7756   2.132   7.154   3.086 -1.5179  2.6977 -1.1958
   84SOPE   C23 7757   2.429   7.518   2.901  0.2494 -0.3643 -0.0379
   84SOPE   H3R 7758   2.319   7.535   2.899  0.2259 -0.5060  0.0473
   84SOPE   H3S 7759   2.478   7.613   2.933  1.0273  1.1085 -4.6667
   84SOPE   C24 7760   2.450   7.404   3.004  0.1907  0.1423  0.0358
   84SOPE   H4R 7761   2.381   7.325   2.969 -1.9218  0.6881  2.5622
   84SOPE   H4S 7762   2.555   7.369   2.997  0.0052 -0.1166 -1.7321
   84SOPE   C25 7763   2.406   7.426   3.147 -0.1775 -0.0373 -0.5634
   84SOPE   H5R 7764   2.468   7.501   3.199  0.7745 -1.4613  0.4336
   84SOPE   H5S 7765   2.305   7.468   3.133 -0.1859 -0.5877 -2.4420
   84SOPE   C26 7766   2.394   7.304   3.250  1.1402  0.4181 -0.1273
   84SOPE   H6R 7767   2.300   7.256   3.214  1.2027  1.1100 -1.2571
   84SOPE   H6S 7768   2.465   7.219   3.261 -1.7190 -2.0052  0.9596
   84SOPE   C27 7769   2.351   7.360   3.385 -0.4358  0.7376  0.2016
   84SOPE   H7R 7770   2.446   7.381   3.439  1.5059 -0.4144 -2.5578
   84SOPE   H7S 7771   2.292   7.452   3.364 -1.9024  0.0259  1.0510
   84SOPE   C28 7772   2.260   7.274   3.471 -0.0196  0.8001 -0.5786
   84SOPE   H8R 7773   2.257   7.316   3.574 -0.3071 -1.4563  0.3786
   84SOPE   H8S 7774   2.162   7.277   3.419 -0.6497  2.5417  0.5896
   84SOPE   C29 7775   2.293   7.129   3.507 -0.0446 -0.2900  0.3675
   84SOPE   H91 7776   2.254   7.065   3.427 -2.3137  1.9454 -0.4458
   84SOPE  C210 7777   2.363   7.080   3.612  0.0282  0.6550 -0.4153
   84SOPE  H101 7778   2.364   6.970   3.619 -0.5094  0.7848  3.0747
   84SOPE  C211 7779   2.419   7.153   3.731 -0.0713  0.2669  0.4175
   84SOPE  H11R 7780   2.423   7.262   3.712  0.7689  0.2987  0.7654
   84SOPE  H11S 7781   2.522   7.114   3.742 -0.6028 -0.8967  1.6851
   84SOPE  C212 7782   2.338   7.138   3.865  0.1955  0.3085 -0.1508
   84SOPE  H12R 7783   2.340   7.032   3.896  1.3505  0.5730  0.7665
   84SOPE  H12S 7784   2.231   7.154   3.840  0.6138  1.7850 -1.1303
   84SOPE  C213 7785   2.389   7.230   3.970 -0.7600 -0.4110  0.5663
   84SOPE  H13R 7786   2.391   7.333   3.927  3.2681 -0.3284  0.6188
   84SOPE  H13S 7787   2.495   7.199   3.980 -0.8778 -1.2077 -0.5003
   84SOPE  C214 7788   2.309   7.229   4.104  0.4337 -0.1420 -0.2046
   84SOPE  H14R 7789   2.298   7.125   4.142  2.5229 -0.2022  0.3583
   84SOPE  H14S 7790   2.208   7.270   4.084  0.3839 -0.6117 -0.9532
   84SOPE  C215 7791   2.368   7.313   4.216  0.1368  0.4786  0.4345
   84SOPE  H15R 7792   2.467   7.272   4.242 -0.0227 -2.2854 -2.6769
   84SOPE  H15S 7793   2.289   7.315   4.294 -2.9650 -1.0999 -2.3973
   84SOPE  C216 7794   2.385   7.461   4.183 -0.8080 -0.2403  0.4396
   84SOPE  H16R 7795   2.290   7.512   4.155 -1.2594 -1.4473 -0.3248
   84SOPE  H16S 7796   2.447   7.459   4.090 -0.2322 -1.0700  0.8289
   84SOPE  C217 7797   2.455   7.545   4.293 -0.0441  0.8379  0.0756
   84SOPE  H17R 7798   2.545   7.487   4.323 -0.4249 -0.0145 -0.4133
   84SOPE  H17S 7799   2.385   7.558   4.379 -0.6689 -0.8896 -0.1351
   84SOPE  C218 7800   2.508   7.683   4.249 -0.2643  0.8231  0.5931
   84SOPE  H18R 7801   2.594   7.676   4.179 -0.9278  2.6498 -0.4564
   84SOPE  H18S 7802   2.549   7.740   4.335  0.8079  0.7029  0.1839
   84SOPE  H18T 7803   2.429   7.753   4.214  1.3351  1.5480 -1.7446
   84SOPE   C33 7804   2.017   6.974   3.083  0.2485 -0.1110  0.1569
   84SOPE   H3X 7805   1.993   6.884   3.023  1.4941  0.0841 -0.6611
   84SOPE   H3Y 7806   1.915   7.019   3.091 -0.0976 -0.7182 -0.6261
   84SOPE   C34 7807   2.053   6.943   3.235  0.3547 -0.4840 -0.0627
   84SOPE   H4X 7808   2.042   7.040   3.286  1.2095 -0.7051  0.5640
   84SOPE   H4Y 7809   2.161   6.920   3.242  0.5744  0.1602 -1.1604
   84SOPE   C35 7810   1.962   6.832   3.296 -0.1353 -0.4659 -0.0219
   84SOPE   H5X 7811   1.968   6.741   3.232 -0.4204  0.2906 -1.1589
   84SOPE   H5Y 7812   1.855   6.861   3.291  0.0329  0.1948  0.0429
   84SOPE   C36 7813   1.992   6.792   3.438 -0.3488  0.0816 -0.4411
   84SOPE   H6X 7814   2.100   6.766   3.447  0.4216  2.6732 -1.5306
   84SOPE   H6Y 7815   1.941   6.696   3.461 -0.6473  0.6495  1.4641
   84SOPE   C37 7816   1.927   6.883   3.552 -0.1609 -0.0287  0.9050
   84SOPE   H7X 7817   1.819   6.891   3.525 -0.2959 -3.9362 -0.2292
   84SOPE   H7Y 7818   1.971   6.983   3.529 -1.6143  0.3430 -0.4710
   84SOPE   C38 7819   1.942   6.827   3.695  0.0356 -0.2361  0.6693
   84SOPE   H8X 7820   2.047   6.796   3.715  0.5075  1.1160  0.3527
   84SOPE   H8Y 7821   1.868   6.744   3.688 -0.0627 -0.0185 -2.0219
   84SOPE   C39 7822   1.890   6.915   3.807  0.0323 -0.2449  0.2451
   84SOPE   H9X 7823   1.790   6.955   3.778  0.6357  1.3662  0.2480
   84SOPE   H9Y 7824   1.947   7.006   3.836  1.2839 -0.8826 -0.1311
   84SOPE  C310 7825   1.857   6.827   3.931 -0.3881 -0.2416 -0.4884
   84SOPE  H10X 7826   1.784   6.745   3.918  1.7978 -2.5245  0.6685
   84SOPE  H10Y 7827   1.825   6.895   4.013  0.2324  1.4306 -1.5853
   84SOPE  C311 7828   1.983   6.749   3.994 -0.1250 -0.0959 -0.3001
   84SOPE  H11X 7829   2.017   6.676   3.917  2.5901  1.0399 -0.2829
   84SOPE  H11Y 7830   1.946   6.697   4.085  1.6861  0.9672  1.0891
   84SOPE  C312 7831   2.104   6.828   4.039  0.4528  1.0005  0.4073
   84SOPE  H12X 7832   2.078   6.896   4.123  1.2658 -0.6824  2.0985
   84SOPE  H12Y 7833   2.144   6.891   3.957 -0.1004  1.1430  0.2428
   84SOPE  C313 7834   2.212   6.731   4.094  0.6166  0.6196 -0.5640
   84SOPE  H13X 7835   2.308   6.781   4.120  0.9678  0.6854 -1.9134
   84SOPE  H13Y 7836   2.244   6.665   4.010 -3.4681 -1.8461 -0.4689
   84SOPE  C314 7837   2.182   6.645   4.219 -0.5208  0.1325  0.5743
   84SOPE  H14X 7838   2.095   6.578   4.197 -1.4371  0.7959  2.0135
   84SOPE  H14Y 7839   2.150   6.702   4.308 -1.7466 -0.5439  0.5914
   84SOPE  C315 7840   2.314   6.557   4.255  0.2895  0.0184  0.4279
   84SOPE  H15X 7841   2.406   6.619   4.250  1.0575 -1.2066 -1.7196
   84SOPE  H15Y 7842   2.325   6.497   4.162  0.0578  1.2959 -0.4453
   84SOPE  C316 7843   2.301   6.473   4.378 -0.0378 -0.3383 -0.1465
   84SOPE  H16X 7844   2.381   6.396   4.378  0.4912  0.1675  1.9118
   84SOPE  H16Y 7845   2.211   6.411   4.362  2.4295 -3.9633 -1.2928
   84SOPE  C317 7846   2.302   6.557   4.503 -0.1073  0.0267 -0.1584
   84SOPE  H17X 7847   2.281   6.486   4.586  3.3178 -3.0073 -1.5630
   84SOPE  H17Y 7848   2.223   6.634   4.515 -0.7446 -0.8752  1.8127
   84SOPE  C318 7849   2.428   6.636   4.540 -0.1572 -0.0738  0.3202
   84SOPE  H18X 7850   2.516   6.568   4.538 -0.4097 -0.4005 -2.1083
   84SOPE  H18Y 7851   2.419   6.683   4.640  0.2168 -1.7637  1.1811
   84SOPE  H18Z 7852   2.457   6.707   4.459  0.6324 -1.3491 -0.5406
   85SOPE     N 7853   3.263   2.073   2.047 -0.0260 -0.0192 -0.0601
   85SOPE   HN1 7854   3.342   2.014   2.012 -1.6445 -1.6811 -1.0925
   85SOPE   HN2 7855   3.219   2.006   2.114 -0.2276 -1.2606 -1.3874
   85SOPE   HN3 7856   3.201   2.088   1.966 -0.0717  0.7743  0.1112
   85SOPE   C12 7857   3.322   2.198   2.114  0.3151  0.3712  0.8100
   85SOPE  H12A 7858   3.239   2.228   2.182 -1.2525 -0.1453 -0.8037
   85SOPE  H12B 7859   3.342   2.274   2.036 -0.3988  0.2699  0.5270
   85SOPE   C11 7860   3.437   2.165   2.201  0.4105 -0.0494 -0.8551
   85SOPE  H11A 7861   3.416   2.100   2.289 -0.2714 -0.1875 -1.1163
   85SOPE  H11B 7862   3.464   2.265   2.243 -1.1512 -0.3278  1.0112
   85SOPE     P 7863   3.582   1.964   2.101  0.2197 -0.2763 -0.5314
   85SOPE   O13 7864   3.706   1.949   2.025  0.1857 -0.2920 -0.1027
   85SOPE   O14 7865   3.459   1.901   2.052  0.0035 -0.0297 -0.2391
   85SOPE   O12 7866   3.552   2.116   2.128 -0.1658 -0.3822  0.0172
   85SOPE   O11 7867   3.604   1.911   2.251 -0.0723 -0.7057  0.0915
   85SOPE    C1 7868   3.642   1.769   2.270  0.4166 -0.4141 -0.4702
   85SOPE    HA 7869   3.718   1.727   2.201  0.3963  0.4415 -1.0322
   85SOPE    HB 7870   3.548   1.711   2.270 -0.5319  1.0357 -2.2858
   85SOPE    C2 7871   3.708   1.753   2.408 -0.1830 -0.1012  0.4325
   85SOPE    HS 7872   3.694   1.648   2.440 -0.8167 -0.3253 -0.5561
   85SOPE   O21 7873   3.650   1.848   2.499 -0.2668 -0.1829 -0.3175
   85SOPE   C21 7874   3.520   1.843   2.525  0.4269  0.2226  0.5906
   85SOPE   O22 7875   3.441   1.752   2.493 -0.1726  0.1721 -0.6682
   85SOPE   C22 7876   3.473   1.972   2.592 -0.5823  0.3211 -0.1234
   85SOPE   H2R 7877   3.419   2.030   2.514  0.6667  3.1819  0.9916
   85SOPE   H2S 7878   3.565   2.026   2.622 -0.5907  0.4904 -0.3975
   85SOPE    C3 7879   3.862   1.786   2.408  0.3884  0.5273 -0.2364
   85SOPE    HX 7880   3.881   1.884   2.361 -2.9843  2.2718  1.6604
   85SOPE    HY 7881   3.900   1.715   2.332 -0.9778  2.8442 -3.2937
   85SOPE   O31 7882   3.924   1.752   2.535 -0.2276 -0.3149  0.6352
   85SOPE   C31 7883   3.954   1.848   2.620 -0.7818 -0.2534  0.6619
   85SOPE   O32 7884   3.943   1.971   2.603  0.3026 -0.1837 -0.0712
   85SOPE   C32 7885   4.003   1.783   2.751  0.1902 -0.3905 -0.1943
   85SOPE   H2X 7886   4.105   1.815   2.782  0.0333  0.1344 -0.2136
   85SOPE   H2Y 7887   4.014   1.673   2.740  0.6333 -0.3264 -0.4144
   85SOPE   C23 7888   3.377   1.941   2.711  0.4683  0.7839 -0.1631
   85SOPE   H3R 7889   3.434   1.913   2.803 -1.2718 -0.1425  0.6756
   85SOPE   H3S 7890   3.315   1.854   2.681  0.7261  1.1935 -2.0133
   85SOPE   C24 7891   3.286   2.061   2.741 -0.6140  0.5221 -0.4058
   85SOPE   H4R 7892   3.241   2.092   2.644 -1.4117  0.1672 -0.1546
   85SOPE   H4S 7893   3.205   2.027   2.809  0.6480 -1.6966  0.0704
   85SOPE   C25 7894   3.347   2.185   2.816  0.6675 -0.1496  0.3461
   85SOPE   H5R 7895   3.400   2.152   2.908  1.3720  1.0913  0.4098
   85SOPE   H5S 7896   3.422   2.233   2.750  0.0214 -1.4532 -1.4183
   85SOPE   C26 7897   3.240   2.288   2.841  0.3708 -0.7860  0.0651
   85SOPE   H6R 7898   3.195   2.339   2.754  0.3679 -0.2532  0.3708
   85SOPE   H6S 7899   3.156   2.233   2.888 -0.7545 -0.4581 -1.5064
   85SOPE   C27 7900   3.282   2.405   2.934 -0.7813 -0.6146  0.6400
   85SOPE   H7R 7901   3.324   2.365   3.029  0.0396  0.5866  0.8001
   85SOPE   H7S 7902   3.357   2.473   2.889 -2.0281  0.5681  0.3069
   85SOPE   C28 7903   3.160   2.484   2.988 -0.1485  0.9474  0.4996
   85SOPE   H8R 7904   3.119   2.522   2.892  2.0101 -1.4464 -1.5383
   85SOPE   H8S 7905   3.090   2.410   3.033 -2.0463  1.2663 -1.7015
   85SOPE   C29 7906   3.198   2.596   3.084 -0.3840  0.3561 -0.2154
   85SOPE   H91 7907   3.218   2.691   3.034 -0.4692  0.3770 -0.2086
   85SOPE  C210 7908   3.207   2.579   3.214 -0.3709  0.4901 -0.0921
   85SOPE  H101 7909   3.245   2.664   3.273 -0.0807 -0.9525  1.9106
   85SOPE  C211 7910   3.191   2.450   3.290 -0.0741 -0.2782  0.0844
   85SOPE  H11R 7911   3.290   2.421   3.333 -0.8233 -0.2403  1.9470
   85SOPE  H11S 7912   3.157   2.366   3.226 -0.8508 -0.4126  0.6641
   85SOPE  C212 7913   3.081   2.449   3.410 -0.7416 -0.5313 -0.4861
   85SOPE  H12R 7914   3.074   2.345   3.446  0.6356  0.0499  1.6771
   85SOPE  H12S 7915   2.983   2.491   3.378  0.6063  2.3388 -1.2855
   85SOPE  C213 7916   3.136   2.521   3.535 -0.0888 -0.5197  0.2571
   85SOPE  H13R 7917   3.146   2.628   3.507  0.2153  0.0091  2.2578
   85SOPE  H13S 7918   3.239   2.481   3.542 -0.1334 -1.2733 -2.2999
   85SOPE  C214 7919   3.047   2.507   3.653  0.3045  0.6363  0.6861
   85SOPE  H14R 7920   3.045   2.403   3.691 -0.3426  0.5309  0.3657
   85SOPE  H14S 7921   2.940   2.515   3.625  0.8319  1.5258 -1.2707
   85SOPE  C215 7922   3.078   2.615   3.757 -0.3190 -1.0314  0.7015
   85SOPE  H15R 7923   3.050   2.714   3.716 -0.1156  0.4001  3.7129
   85SOPE  H15S 7924   3.188   2.625   3.775 -0.1369  0.5969 -1.0290
   85SOPE  C216 7925   3.002   2.612   3.890 -0.8973 -0.3603 -0.0770
   85SOPE  H16R 7926   2.994   2.510   3.932 -1.2132  0.0949  1.0097
   85SOPE  H16S 7927   2.898   2.644   3.867 -1.7242 -2.6319  0.2275
   85SOPE  C217 7928   3.084   2.693   3.997  0.4242  0.4424 -0.0226
   85SOPE  H17R 7929   3.075   2.798   3.963 -1.8099  0.2095 -0.3536
   85SOPE  H17S 7930   3.188   2.657   4.008  0.7592  1.7393  1.2801
   85SOPE  C218 7931   3.019   2.673   4.132  0.2492 -0.7657 -0.2662
   85SOPE  H18R 7932   3.027   2.567   4.162  2.0937 -0.3159  0.9803
   85SOPE  H18S 7933   2.915   2.711   4.123  0.8949  1.0956 -0.2742
   85SOPE  H18T 7934   3.061   2.740   4.210  1.2443  0.4645 -1.7832
   85SOPE   C33 7935   3.913   1.827   2.869  0.3086 -0.7188  0.1844
   85SOPE   H3X 7936   3.900   1.937   2.866 -0.4839 -0.7926  0.6522
   85SOPE   H3Y 7937   3.967   1.796   2.961  0.2363 -3.5225 -0.6367
   85SOPE   C34 7938   3.768   1.771   2.867 -0.4042 -0.0693  0.2526
   85SOPE   H4X 7939   3.785   1.661   2.865  2.7778  0.3176 -1.9421
   85SOPE   H4Y 7940   3.708   1.803   2.779 -1.2480  1.7611  1.4359
   85SOPE   C35 7941   3.691   1.804   2.997 -0.2350  0.7178  0.5410
   85SOPE   H5X 7942   3.584   1.779   2.981 -0.3445  0.6117  1.3530
   85SOPE   H5Y 7943   3.687   1.910   3.031 -2.8922  0.1840  2.2706
   85SOPE   C36 7944   3.720   1.714   3.117  0.0903  0.2069  0.0526
   85SOPE   H6X 7945   3.830   1.725   3.133  0.0732 -0.0711  0.3735
   85SOPE   H6Y 7946   3.698   1.608   3.092 -1.9875  0.2606  1.4701
   85SOPE   C37 7947   3.642   1.758   3.243 -0.7810 -0.4304  0.5467
   85SOPE   H7X 7948   3.543   1.793   3.210 -0.3940  1.7232  1.5107
   85SOPE   H7Y 7949   3.692   1.852   3.273 -2.1656  1.5068 -2.7556
   85SOPE   C38 7950   3.638   1.663   3.362 -0.0062 -0.4637  0.6996
   85SOPE   H8X 7951   3.572   1.575   3.345 -0.2752 -0.1461  0.0329
   85SOPE   H8Y 7952   3.596   1.721   3.446  1.3670  2.1406 -0.2932
   85SOPE   C39 7953   3.775   1.614   3.414  0.3252  0.6372  0.3602
   85SOPE   H9X 7954   3.844   1.696   3.442  1.8149 -1.1391  2.3003
   85SOPE   H9Y 7955   3.832   1.557   3.337  0.8371 -1.7377  2.3570
   85SOPE  C310 7956   3.765   1.520   3.538  0.4404 -0.4294  0.2166
   85SOPE  H10X 7957   3.690   1.446   3.502 -1.4198  0.5635  1.8374
   85SOPE  H10Y 7958   3.717   1.572   3.623  2.3426 -1.4759  2.0359
   85SOPE  C311 7959   3.900   1.454   3.580  0.9829  0.6430  0.4853
   85SOPE  H11X 7960   3.940   1.389   3.498 -0.9725 -0.1919  0.1416
   85SOPE  H11Y 7961   3.882   1.382   3.662  2.9107  1.3033  1.5460
   85SOPE  C312 7962   4.003   1.546   3.630 -0.1636 -0.4818  0.2334
   85SOPE  H12X 7963   3.960   1.600   3.717  0.2769  0.3922 -0.0862
   85SOPE  H12Y 7964   4.029   1.622   3.554  1.0866 -0.4726  0.6435
   85SOPE  C313 7965   4.126   1.477   3.686 -0.3827  0.8808  0.0920
   85SOPE  H13X 7966   4.183   1.411   3.617  1.1814  0.8645  1.3350
   85SOPE  H13Y 7967   4.090   1.408   3.765 -1.1454  0.9490 -0.1845
   85SOPE  C314 7968   4.221   1.581   3.739 -0.0894  1.1285  0.3181
   85SOPE  H14X 7969   4.161   1.657   3.793 -0.6743  0.7542  0.2005
   85SOPE  H14Y 7970   4.274   1.618   3.649  2.0066 -0.9109  0.6129
   85SOPE  C315 7971   4.319   1.510   3.834 -0.1795  0.1648 -0.1431
   85SOPE  H15X 7972   4.375   1.437   3.771  1.5531 -1.1573  2.6815
   85SOPE  H15Y 7973   4.258   1.457   3.910 -1.6416  0.9282 -0.7366
   85SOPE  C316 7974   4.422   1.608   3.893  0.1406 -0.7949 -0.8404
   85SOPE  H16X 7975   4.360   1.672   3.960  2.2883 -0.1795  0.6600
   85SOPE  H16Y 7976   4.464   1.674   3.814 -0.4634  3.4492  2.0831
   85SOPE  C317 7977   4.534   1.553   3.979 -0.2404  0.1641 -0.1896
   85SOPE  H17X 7978   4.605   1.505   3.907 -1.1347 -2.9052  0.7937
   85SOPE  H17Y 7979   4.501   1.465   4.038  2.5068 -1.5473 -0.9646
   85SOPE  C318 7980   4.595   1.650   4.082 -0.6381 -0.2078  0.6293
   85SOPE  H18X 7981   4.547   1.636   4.181  0.9029 -0.3537  1.3849
   85SOPE  H18Y 7982   4.574   1.753   4.047 -1.9157 -0.4600  0.6107
   85SOPE  H18Z 7983   4.704   1.634   4.092 -0.3262 -0.7638 -2.4834
   86SOPE     N 7984   5.061   5.614   2.019 -0.2119 -0.8552 -0.1699
   86SOPE   HN1 7985   5.144   5.618   1.957  0.3867  0.3197  0.6629
   86SOPE   HN2 7986   4.996   5.541   1.984 -1.0465 -0.2909  0.1464
   86SOPE   HN3 7987   5.024   5.709   2.000  2.8155  0.0495 -2.0890
   86SOPE   C12 7988   5.113   5.595   2.154  0.4991  0.2179 -0.0834
   86SOPE  H12A 7989   5.083   5.494   2.190  1.1031  0.5155  1.3347
   86SOPE  H12B 7990   5.071   5.669   2.226 -0.7466 -2.2007  1.8308
   86SOPE   C11 7991   5.267   5.610   2.147 -0.4351 -0.6331  0.1004
   86SOPE  H11A 7992   5.310   5.592   2.248 -0.5896  3.7682  1.1545
   86SOPE  H11B 7993   5.284   5.719   2.129 -5.1623  0.0426 -1.5722
   86SOPE     P 7994   5.382   5.391   2.068  0.2172 -0.1099  0.0596
   86SOPE   O13 7995   5.521   5.398   2.127  0.5469  0.6805  0.2459
   86SOPE   O14 7996   5.360   5.316   1.942 -0.4684  0.5105  0.3456
   86SOPE   O12 7997   5.327   5.535   2.040 -0.3432 -0.6224  0.4970
   86SOPE   O11 7998   5.274   5.325   2.166  0.3899 -0.0979  1.0745
   86SOPE    C1 7999   5.177   5.226   2.120 -0.2095  0.4271  0.1146
   86SOPE    HA 8000   5.243   5.138   2.104 -1.4813 -0.5577  0.1488
   86SOPE    HB 8001   5.122   5.254   2.028  1.5681  2.0818 -0.5017
   86SOPE    C2 8002   5.076   5.188   2.229  0.6466 -0.1584  0.9305
   86SOPE    HS 8003   4.997   5.266   2.229  1.9643  1.2474  0.3920
   86SOPE   O21 8004   5.141   5.166   2.362  0.4183  0.2605  0.5404
   86SOPE   C21 8005   5.125   5.273   2.439 -0.3836 -0.9261 -0.8670
   86SOPE   O22 8006   5.052   5.369   2.425  0.1715 -0.0181 -0.2821
   86SOPE   C22 8007   5.207   5.257   2.560  0.4443 -0.4750  0.3920
   86SOPE   H2R 8008   5.292   5.205   2.512 -1.8207 -3.1651 -0.9904
   86SOPE   H2S 8009   5.153   5.182   2.622 -0.6015 -0.7152 -0.7703
   86SOPE    C3 8010   5.004   5.060   2.196 -0.0317 -0.4295 -0.0311
   86SOPE    HX 8011   5.076   4.981   2.164  0.6171  0.4338 -0.7402
   86SOPE    HY 8012   4.955   5.081   2.098  1.1906  2.0292 -0.1895
   86SOPE   O31 8013   4.906   5.014   2.289 -0.2145 -0.3058 -0.1780
   86SOPE   C31 8014   4.929   4.896   2.347 -1.0508 -0.2880  0.3244
   86SOPE   O32 8015   5.024   4.824   2.327 -0.6819  0.6596  0.4057
   86SOPE   C32 8016   4.819   4.871   2.455 -0.0143 -0.3286  0.2800
   86SOPE   H2X 8017   4.727   4.844   2.399  0.6684 -1.7601 -0.2009
   86SOPE   H2Y 8018   4.790   4.956   2.521  0.1582  0.2919 -0.4218
   86SOPE   C23 8019   5.258   5.379   2.635  0.0186  0.2664 -0.7985
   86SOPE   H3R 8020   5.180   5.457   2.643  1.7302  1.9367  0.6530
   86SOPE   H3S 8021   5.342   5.415   2.572 -0.1741  0.4056 -0.9772
   86SOPE   C24 8022   5.302   5.368   2.778 -0.5638  0.4900 -0.1495
   86SOPE   H4R 8023   5.331   5.262   2.796 -1.5443  0.0265 -1.1438
   86SOPE   H4S 8024   5.390   5.434   2.790  0.6486 -0.8638 -1.1008
   86SOPE   C25 8025   5.190   5.392   2.881  0.2530 -0.6229 -0.4779
   86SOPE   H5R 8026   5.140   5.491   2.871 -0.5018 -1.0474 -1.0009
   86SOPE   H5S 8027   5.108   5.319   2.864 -0.7135  0.6878 -1.8574
   86SOPE   C26 8028   5.236   5.359   3.024  0.1026  0.5544  0.9811
   86SOPE   H6R 8029   5.153   5.362   3.097 -0.7649 -1.9373  0.1845
   86SOPE   H6S 8030   5.264   5.252   3.028  1.2145  0.6615 -1.6332
   86SOPE   C27 8031   5.347   5.454   3.074  0.3501 -0.2198  0.3579
   86SOPE   H7R 8032   5.435   5.427   3.011  0.5495 -2.0873  1.3843
   86SOPE   H7S 8033   5.325   5.562   3.060 -0.3613 -0.5715 -1.5353
   86SOPE   C28 8034   5.391   5.427   3.218 -0.3015  1.1436 -0.0251
   86SOPE   H8R 8035   5.422   5.323   3.240 -1.1422  0.6982 -0.8669
   86SOPE   H8S 8036   5.477   5.495   3.239  1.5302 -0.1751 -2.7132
   86SOPE   C29 8037   5.281   5.453   3.327  0.0686  0.1321  0.6976
   86SOPE   H91 8038   5.188   5.404   3.294 -0.3551  1.8330 -0.7416
   86SOPE  C210 8039   5.302   5.528   3.436  0.7603  0.5809 -0.2159
   86SOPE  H101 8040   5.248   5.529   3.532 -0.3507 -0.2352 -0.8169
   86SOPE  C211 8041   5.434   5.590   3.481 -0.3295  0.4008 -0.2296
   86SOPE  H11R 8042   5.446   5.694   3.445 -1.3538  0.9419  0.9343
   86SOPE  H11S 8043   5.523   5.539   3.438  1.2310  1.5841  1.4513
   86SOPE  C212 8044   5.465   5.599   3.633  0.9280  0.8972 -0.5798
   86SOPE  H12R 8045   5.566   5.644   3.648  0.8382  0.8581  0.1950
   86SOPE  H12S 8046   5.451   5.499   3.682 -0.6906  1.8302  0.9882
   86SOPE  C213 8047   5.367   5.679   3.721 -0.6577  0.5057  0.0884
   86SOPE  H13R 8048   5.258   5.665   3.702 -1.1171 -0.0097  2.7687
   86SOPE  H13S 8049   5.389   5.787   3.705 -1.9781  0.6146 -1.3199
   86SOPE  C214 8050   5.395   5.650   3.871 -0.7458  0.0839  0.8014
   86SOPE  H14R 8051   5.503   5.655   3.900 -0.3284 -1.4847 -0.3305
   86SOPE  H14S 8052   5.364   5.544   3.881  0.1234 -0.1065  1.7354
   86SOPE  C215 8053   5.305   5.740   3.959  0.0908 -0.0068  0.6568
   86SOPE  H15R 8054   5.204   5.692   3.966  0.0178  0.0429 -0.0322
   86SOPE  H15S 8055   5.303   5.843   3.918  1.9463 -0.5880 -1.0198
   86SOPE  C216 8056   5.349   5.762   4.106 -0.3339  0.4491  0.9056
   86SOPE  H16R 8057   5.286   5.841   4.152 -0.0435  0.9943  0.3699
   86SOPE  H16S 8058   5.454   5.795   4.125 -0.9664  3.1316  0.0664
   86SOPE  C217 8059   5.318   5.631   4.187 -0.2550 -0.2366  0.9547
   86SOPE  H17R 8060   5.338   5.538   4.129  1.1388 -0.7544  2.1949
   86SOPE  H17S 8061   5.209   5.616   4.204 -0.6878 -1.8314 -2.3541
   86SOPE  C218 8062   5.398   5.625   4.314 -0.1119  0.1074  0.7458
   86SOPE  H18R 8063   5.375   5.533   4.372  0.5088  0.3111  1.3296
   86SOPE  H18S 8064   5.375   5.708   4.383 -1.3863  0.5471 -0.1728
   86SOPE  H18T 8065   5.509   5.633   4.309  0.0771  1.5430  4.3988
   86SOPE   C33 8066   4.848   4.745   2.547  0.6465 -0.2494  0.0637
   86SOPE   H3X 8067   4.936   4.746   2.614  1.9946  1.0690 -1.6320
   86SOPE   H3Y 8068   4.867   4.656   2.484  2.1631 -1.1107  1.6552
   86SOPE   C34 8069   4.720   4.694   2.621  0.2716 -0.1091 -0.1769
   86SOPE   H4X 8070   4.650   4.661   2.542 -2.4224  1.5928  1.3573
   86SOPE   H4Y 8071   4.677   4.777   2.681  0.4911 -1.2747  1.7073
   86SOPE   C35 8072   4.733   4.584   2.726 -0.6097 -0.0206  0.2619
   86SOPE   H5X 8073   4.801   4.510   2.679  0.9464  2.5994 -1.9432
   86SOPE   H5Y 8074   4.642   4.526   2.753 -0.2924 -1.7879 -2.1053
   86SOPE   C36 8075   4.796   4.628   2.857  0.7456  0.1302  1.0770
   86SOPE   H6X 8076   4.739   4.718   2.888  0.7716  1.5470 -2.5175
   86SOPE   H6Y 8077   4.903   4.656   2.846  0.3460  1.3915  0.1345
   86SOPE   C37 8078   4.781   4.519   2.969  0.6436  0.5102  0.6264
   86SOPE   H7X 8079   4.851   4.437   2.940 -0.8401 -0.5422 -0.0749
   86SOPE   H7Y 8080   4.679   4.477   2.979  0.7289  0.4346  1.2366
   86SOPE   C38 8081   4.825   4.571   3.106  0.1401  0.5425  0.0517
   86SOPE   H8X 8082   4.782   4.672   3.124  0.9496  1.8312 -4.0551
   86SOPE   H8Y 8083   4.934   4.596   3.100  0.5789 -0.9707  1.1891
   86SOPE   C39 8084   4.788   4.476   3.218 -0.9249 -0.1245  0.0369
   86SOPE   H9X 8085   4.832   4.376   3.198 -0.3943  0.0027  0.5495
   86SOPE   H9Y 8086   4.680   4.459   3.239 -0.5754 -0.6091  1.6154
   86SOPE  C310 8087   4.850   4.527   3.357  0.5372 -0.3719  0.5612
   86SOPE  H10X 8088   4.953   4.565   3.339  0.7736 -0.6686  1.2255
   86SOPE  H10Y 8089   4.851   4.436   3.421 -1.0718  0.1844  1.4314
   86SOPE  C311 8090   4.754   4.617   3.431  0.2957  0.0533 -0.1688
   86SOPE  H11X 8091   4.649   4.607   3.396 -0.8295 -0.6588  3.0430
   86SOPE  H11Y 8092   4.773   4.724   3.409 -2.6259  0.3233 -1.9942
   86SOPE  C312 8093   4.740   4.577   3.576  0.1759 -0.1435 -0.1704
   86SOPE  H12X 8094   4.842   4.558   3.614  0.2230  1.7340  0.7366
   86SOPE  H12Y 8095   4.673   4.489   3.589  3.0026 -2.2225  1.4184
   86SOPE  C313 8096   4.678   4.682   3.675 -0.4193  0.1699 -0.1201
   86SOPE  H13X 8097   4.576   4.710   3.642 -0.8650  0.0189  1.0842
   86SOPE  H13Y 8098   4.745   4.768   3.696  0.0277 -0.4181  0.9789
   86SOPE  C314 8099   4.659   4.614   3.812 -0.1436  0.1832 -0.6706
   86SOPE  H14X 8100   4.759   4.575   3.843  1.8153  2.7314 -3.3196
   86SOPE  H14Y 8101   4.588   4.529   3.798 -0.8996  0.1454  2.5139
   86SOPE  C315 8102   4.614   4.702   3.929 -0.2165  0.1329 -0.6245
   86SOPE  H15X 8103   4.705   4.762   3.952  0.5067 -2.2037  3.9274
   86SOPE  H15Y 8104   4.599   4.635   4.017 -1.0970 -2.4149 -2.5701
   86SOPE  C316 8105   4.482   4.783   3.915  0.1533 -0.0104  0.1697
   86SOPE  H16X 8106   4.411   4.711   3.871  1.3920 -0.5837 -0.9746
   86SOPE  H16Y 8107   4.506   4.865   3.843  0.5927 -0.9894 -0.8242
   86SOPE  C317 8108   4.431   4.830   4.053 -0.2900  0.0298 -0.5824
   86SOPE  H17X 8109   4.509   4.897   4.095  0.2818 -0.6214 -0.5834
   86SOPE  H17Y 8110   4.417   4.740   4.118  0.9811 -0.1435 -0.5231
   86SOPE  C318 8111   4.310   4.910   4.034  0.2749 -0.6255  0.8536
   86SOPE  H18X 8112   4.315   4.979   3.947 -1.0227 -0.0154  1.2423
   86SOPE  H18Y 8113   4.297   4.983   4.116  0.1038  2.4041 -1.6886
   86SOPE  H18Z 8114   4.223   4.842   4.024  0.3918 -0.4658 -2.4135
   87SOPE     N 8115   0.379   4.321   1.965 -0.5503  0.7328 -0.0543
   87SOPE   HN1 8116   0.313   4.391   1.924  1.0179  1.8931 -0.7404
   87SOPE   HN2 8117   0.477   4.355   1.948 -0.3070 -0.8472 -2.3517
   87SOPE   HN3 8118   0.351   4.227   1.932 -2.9645  0.9489  1.2047
   87SOPE   C12 8119   0.370   4.331   2.117  0.3266 -0.1220 -0.1698
   87SOPE  H12A 8120   0.262   4.307   2.131 -0.1019  1.7250 -0.0023
   87SOPE  H12B 8121   0.391   4.435   2.147  0.4493 -0.1199 -0.2637
   87SOPE   C11 8122   0.455   4.227   2.192  0.5258  0.5204  0.4245
   87SOPE  H11A 8123   0.405   4.129   2.211 -0.3190  1.2126  1.9919
   87SOPE  H11B 8124   0.485   4.277   2.287 -1.7790 -0.5345  1.7942
   87SOPE     P 8125   0.664   4.075   2.125  0.1280 -0.0890 -0.4681
   87SOPE   O13 8126   0.777   4.097   2.030 -0.1064 -0.3292  0.0794
   87SOPE   O14 8127   0.577   3.955   2.090 -0.6721 -0.0497  0.2452
   87SOPE   O12 8128   0.574   4.202   2.116 -0.3888  0.2630  0.2443
   87SOPE   O11 8129   0.709   4.059   2.274 -0.1630 -0.0702  0.3932
   87SOPE    C1 8130   0.755   4.164   2.358 -0.3358  0.0890  0.6800
   87SOPE    HA 8131   0.719   4.262   2.319  0.4075 -0.3909 -1.2947
   87SOPE    HB 8132   0.865   4.178   2.357 -0.3907  0.4986 -0.2495
   87SOPE    C2 8133   0.709   4.151   2.500 -0.0215 -0.6533 -0.1064
   87SOPE    HS 8134   0.750   4.056   2.542  0.2766 -0.5114 -0.0734
   87SOPE   O21 8135   0.563   4.137   2.496 -0.8187 -0.2190  0.0973
   87SOPE   C21 8136   0.512   4.101   2.612 -0.2429 -0.0407  0.3028
   87SOPE   O22 8137   0.568   4.080   2.719  0.0231 -0.3906  0.5824
   87SOPE   C22 8138   0.362   4.103   2.594  0.1328  0.0768 -0.4143
   87SOPE   H2R 8139   0.322   4.006   2.631  0.8303 -0.1285 -0.1849
   87SOPE   H2S 8140   0.326   4.113   2.490 -0.5790  1.4382 -0.0678
   87SOPE    C3 8141   0.756   4.269   2.589  0.5742  0.0106 -0.2661
   87SOPE    HX 8142   0.739   4.241   2.695 -1.9759  3.1390  0.3186
   87SOPE    HY 8143   0.685   4.352   2.566 -1.8920 -1.4900  1.4449
   87SOPE   O31 8144   0.891   4.294   2.550 -0.2312  0.4401  0.0474
   87SOPE   C31 8145   0.946   4.371   2.646  0.1236  0.3876  0.8582
   87SOPE   O32 8146   0.884   4.411   2.744  0.0820  0.4907 -0.0722
   87SOPE   C32 8147   1.091   4.403   2.610 -0.1180 -0.3997  0.2257
   87SOPE   H2X 8148   1.124   4.480   2.684  1.0994  0.1429 -0.8406
   87SOPE   H2Y 8149   1.100   4.434   2.504 -0.0249 -2.2622 -0.3314
   87SOPE   C23 8150   0.289   4.204   2.683  0.0663  0.2180 -0.3908
   87SOPE   H3R 8151   0.272   4.298   2.626  0.8057 -1.1562 -3.0136
   87SOPE   H3S 8152   0.342   4.233   2.776  0.3918 -2.0326  0.1635
   87SOPE   C24 8153   0.149   4.159   2.746  0.0391 -0.8711  0.8467
   87SOPE   H4R 8154   0.108   4.257   2.781 -0.6073 -0.4035 -1.1159
   87SOPE   H4S 8155   0.084   4.137   2.659 -0.9578  0.9441  1.0885
   87SOPE   C25 8156   0.147   4.043   2.851 -0.3602 -0.2275 -0.0332
   87SOPE   H5R 8157   0.047   4.031   2.897  0.7107  0.5724  2.7257
   87SOPE   H5S 8158   0.175   3.947   2.803 -0.1755 -0.3573  0.3258
   87SOPE   C26 8159   0.245   4.074   2.962 -0.4679 -0.1069  0.8937
   87SOPE   H6R 8160   0.344   4.084   2.914 -1.5869 -0.4285 -1.6928
   87SOPE   H6S 8161   0.231   4.170   3.017  0.3468 -0.5731  1.9436
   87SOPE   C27 8162   0.257   3.959   3.067 -0.1820  0.2991  0.4116
   87SOPE   H7R 8163   0.166   3.959   3.130  0.0532 -0.0576  0.7530
   87SOPE   H7S 8164   0.256   3.867   3.005  1.4846 -0.5147  1.5168
   87SOPE   C28 8165   0.379   3.963   3.158 -0.1395  0.4567 -0.2184
   87SOPE   H8R 8166   0.397   4.065   3.199 -1.1678 -1.0362  4.6217
   87SOPE   H8S 8167   0.355   3.894   3.241  0.8025  0.6639  0.2379
   87SOPE   C29 8168   0.498   3.908   3.082  0.5595 -0.4261 -0.4538
   87SOPE   H91 8169   0.524   3.952   2.984  1.7014  1.8095  0.7587
   87SOPE  C210 8170   0.576   3.813   3.132  0.2464  0.6539  0.0249
   87SOPE  H101 8171   0.649   3.772   3.061  0.5827  0.2780  0.5796
   87SOPE  C211 8172   0.558   3.736   3.270  0.5484 -0.5947  0.3571
   87SOPE  H11R 8173   0.505   3.639   3.264  2.5214 -1.7400  0.3711
   87SOPE  H11S 8174   0.496   3.792   3.342 -0.1592  1.4399 -1.7095
   87SOPE  C212 8175   0.699   3.704   3.321  0.5237 -0.6017 -0.1200
   87SOPE  H12R 8176   0.702   3.665   3.425 -0.6927 -0.4409 -0.0110
   87SOPE  H12S 8177   0.773   3.785   3.305  1.8934 -2.1062 -1.8690
   87SOPE  C213 8178   0.758   3.576   3.243  0.3204  0.8620  0.0904
   87SOPE  H13R 8179   0.779   3.598   3.136 -1.1718  1.8155 -0.0249
   87SOPE  H13S 8180   0.682   3.497   3.260 -0.7520  2.0347  0.9168
   87SOPE  C214 8181   0.901   3.523   3.294 -0.0921  0.5602  0.4005
   87SOPE  H14R 8182   0.875   3.453   3.377 -1.2907  0.2946 -0.1784
   87SOPE  H14S 8183   0.957   3.600   3.350 -0.9653  1.3661  0.2061
   87SOPE  C215 8184   0.977   3.441   3.187 -0.3859 -0.1551  0.1417
   87SOPE  H15R 8185   1.078   3.410   3.223  0.6128 -0.0820 -2.4150
   87SOPE  H15S 8186   1.011   3.505   3.103 -0.2345  0.6418  0.7926
   87SOPE  C216 8187   0.898   3.316   3.146 -1.2838 -0.6182 -0.2323
   87SOPE  H16R 8188   0.799   3.345   3.104 -2.3339  0.0394  2.4401
   87SOPE  H16S 8189   0.878   3.248   3.232  0.4033  1.4337  1.9131
   87SOPE  C217 8190   0.972   3.229   3.038  0.1619 -0.6095  0.1778
   87SOPE  H17R 8191   1.076   3.212   3.074  0.4168  0.6972  0.1108
   87SOPE  H17S 8192   0.983   3.289   2.946  0.5487 -1.1404 -0.1233
   87SOPE  C218 8193   0.916   3.095   3.008 -0.4282 -0.3321  0.3951
   87SOPE  H18R 8194   0.820   3.097   2.952 -0.0972 -1.3145 -0.2331
   87SOPE  H18S 8195   0.906   3.022   3.091  0.6298 -2.0970 -0.9572
   87SOPE  H18T 8196   0.982   3.045   2.934 -0.6415  0.6108 -0.4652
   87SOPE   C33 8197   1.188   4.294   2.627  0.0612 -0.2787 -0.3083
   87SOPE   H3X 8198   1.277   4.312   2.563  0.5214  1.6990  0.8114
   87SOPE   H3Y 8199   1.143   4.202   2.584 -1.8172  0.8964 -0.9799
   87SOPE   C34 8200   1.228   4.280   2.775 -0.8133  0.0556 -0.1344
   87SOPE   H4X 8201   1.135   4.260   2.833  0.9136 -1.2588  2.3374
   87SOPE   H4Y 8202   1.259   4.376   2.819  1.5812 -0.9400  0.4751
   87SOPE   C35 8203   1.338   4.173   2.805  1.0506 -0.4398 -0.8027
   87SOPE   H5X 8204   1.433   4.204   2.757  2.9299  0.0944  2.9550
   87SOPE   H5Y 8205   1.299   4.076   2.767 -3.9900  0.0691  2.2006
   87SOPE   C36 8206   1.359   4.155   2.961 -0.0721  0.4942  0.0074
   87SOPE   H6X 8207   1.289   4.080   3.004  1.9736 -1.7245 -0.3434
   87SOPE   H6Y 8208   1.346   4.253   3.011 -0.0369  0.5524 -0.0979
   87SOPE   C37 8209   1.499   4.102   3.005  0.0939 -0.6959 -0.1168
   87SOPE   H7X 8210   1.572   4.186   3.013 -0.5476 -0.3078  2.8288
   87SOPE   H7Y 8211   1.543   4.038   2.926 -1.6975  0.8007 -2.4715
   87SOPE   C38 8212   1.505   4.034   3.149  0.1761  0.4159  0.5623
   87SOPE   H8X 8213   1.610   3.997   3.152  0.7245  1.6026 -1.6689
   87SOPE   H8Y 8214   1.438   3.947   3.164 -0.2179  0.9299  1.8782
   87SOPE   C39 8215   1.505   4.131   3.267 -0.7311 -0.0445  0.3510
   87SOPE   H9X 8216   1.400   4.165   3.282 -1.8208 -1.1435 -3.5892
   87SOPE   H9Y 8217   1.569   4.220   3.249 -1.8213  0.4218 -1.5228
   87SOPE  C310 8218   1.564   4.072   3.395 -0.6866  0.4482 -1.0077
   87SOPE  H10X 8219   1.667   4.039   3.370 -0.8564 -0.5569 -0.4388
   87SOPE  H10Y 8220   1.515   3.976   3.424 -0.0664  0.4973  0.2738
   87SOPE  C311 8221   1.562   4.153   3.521  0.1997  0.0655  1.1741
   87SOPE  H11X 8222   1.460   4.193   3.540  0.7727  2.3184 -0.1065
   87SOPE  H11Y 8223   1.636   4.236   3.515  1.7537 -1.1694  2.5121
   87SOPE  C312 8224   1.604   4.073   3.644  0.5130 -0.0977  0.0496
   87SOPE  H12X 8225   1.705   4.040   3.612 -1.4604 -2.4714 -4.5809
   87SOPE  H12Y 8226   1.538   3.984   3.637 -0.8475  0.9745 -1.6196
   87SOPE  C313 8227   1.589   4.142   3.779  0.6747 -0.0287 -0.0588
   87SOPE  H13X 8228   1.486   4.182   3.786  0.5089 -0.6217  1.1436
   87SOPE  H13Y 8229   1.663   4.224   3.788  2.0107 -1.2815  0.9721
   87SOPE  C314 8230   1.624   4.050   3.891 -1.0161  0.5622  0.3990
   87SOPE  H14X 8231   1.718   3.997   3.865 -1.7321 -0.9468  0.7358
   87SOPE  H14Y 8232   1.545   3.972   3.893 -0.0457 -0.4304  1.0994
   87SOPE  C315 8233   1.638   4.111   4.033  0.5847 -0.1468  0.4505
   87SOPE  H15X 8234   1.638   4.022   4.101 -1.0940 -0.3663  0.2083
   87SOPE  H15Y 8235   1.546   4.170   4.056  0.5948 -0.8856  2.6399
   87SOPE  C316 8236   1.755   4.209   4.058 -0.2319  0.6333  0.3573
   87SOPE  H16X 8237   1.768   4.271   3.966  0.4926  1.4639  1.0015
   87SOPE  H16Y 8238   1.840   4.145   4.089 -0.4039 -0.1457 -0.7018
   87SOPE  C317 8239   1.735   4.309   4.173 -0.3970 -0.3441  0.4513
   87SOPE  H17X 8240   1.711   4.243   4.260 -0.0497 -0.9589  0.0909
   87SOPE  H17Y 8241   1.642   4.365   4.150 -1.1173 -1.5939  0.2156
   87SOPE  C318 8242   1.855   4.396   4.203 -0.2443  0.1978  0.2786
   87SOPE  H18X 8243   1.934   4.330   4.245 -1.3680 -0.6806  1.0762
   87SOPE  H18Y 8244   1.837   4.480   4.274  1.6593 -0.0822  1.1494
   87SOPE  H18Z 8245   1.895   4.439   4.109 -1.9189  0.8401 -0.1727
   88SOPE     N 8246   1.400   4.349   1.949 -0.1659  0.4845 -0.2283
   88SOPE   HN1 8247   1.455   4.316   2.031  1.3154 -0.9890 -1.7424
   88SOPE   HN2 8248   1.417   4.274   1.879  2.3770 -1.0688  1.8494
   88SOPE   HN3 8249   1.431   4.440   1.908  0.6248  0.0896 -0.5284
   88SOPE   C12 8250   1.253   4.356   1.975 -0.0242  0.8010  0.1554
   88SOPE  H12A 8251   1.221   4.280   2.050  0.4912 -1.1386 -1.4779
   88SOPE  H12B 8252   1.201   4.323   1.882  1.3443 -1.0134 -0.0207
   88SOPE   C11 8253   1.206   4.493   2.020  0.9614  0.4574 -0.3725
   88SOPE  H11A 8254   1.250   4.522   2.118  1.0676  0.2126 -0.3463
   88SOPE  H11B 8255   1.096   4.492   2.031  1.0272  0.0719  0.2930
   88SOPE     P 8256   1.356   4.699   1.932  0.2184  0.0674 -0.2322
   88SOPE   O13 8257   1.321   4.822   1.863 -0.2890  0.1976 -0.6766
   88SOPE   O14 8258   1.473   4.628   1.882 -0.2754 -0.1515  0.1895
   88SOPE   O12 8259   1.231   4.608   1.928  0.0135  0.7274 -0.3342
   88SOPE   O11 8260   1.378   4.727   2.092  0.2756 -0.8031  0.1001
   88SOPE    C1 8261   1.496   4.718   2.162 -0.1191 -0.8359  0.4805
   88SOPE    HA 8262   1.578   4.750   2.094 -0.9831  0.7152  0.1316
   88SOPE    HB 8263   1.524   4.614   2.191 -0.9783 -1.0540  0.5732
   88SOPE    C2 8264   1.496   4.817   2.282 -0.3112 -0.1234  0.1806
   88SOPE    HS 8265   1.603   4.845   2.297 -0.5873  0.0965  1.9675
   88SOPE   O21 8266   1.441   4.759   2.400  0.6675 -0.5436  0.9917
   88SOPE   C21 8267   1.528   4.674   2.457  0.3098 -0.3569 -0.3150
   88SOPE   O22 8268   1.634   4.640   2.409  0.5030  0.0338  0.4012
   88SOPE   C22 8269   1.478   4.620   2.586 -0.4487 -0.2125 -0.0779
   88SOPE   H2R 8270   1.397   4.544   2.590 -1.6647  0.9801 -1.0704
   88SOPE   H2S 8271   1.437   4.711   2.634  0.4198  0.1199  0.0571
   88SOPE    C3 8272   1.440   4.955   2.246 -0.4444 -0.0010  0.1008
   88SOPE    HX 8273   1.359   4.938   2.171  1.5173 -3.2651 -1.5517
   88SOPE    HY 8274   1.525   5.000   2.191  0.3400 -2.6072 -1.0136
   88SOPE   O31 8275   1.407   5.034   2.364  0.0772 -0.3672  1.0646
   88SOPE   C31 8276   1.271   5.056   2.384  0.1462 -0.1132 -0.0235
   88SOPE   O32 8277   1.179   5.008   2.317 -0.9002  0.3480 -0.2240
   88SOPE   C32 8278   1.241   5.151   2.499 -0.0885 -0.1509 -0.1383
   88SOPE   H2X 8279   1.133   5.173   2.490 -0.4016 -1.6318 -0.2281
   88SOPE   H2Y 8280   1.304   5.241   2.483 -1.7877  0.9749 -0.7036
   88SOPE   C23 8281   1.593   4.576   2.688 -0.8521  0.4488 -0.0143
   88SOPE   H3R 8282   1.691   4.619   2.657  0.9492 -3.4297 -0.3530
   88SOPE   H3S 8283   1.603   4.468   2.663  0.5058  0.2741  1.1066
   88SOPE   C24 8284   1.549   4.560   2.835  0.0399 -0.6320  0.3017
   88SOPE   H4R 8285   1.439   4.573   2.841 -0.2649 -1.8224 -1.8122
   88SOPE   H4S 8286   1.585   4.457   2.858  0.5689 -0.2134  1.4209
   88SOPE   C25 8287   1.614   4.663   2.928  0.0958 -0.0371 -0.2597
   88SOPE   H5R 8288   1.597   4.618   3.028  0.6007  1.4013  0.5032
   88SOPE   H5S 8289   1.724   4.666   2.909 -0.0697 -0.3023 -1.3430
   88SOPE   C26 8290   1.547   4.800   2.937 -0.8269 -0.7251  0.0536
   88SOPE   H6R 8291   1.542   4.839   2.833 -1.7087  1.3971  0.8548
   88SOPE   H6S 8292   1.445   4.791   2.980 -0.8041 -1.6211 -0.0636
   88SOPE   C27 8293   1.631   4.893   3.019 -0.1977  0.7129  0.6711
   88SOPE   H7R 8294   1.731   4.890   2.969  0.0229  2.2147  0.9900
   88SOPE   H7S 8295   1.590   4.996   3.024 -0.4863  0.6711 -0.5946
   88SOPE   C28 8296   1.672   4.856   3.167  0.0591 -0.0637  1.0506
   88SOPE   H8R 8297   1.699   4.748   3.173  2.7880  0.4861  0.0065
   88SOPE   H8S 8298   1.762   4.911   3.202  1.2586 -1.3453  0.1236
   88SOPE   C29 8299   1.567   4.896   3.269  0.1011  0.2834  0.1574
   88SOPE   H91 8300   1.529   4.998   3.260 -1.3072 -0.0429  1.9076
   88SOPE  C210 8301   1.536   4.820   3.371  0.4006  0.5067  0.5895
   88SOPE  H101 8302   1.465   4.864   3.443 -0.0495  1.4699 -0.4191
   88SOPE  C211 8303   1.590   4.683   3.413  0.0076  0.3173 -0.4509
   88SOPE  H11R 8304   1.636   4.626   3.329  2.3311  2.2024 -0.5659
   88SOPE  H11S 8305   1.498   4.633   3.451 -0.0128  2.6888  3.1168
   88SOPE  C212 8306   1.694   4.700   3.525  0.0303  0.3633  0.2817
   88SOPE  H12R 8307   1.779   4.765   3.496  1.3820 -0.0038  3.0500
   88SOPE  H12S 8308   1.744   4.602   3.541  0.2621  0.7002  1.8448
   88SOPE  C213 8309   1.640   4.753   3.662 -0.2508 -0.5172 -0.0311
   88SOPE  H13R 8310   1.591   4.852   3.651  2.0007  0.3957 -3.5077
   88SOPE  H13S 8311   1.738   4.773   3.710 -0.4611 -2.2214  1.1835
   88SOPE  C214 8312   1.564   4.642   3.734  0.7215 -0.8839  0.0863
   88SOPE  H14R 8313   1.618   4.546   3.725  1.6161 -0.2613 -1.9503
   88SOPE  H14S 8314   1.474   4.623   3.671  0.6112  1.9351 -0.7322
   88SOPE  C215 8315   1.521   4.689   3.874  0.0106  0.2829  0.9226
   88SOPE  H15R 8316   1.437   4.762   3.867  0.0604  0.3871  1.3452
   88SOPE  H15S 8317   1.598   4.750   3.927 -0.6477  1.4293  0.6058
   88SOPE  C216 8318   1.473   4.572   3.968  0.9048 -0.5672  0.3976
   88SOPE  H16R 8319   1.560   4.523   4.017  1.2796  0.1261  0.4331
   88SOPE  H16S 8320   1.425   4.496   3.903  1.3594  0.1090 -0.7564
   88SOPE  C217 8321   1.375   4.623   4.076  0.2749 -0.4438 -0.7663
   88SOPE  H17R 8322   1.297   4.686   4.030 -0.8758 -0.5308  0.9823
   88SOPE  H17S 8323   1.437   4.679   4.149  0.4596 -2.2900  0.5663
   88SOPE  C218 8324   1.300   4.521   4.167 -0.2664 -0.1967 -0.0187
   88SOPE  H18R 8325   1.360   4.427   4.172 -0.2575 -0.1079  2.1887
   88SOPE  H18S 8326   1.212   4.482   4.112 -0.1147 -0.5750  0.0012
   88SOPE  H18T 8327   1.258   4.565   4.259 -0.2827 -0.2988  0.0231
   88SOPE   C33 8328   1.276   5.090   2.638 -0.6872  0.0218  0.5166
   88SOPE   H3X 8329   1.386   5.082   2.649 -0.6652  1.5587  1.8241
   88SOPE   H3Y 8330   1.237   4.986   2.639  0.5776 -0.4799 -0.2204
   88SOPE   C34 8331   1.215   5.171   2.748 -0.2440  0.0082 -0.3932
   88SOPE   H4X 8332   1.107   5.179   2.726 -0.5610  0.6668  1.2326
   88SOPE   H4Y 8333   1.253   5.275   2.753 -1.7643  0.5326  3.0195
   88SOPE   C35 8334   1.249   5.101   2.886 -0.3518 -0.0097  0.7483
   88SOPE   H5X 8335   1.356   5.075   2.898 -0.4628 -0.8310  0.0876
   88SOPE   H5Y 8336   1.205   4.999   2.879  0.3304 -0.2169 -3.9680
   88SOPE   C36 8337   1.189   5.165   3.003  0.0950 -0.6318  0.7684
   88SOPE   H6X 8338   1.079   5.178   2.998  0.2889  1.0720  0.4059
   88SOPE   H6Y 8339   1.236   5.265   3.013 -1.1913 -0.1332  2.4240
   88SOPE   C37 8340   1.228   5.076   3.124 -0.1834  0.4320  0.3822
   88SOPE   H7X 8341   1.338   5.082   3.115  0.1642 -1.0217  2.6878
   88SOPE   H7Y 8342   1.185   4.974   3.120  1.2572 -0.3289  2.5333
   88SOPE   C38 8343   1.176   5.128   3.258  0.0866  0.2749 -0.2063
   88SOPE   H8X 8344   1.067   5.105   3.253 -0.0656 -1.0579  4.3999
   88SOPE   H8Y 8345   1.192   5.237   3.265 -0.4947  0.3358  0.2995
   88SOPE   C39 8346   1.215   5.046   3.378  0.6519 -0.0347 -0.4193
   88SOPE   H9X 8347   1.326   5.046   3.371  0.7121  1.1029  0.1877
   88SOPE   H9Y 8348   1.176   4.944   3.361  0.1874  0.2939 -1.4015
   88SOPE  C310 8349   1.169   5.104   3.511  0.2716 -0.3148  0.1962
   88SOPE  H10X 8350   1.060   5.128   3.519  0.3038  0.0038 -0.2501
   88SOPE  H10Y 8351   1.213   5.206   3.519 -1.0104  0.5527 -2.4797
   88SOPE  C311 8352   1.208   5.017   3.633  0.0791 -0.6660 -0.3515
   88SOPE  H11X 8353   1.313   4.981   3.620  0.2101  0.1681 -1.8154
   88SOPE  H11Y 8354   1.137   4.932   3.644  2.2550 -2.9262 -2.4993
   88SOPE  C312 8355   1.210   5.082   3.774 -0.4289 -0.7774 -0.4606
   88SOPE  H12X 8356   1.284   5.165   3.773 -1.5556  0.2768  0.2682
   88SOPE  H12Y 8357   1.247   5.007   3.847 -0.1831 -0.1533  0.0658
   88SOPE  C313 8358   1.079   5.135   3.824  0.1082  0.1375 -0.5058
   88SOPE  H13X 8359   1.007   5.059   3.786  2.1098 -0.1698 -4.1770
   88SOPE  H13Y 8360   1.053   5.233   3.777  3.4975  0.9072 -1.0597
   88SOPE  C314 8361   1.058   5.148   3.973 -0.8383  0.3719  0.3273
   88SOPE  H14X 8362   1.133   5.206   4.032 -0.4096  0.0615  0.1003
   88SOPE  H14Y 8363   1.066   5.048   4.021 -0.9144 -1.0984 -2.5169
   88SOPE  C315 8364   0.923   5.198   4.014  0.9224  0.3847 -0.2365
   88SOPE  H15X 8365   0.841   5.135   3.974  2.5204 -1.8037 -0.2058
   88SOPE  H15Y 8366   0.897   5.298   3.972  1.2409  0.4861 -0.1993
   88SOPE  C316 8367   0.917   5.225   4.159  0.8043 -0.3541  0.6824
   88SOPE  H16X 8368   1.009   5.283   4.184  1.4778 -1.1164  0.0232
   88SOPE  H16Y 8369   0.923   5.129   4.216  2.0409 -1.1601 -0.7296
   88SOPE  C317 8370   0.797   5.305   4.215  0.1759  0.9453 -0.0992
   88SOPE  H17X 8371   0.756   5.243   4.298  2.1879  1.0608  1.0408
   88SOPE  H17Y 8372   0.726   5.321   4.131 -2.7489  0.0639  2.0506
   88SOPE  C318 8373   0.836   5.442   4.263  0.2486  0.4659 -0.1182
   88SOPE  H18X 8374   0.875   5.503   4.179 -0.0036  0.1125 -0.4993
   88SOPE  H18Y 8375   0.915   5.434   4.340  0.7898 -0.7780 -0.7852
   88SOPE  H18Z 8376   0.747   5.502   4.293  0.6939  1.3028 -0.4268
   89SAPC     N 8377   4.753   2.867   6.625  0.6200  0.2213  0.1289
   89SAPC   C12 8378   4.811   2.731   6.657  0.3521  0.3980  0.6268
   89SAPC  H12A 8379   4.768   2.683   6.744 -0.4090 -2.1262 -1.0237
   89SAPC  H12B 8380   4.918   2.729   6.674  0.5996  2.5505 -0.3580
   89SAPC   C13 8381   4.767   2.959   6.740  0.3695 -0.2472  0.1902
   89SAPC  H13A 8382   4.753   2.913   6.837 -1.0245 -0.8448 -0.2707
   89SAPC  H13B 8383   4.867   3.001   6.744  0.1352  0.2457  1.9968
   89SAPC  H13C 8384   4.708   3.050   6.739 -0.3272 -0.5480  3.2051
   89SAPC   C14 8385   4.821   2.928   6.505 -0.0339  0.1679 -0.4769
   89SAPC  H14A 8386   4.789   2.879   6.414 -0.4994 -0.3995 -0.0156
   89SAPC  H14B 8387   4.796   3.033   6.502  0.0109  0.2813  1.5849
   89SAPC  H14C 8388   4.928   2.917   6.507 -0.1754 -1.5290 -0.8527
   89SAPC   C15 8389   4.601   2.859   6.604 -0.2827 -0.2066 -0.0709
   89SAPC  H15A 8390   4.543   2.833   6.691 -0.6377  0.5376 -0.0738
   89SAPC  H15B 8391   4.564   2.957   6.578 -0.2926 -0.0878  0.3819
   89SAPC  H15C 8392   4.573   2.800   6.517 -2.3182 -0.2667  0.5772
   89SAPC   C11 8393   4.777   2.632   6.550 -0.5496  0.2139  0.6143
   89SAPC  H11A 8394   4.811   2.670   6.452  1.3283  0.4843  1.3267
   89SAPC  H11B 8395   4.666   2.624   6.545 -0.6306  1.1621  0.7079
   89SAPC     P 8396   4.773   2.375   6.525  0.0005  0.4078  0.0667
   89SAPC   O13 8397   4.857   2.267   6.568 -0.3195  0.1627 -0.0917
   89SAPC   O14 8398   4.633   2.374   6.577  0.7451 -0.4151 -0.3102
   89SAPC   O12 8399   4.836   2.508   6.578  0.8246 -0.1978  0.5914
   89SAPC   O11 8400   4.799   2.400   6.370  0.5054  0.2022 -0.0829
   89SAPC    C1 8401   4.701   2.451   6.282  0.1359 -0.2627  0.0399
   89SAPC    HA 8402   4.623   2.373   6.269  1.1831 -1.3468  0.0838
   89SAPC    HB 8403   4.651   2.538   6.331 -1.2913 -1.5531  0.9522
   89SAPC    C2 8404   4.764   2.475   6.139  0.0540 -0.0656  0.8524
   89SAPC    HS 8405   4.867   2.515   6.150  0.4395 -1.1278  1.2358
   89SAPC   O21 8406   4.686   2.562   6.056  0.0586  0.5004  0.0810
   89SAPC   C21 8407   4.693   2.696   6.102  0.4720  0.8975 -0.1662
   89SAPC   O22 8408   4.768   2.737   6.185 -0.4529  0.0586 -0.0697
   89SAPC   C22 8409   4.598   2.773   6.017  0.3824 -0.1501 -0.5997
   89SAPC   H2R 8410   4.578   2.732   5.916 -2.2676  2.0999 -1.1102
   89SAPC   H2S 8411   4.507   2.794   6.077  0.8709 -2.6505  1.1679
   89SAPC    C3 8412   4.796   2.334   6.065 -0.3701  0.2160  0.4468
   89SAPC    HX 8413   4.698   2.300   6.025 -0.7015  0.4316  1.0638
   89SAPC    HY 8414   4.828   2.255   6.137 -1.8332 -3.1221 -2.2942
   89SAPC   O31 8415   4.880   2.344   5.951 -0.1638 -0.0059  0.3181
   89SAPC   C31 8416   5.014   2.351   5.975 -0.2451 -0.7028  0.2340
   89SAPC   O32 8417   5.072   2.371   6.084  0.4200 -0.6441  0.0857
   89SAPC   C32 8418   5.084   2.348   5.846  0.5295  0.2806 -0.2889
   89SAPC   H2X 8419   5.011   2.378   5.768  0.8748 -0.1255 -0.7790
   89SAPC   H2Y 8420   5.114   2.243   5.825 -1.3883 -0.0501 -1.6748
   89SAPC   C23 8421   4.655   2.910   5.986  0.0182  0.1416  0.3120
   89SAPC   H3R 8422   4.712   2.952   6.071 -0.5568  0.9153  0.3189
   89SAPC   H3S 8423   4.567   2.977   5.979  0.3585  0.7785  1.7945
   89SAPC   C24 8424   4.737   2.918   5.851  0.3488 -0.3972 -0.4848
   89SAPC   H4R 8425   4.758   3.020   5.812 -0.8161 -0.0893 -0.3507
   89SAPC   H4S 8426   4.657   2.878   5.785 -2.1180 -0.5315  2.4084
   89SAPC   C25 8427   4.858   2.826   5.854  0.1931  0.1050 -0.7235
   89SAPC   H5R 8428   4.937   2.867   5.918  0.2990 -0.5822 -0.4174
   89SAPC   C26 8429   4.879   2.706   5.801 -0.4943 -0.0543 -0.1533
   89SAPC   H6R 8430   4.969   2.647   5.823 -1.0429 -1.2136 -0.8884
   89SAPC   C27 8431   4.774   2.633   5.721 -0.4622  0.4073  0.7890
   89SAPC   H7R 8432   4.688   2.692   5.683  0.3976 -0.4217 -2.8328
   89SAPC   H7S 8433   4.726   2.566   5.794 -0.9651  0.5454  0.5862
   89SAPC   C28 8434   4.828   2.556   5.601 -0.6560 -0.5455  0.0111
   89SAPC   H8R 8435   4.855   2.452   5.624  1.1124 -0.2903 -0.7918
   89SAPC   C29 8436   4.880   2.620   5.492  0.9290  0.2315  0.0518
   89SAPC   H9R 8437   4.907   2.556   5.407  2.7002  1.7575 -0.5930
   89SAPC  C210 8438   4.878   2.764   5.456  0.4331 -0.5427 -0.3479
   89SAPC  H10R 8439   4.956   2.789   5.382 -0.5006  0.8527 -0.9162
   89SAPC  H10S 8440   4.903   2.826   5.545 -2.1964  1.0109 -0.5789
   89SAPC  C211 8441   4.739   2.797   5.406 -0.0663 -0.1475 -0.1439
   89SAPC  H11R 8442   4.658   2.815   5.478  0.0986  0.8301 -0.1920
   89SAPC  C212 8443   4.706   2.822   5.281  0.2605  0.1078  0.3973
   89SAPC  H12R 8444   4.597   2.834   5.272  0.5298  1.8967 -0.9449
   89SAPC  C213 8445   4.785   2.811   5.155 -0.5433 -0.2561 -0.0064
   89SAPC  H13R 8446   4.741   2.737   5.084 -0.2521  1.9951 -2.7422
   89SAPC  H13S 8447   4.888   2.781   5.183 -0.9071 -0.4931  1.1190
   89SAPC  C214 8448   4.802   2.943   5.089 -0.6451  0.2350 -0.2412
   89SAPC  H14R 8449   4.744   3.029   5.126 -0.0993  0.9724 -1.0335
   89SAPC  C215 8450   4.876   2.962   4.980  0.9359 -0.2721  0.0155
   89SAPC  H15R 8451   4.889   3.064   4.941  0.7507  0.9604  2.9378
   89SAPC  C216 8452   4.963   2.847   4.931  0.0299  0.0727 -0.3710
   89SAPC  H16R 8453   4.957   2.827   4.822 -1.5347 -0.6859 -0.1686
   89SAPC  H16S 8454   4.935   2.747   4.969  0.1723  0.6738  1.4152
   89SAPC  C217 8455   5.121   2.862   4.951  0.9577  0.5928 -0.1524
   89SAPC  H17R 8456   5.170   2.765   4.930 -1.7910 -0.4862 -2.2538
   89SAPC  H17S 8457   5.128   2.871   5.061  0.9537  1.6936 -0.2234
   89SAPC  C218 8458   5.184   2.975   4.873  0.4348  0.4963 -0.2846
   89SAPC  H18R 8459   5.286   2.990   4.916  0.0154 -1.3460  1.5325
   89SAPC  H18S 8460   5.130   3.069   4.896  1.4128  0.9508  0.2531
   89SAPC  C219 8461   5.195   2.944   4.720  0.2637  0.0503 -0.0514
   89SAPC  H19R 8462   5.270   3.017   4.685 -1.3739  2.6888  1.5702
   89SAPC  H19S 8463   5.104   2.965   4.660  2.6394  2.2970 -3.1780
   89SAPC  C220 8464   5.242   2.802   4.675  0.1329 -0.5848  0.2485
   89SAPC  H20R 8465   5.164   2.723   4.677 -1.7899  1.2334  1.2489
   89SAPC  H20S 8466   5.330   2.762   4.729  0.1253 -1.1141 -0.1180
   89SAPC  H20T 8467   5.263   2.798   4.565 -0.1824 -1.0179  0.2048
   89SAPC   C33 8468   5.200   2.442   5.846  0.4177 -0.1676  0.7542
   89SAPC   H3X 8469   5.262   2.415   5.933 -0.7211 -1.1915  1.2743
   89SAPC   H3Y 8470   5.166   2.548   5.853 -1.3710 -0.7772  2.2334
   89SAPC   C34 8471   5.285   2.411   5.721 -0.6282 -0.1691 -0.0039
   89SAPC   H4X 8472   5.297   2.301   5.714  0.8356 -0.1097  0.9297
   89SAPC   H4Y 8473   5.384   2.458   5.739 -2.3759  4.2689 -0.6752
   89SAPC   C35 8474   5.221   2.471   5.595 -0.0899  0.0148  1.2023
   89SAPC   H5X 8475   5.213   2.581   5.609  1.4790  0.1592  1.1669
   89SAPC   H5Y 8476   5.115   2.438   5.588 -0.7773  2.3557 -1.3998
   89SAPC   C36 8477   5.287   2.441   5.463  0.6925  0.5577  0.2666
   89SAPC   H6X 8478   5.316   2.335   5.478  0.1388  0.6543  2.2748
   89SAPC   H6Y 8479   5.378   2.503   5.447  0.8896  0.1353 -0.2717
   89SAPC   C37 8480   5.204   2.470   5.334 -0.3136  0.5180 -0.0795
   89SAPC   H7X 8481   5.183   2.579   5.337  1.4103  0.8773 -0.2580
   89SAPC   H7Y 8482   5.111   2.410   5.340 -0.9207  1.5757  2.7693
   89SAPC   C38 8483   5.279   2.436   5.199 -0.2646 -0.5036  0.4089
   89SAPC   H8X 8484   5.386   2.467   5.206 -0.6390  0.3797  3.4178
   89SAPC   H8Y 8485   5.234   2.506   5.126  1.1467 -1.1530 -1.1644
   89SAPC   C39 8486   5.253   2.307   5.132 -0.0802  0.5719 -0.2199
   89SAPC   H9X 8487   5.144   2.286   5.122  0.4906 -2.0323 -1.6753
   89SAPC   H9Y 8488   5.297   2.227   5.195 -0.7812  0.8727  0.6912
   89SAPC  C310 8489   5.321   2.283   4.995 -0.4341  0.7748  0.9186
   89SAPC  H10X 8490   5.274   2.193   4.950 -0.4606  1.0731  0.3503
   89SAPC  H10Y 8491   5.430   2.261   4.993 -0.5452  0.1046 -2.0763
   89SAPC  C311 8492   5.293   2.384   4.886  0.4658  0.2280  0.6184
   89SAPC  H11X 8493   5.383   2.446   4.862  0.3091 -0.2126 -1.2130
   89SAPC  H11Y 8494   5.204   2.447   4.907 -1.8014 -1.8142 -2.1560
   89SAPC  C312 8495   5.265   2.323   4.745  0.2981 -0.0116  0.1470
   89SAPC  H12X 8496   5.243   2.404   4.672 -2.7505 -0.4666  0.4252
   89SAPC  H12Y 8497   5.171   2.265   4.758 -1.4879  2.4166 -1.0312
   89SAPC  C313 8498   5.378   2.245   4.684 -0.1766  0.2582 -0.3662
   89SAPC  H13X 8499   5.378   2.145   4.731  3.2924  0.0993 -0.4738
   89SAPC  H13Y 8500   5.479   2.280   4.711 -0.3550  0.6097 -0.1521
   89SAPC  C314 8501   5.369   2.235   4.536 -0.9213  0.1211 -0.2291
   89SAPC  H14X 8502   5.346   2.335   4.494 -0.2506  0.0595 -0.7706
   89SAPC  H14Y 8503   5.269   2.190   4.521 -1.4721  1.4816 -0.7902
   89SAPC  C315 8504   5.480   2.154   4.469 -0.0972 -0.4089  0.0067
   89SAPC  H15X 8505   5.500   2.069   4.536 -0.2545  0.8707  1.7411
   89SAPC  H15Y 8506   5.578   2.205   4.459 -0.4677  0.5357  1.0103
   89SAPC  C316 8507   5.439   2.118   4.329  0.1087  0.9750  0.0001
   89SAPC  H16X 8508   5.408   2.202   4.263  1.1318  0.4569 -1.1983
   89SAPC  H16Y 8509   5.361   2.040   4.337 -0.2896  1.5224  2.0572
   89SAPC  C317 8510   5.562   2.067   4.247  0.0882  0.2015 -0.4254
   89SAPC  H17X 8511   5.620   1.994   4.306 -1.4276 -0.3369  0.4666
   89SAPC  H17Y 8512   5.629   2.153   4.228  2.8796 -1.7619 -0.1078
   89SAPC  C318 8513   5.515   2.018   4.104 -0.3116 -0.1103 -0.2582
   89SAPC  H18X 8514   5.492   2.109   4.043  2.5094 -0.0539 -1.3726
   89SAPC  H18Y 8515   5.439   1.937   4.103  0.8731 -1.2675 -1.8723
   89SAPC  H18Z 8516   5.607   1.975   4.059 -0.8409 -2.3799  0.6793
   90SAPC     N 8517   2.064   5.920   6.542  0.0286 -0.5286  0.1485
   90SAPC   C12 8518   2.187   5.916   6.447  0.9558  0.5430 -0.9158
   90SAPC  H12A 8519   2.158   5.845   6.370 -1.9653 -1.4865  1.7599
   90SAPC  H12B 8520   2.271   5.881   6.504 -0.5167 -0.2070  0.9240
   90SAPC   C13 8521   2.044   5.781   6.591  0.1661  0.0635 -0.8932
   90SAPC  H13A 8522   2.128   5.760   6.655 -0.4152 -1.0580 -0.4658
   90SAPC  H13B 8523   1.950   5.775   6.644  0.8558  1.0094  0.4690
   90SAPC  H13C 8524   2.038   5.718   6.503  0.2395 -0.0605 -0.8081
   90SAPC   C14 8525   2.075   6.011   6.660  0.4937  0.0610 -0.6611
   90SAPC  H14A 8526   1.983   6.029   6.714  0.9179  0.0184  0.0906
   90SAPC  H14B 8527   2.149   5.969   6.726 -1.1891 -1.4313  0.4032
   90SAPC  H14C 8528   2.103   6.111   6.630  0.9967  0.0030 -0.3858
   90SAPC   C15 8529   1.950   5.963   6.459 -0.1751  1.3463  0.8029
   90SAPC  H15A 8530   1.855   5.947   6.508  0.1959 -0.4662  1.0104
   90SAPC  H15B 8531   1.949   6.067   6.431  1.6022  1.4504  1.0239
   90SAPC  H15C 8532   1.958   5.901   6.371  1.1191 -0.0841  1.8792
   90SAPC   C11 8533   2.219   6.042   6.366 -0.0027 -0.0440  0.2855
   90SAPC  H11A 8534   2.324   6.038   6.332  0.0115  0.7192  0.2340
   90SAPC  H11B 8535   2.215   6.128   6.436  1.9157  0.0251  0.3643
   90SAPC     P 8536   2.124   6.194   6.181 -0.0237  0.5680 -0.3508
   90SAPC   O13 8537   2.058   6.171   6.059  0.0782  0.0583  0.3635
   90SAPC   O14 8538   2.074   6.307   6.269  0.1108 -0.2478  0.4338
   90SAPC   O12 8539   2.130   6.056   6.254  0.1235 -0.3676  0.0758
   90SAPC   O11 8540   2.280   6.217   6.153 -0.2983 -0.4471  0.0538
   90SAPC    C1 8541   2.339   6.160   6.036  0.6348 -0.5310 -0.1747
   90SAPC    HA 8542   2.431   6.100   6.054  1.6645  0.9993 -0.1186
   90SAPC    HB 8543   2.277   6.088   5.980 -0.3099  0.3627 -0.3041
   90SAPC    C2 8544   2.380   6.272   5.941  0.1258 -0.0006  0.0750
   90SAPC    HS 8545   2.302   6.351   5.935  0.6142  0.7941  2.8928
   90SAPC   O21 8546   2.406   6.209   5.815 -0.6743  0.3700  0.2666
   90SAPC   C21 8547   2.372   6.272   5.700 -0.7381  0.1871 -0.1462
   90SAPC   O22 8548   2.309   6.377   5.695 -0.0722 -0.1285  0.0613
   90SAPC   C22 8549   2.443   6.206   5.581  0.5354  0.4199  0.1305
   90SAPC   H2R 8550   2.524   6.139   5.619 -1.4235 -1.4290  1.2776
   90SAPC   H2S 8551   2.370   6.139   5.530  0.1838  2.2721 -1.9242
   90SAPC    C3 8552   2.497   6.355   5.995  0.3588 -0.1668 -0.3913
   90SAPC    HX 8553   2.581   6.282   6.003  0.4593 -0.0200 -0.0701
   90SAPC    HY 8554   2.476   6.385   6.100 -0.3925 -1.1867 -0.2395
   90SAPC   O31 8555   2.521   6.465   5.904  0.0433  0.2447 -0.6632
   90SAPC   C31 8556   2.640   6.519   5.916  0.7679  0.2369  0.2287
   90SAPC   O32 8557   2.717   6.497   6.001 -0.6421  0.2322 -0.5665
   90SAPC   C32 8558   2.662   6.606   5.784  0.2783  0.7281 -0.2048
   90SAPC   H2X 8559   2.628   6.710   5.803 -0.0327  0.6369 -0.2645
   90SAPC   H2Y 8560   2.586   6.566   5.715  0.2358 -0.2250  0.3867
   90SAPC   C23 8561   2.497   6.313   5.491 -0.2504  0.5334 -0.2962
   90SAPC   H3R 8562   2.548   6.392   5.550 -0.4148  0.1605  0.3505
   90SAPC   H3S 8563   2.424   6.357   5.419 -0.4823 -1.6774 -1.5036
   90SAPC   C24 8564   2.605   6.259   5.391 -0.4625  0.5757  0.8804
   90SAPC   H4R 8565   2.688   6.222   5.456 -0.8095 -1.1737  0.3851
   90SAPC   H4S 8566   2.650   6.349   5.343 -0.0675  0.8316  1.7053
   90SAPC   C25 8567   2.554   6.158   5.303 -0.1002  0.2750 -0.0402
   90SAPC   H5R 8568   2.566   6.057   5.345  0.0635  0.3392  0.0691
   90SAPC   C26 8569   2.511   6.169   5.175  0.2476 -0.7654 -0.0063
   90SAPC   H6R 8570   2.465   6.080   5.130 -2.7792  0.8281 -0.2680
   90SAPC   C27 8571   2.502   6.289   5.084  0.3647  0.0002 -0.0590
   90SAPC   H7R 8572   2.448   6.364   5.145 -2.0312 -1.5558 -0.1407
   90SAPC   H7S 8573   2.442   6.258   4.995  2.4629 -0.9496 -1.2157
   90SAPC   C28 8574   2.632   6.329   5.022 -0.3627 -0.3136  0.1626
   90SAPC   H8R 8575   2.713   6.257   5.042  1.4024  1.4732 -0.2326
   90SAPC   C29 8576   2.655   6.431   4.935 -0.2440 -0.1908  0.0112
   90SAPC   H9R 8577   2.761   6.445   4.911 -0.1305  2.3925  1.6229
   90SAPC  C210 8578   2.554   6.543   4.904  0.3167  0.1787  0.6610
   90SAPC  H10R 8579   2.448   6.529   4.933  0.8940  1.2166  3.5203
   90SAPC  H10S 8580   2.559   6.557   4.793  1.0709  1.5712  0.8559
   90SAPC  C211 8581   2.599   6.663   4.983 -0.3384  0.3978  0.7047
   90SAPC  H11R 8582   2.588   6.650   5.092  1.6286 -0.4614  0.8521
   90SAPC  C212 8583   2.646   6.777   4.938  0.0892 -0.5645 -0.7299
   90SAPC  H12R 8584   2.678   6.855   5.009 -1.0659 -0.1435 -0.6480
   90SAPC  C213 8585   2.669   6.809   4.795  0.6907 -0.3333  0.4808
   90SAPC  H13R 8586   2.599   6.892   4.772  0.0003 -1.1735 -0.5395
   90SAPC  H13S 8587   2.640   6.721   4.734  0.5858  0.8108 -1.1822
   90SAPC  C214 8588   2.816   6.854   4.776  0.5509 -0.0856 -0.2313
   90SAPC  H14R 8589   2.875   6.875   4.866  0.6744  2.5176 -0.8285
   90SAPC  C215 8590   2.868   6.898   4.656 -0.1710 -0.6592  0.2646
   90SAPC  H15R 8591   2.974   6.925   4.650 -0.3056 -0.0719  0.4696
   90SAPC  C216 8592   2.797   6.896   4.525 -0.2870  0.0125  0.1172
   90SAPC  H16R 8593   2.812   6.996   4.479 -0.5432 -0.9523 -2.2263
   90SAPC  H16S 8594   2.688   6.895   4.548 -0.5355 -3.7602 -0.5743
   90SAPC  C217 8595   2.831   6.782   4.424 -0.6934 -0.8585  0.2484
   90SAPC  H17R 8596   2.823   6.681   4.469 -0.5986 -1.5060 -1.1499
   90SAPC  H17S 8597   2.935   6.807   4.392 -0.8673  0.7230  0.8197
   90SAPC  C218 8598   2.744   6.781   4.294 -0.7872 -0.3207 -0.3207
   90SAPC  H18R 8599   2.640   6.769   4.329 -1.5812  0.4300 -2.2792
   90SAPC  H18S 8600   2.747   6.689   4.231 -0.3428 -0.4043 -0.1787
   90SAPC  C219 8601   2.761   6.909   4.199  0.1663 -0.1190  0.1530
   90SAPC  H19R 8602   2.856   6.963   4.220 -1.0044  1.7487  0.9363
   90SAPC  H19S 8603   2.682   6.982   4.227 -1.1701  0.0671 -3.6414
   90SAPC  C220 8604   2.763   6.863   4.049 -0.4442 -0.2792 -0.1819
   90SAPC  H20R 8605   2.844   6.787   4.042  0.3480  0.5121  0.3564
   90SAPC  H20S 8606   2.776   6.955   3.988 -1.4494 -0.6479 -0.9951
   90SAPC  H20T 8607   2.661   6.821   4.030 -1.0171  0.6888  0.6619
   90SAPC   C33 8608   2.806   6.598   5.731 -0.4097 -0.0482 -0.0990
   90SAPC   H3X 8609   2.830   6.495   5.698 -1.2525 -0.4672  0.5651
   90SAPC   H3Y 8610   2.881   6.624   5.809  1.7109 -0.8289 -1.8012
   90SAPC   C34 8611   2.833   6.686   5.614 -1.1720 -0.3314  0.2413
   90SAPC   H4X 8612   2.941   6.709   5.600 -1.1329 -1.5640 -1.7603
   90SAPC   H4Y 8613   2.794   6.789   5.632 -1.3704 -0.7389  2.3468
   90SAPC   C35 8614   2.762   6.631   5.486 -0.2232  0.5719  0.2387
   90SAPC   H5X 8615   2.657   6.600   5.506  0.0391 -0.0949  0.6110
   90SAPC   H5Y 8616   2.817   6.540   5.453  0.9329  0.8761  1.2578
   90SAPC   C36 8617   2.765   6.733   5.368 -1.0422  0.3822 -0.8812
   90SAPC   H6X 8618   2.719   6.690   5.276 -0.0599 -1.0680 -0.7400
   90SAPC   H6Y 8619   2.874   6.740   5.345 -0.6696  0.1398  0.7318
   90SAPC   C37 8620   2.704   6.873   5.394  0.9934  0.2835  0.0002
   90SAPC   H7X 8621   2.772   6.916   5.471 -0.0545 -1.0330  1.7522
   90SAPC   H7Y 8622   2.605   6.848   5.438  0.3217 -0.3832 -1.8098
   90SAPC   C38 8623   2.695   6.966   5.274  0.5032 -0.2392  0.3559
   90SAPC   H8X 8624   2.611   6.940   5.207 -0.9090  2.6545  0.8597
   90SAPC   H8Y 8625   2.790   6.954   5.218 -0.3048 -0.9998 -0.9065
   90SAPC   C39 8626   2.691   7.114   5.317  0.0091 -0.1037 -0.4318
   90SAPC   H9X 8627   2.787   7.131   5.371  0.9459 -1.7212 -1.5176
   90SAPC   H9Y 8628   2.611   7.129   5.393  1.0682  0.4624  0.5996
   90SAPC  C310 8629   2.681   7.209   5.196 -0.0598 -0.1275  0.2800
   90SAPC  H10X 8630   2.768   7.198   5.128 -0.0138 -2.9402  0.6743
   90SAPC  H10Y 8631   2.684   7.314   5.232  3.0941  0.1240 -0.4234
   90SAPC  C311 8632   2.545   7.188   5.118  0.0627  0.1478  0.7860
   90SAPC  H11X 8633   2.460   7.221   5.180 -1.5733 -1.2254 -0.6274
   90SAPC  H11Y 8634   2.525   7.085   5.084 -1.1275  1.0409 -1.4749
   90SAPC  C312 8635   2.553   7.256   4.981  0.3810 -0.2117 -0.5214
   90SAPC  H12X 8636   2.650   7.214   4.944  3.1155  1.3069  4.1582
   90SAPC  H12Y 8637   2.567   7.366   4.977  1.5444 -0.3698 -1.4984
   90SAPC  C313 8638   2.425   7.231   4.889  0.2004  0.4582  0.2414
   90SAPC  H13X 8639   2.327   7.261   4.933 -0.9709  0.0172 -1.9382
   90SAPC  H13Y 8640   2.415   7.123   4.869  1.2234  0.8119 -2.6029
   90SAPC  C314 8641   2.437   7.305   4.761 -0.7139 -0.4719 -0.1311
   90SAPC  H14X 8642   2.543   7.336   4.750 -1.0276  1.2878  1.3916
   90SAPC  H14Y 8643   2.388   7.405   4.761  1.9643  0.9406  0.9172
   90SAPC  C315 8644   2.379   7.225   4.642  0.5055 -0.1477 -0.4862
   90SAPC  H15X 8645   2.392   7.288   4.551 -1.0360  0.3599 -0.3904
   90SAPC  H15Y 8646   2.270   7.206   4.649  0.8721 -2.4686 -0.3933
   90SAPC  C316 8647   2.453   7.096   4.603  0.2985  0.4963  0.4412
   90SAPC  H16X 8648   2.435   7.028   4.688 -0.2088 -0.4178 -0.3830
   90SAPC  H16Y 8649   2.562   7.116   4.598  0.7088 -1.3871  1.0039
   90SAPC  C317 8650   2.418   7.037   4.468 -0.1046 -0.0971  0.2143
   90SAPC  H17X 8651   2.462   6.935   4.460  0.0006 -0.3671  3.0008
   90SAPC  H17Y 8652   2.462   7.098   4.387  2.9207 -0.6250  1.3029
   90SAPC  C318 8653   2.264   7.032   4.450 -0.2125  0.6007 -0.1770
   90SAPC  H18X 8654   2.225   6.981   4.541  0.7637  1.2995  0.6496
   90SAPC  H18Y 8655   2.234   6.968   4.364 -0.6808  0.0635  0.3825
   90SAPC  H18Z 8656   2.226   7.136   4.443 -1.0132  0.3132 -0.2586
   91SAPC     N 8657   5.903   5.896   6.597 -0.8642  0.0970 -0.3568
   91SAPC   C12 8658   5.906   5.952   6.455 -0.6528 -0.3192 -0.0578
   91SAPC  H12A 8659   6.007   5.949   6.419 -0.4933  0.5493  0.3008
   91SAPC  H12B 8660   5.877   6.056   6.459  0.8726  0.0983  0.6168
   91SAPC   C13 8661   5.943   5.744   6.597  0.8596 -0.0567 -0.6551
   91SAPC  H13A 8662   5.915   5.706   6.694 -2.4007 -1.4385 -1.9622
   91SAPC  H13B 8663   5.872   5.689   6.536  0.5085 -0.7285  0.3310
   91SAPC  H13C 8664   6.041   5.717   6.560  1.9665  1.2931  1.1329
   91SAPC   C14 8665   6.009   5.960   6.679 -0.4434  0.1635 -0.5444
   91SAPC  H14A 8666   6.108   5.935   6.644 -0.5655 -1.5997  0.2396
   91SAPC  H14B 8667   5.998   6.064   6.705  0.6460  0.1951 -0.1559
   91SAPC  H14C 8668   6.009   5.901   6.770  0.7307 -3.1691 -2.5387
   91SAPC   C15 8669   5.774   5.926   6.657  0.0914 -0.5965  0.6662
   91SAPC  H15A 8670   5.756   6.031   6.672  1.1849 -0.4826  1.2892
   91SAPC  H15B 8671   5.698   5.893   6.587 -0.9202  2.0522  0.4142
   91SAPC  H15C 8672   5.759   5.869   6.747  0.2073 -4.2328 -1.3984
   91SAPC   C11 8673   5.825   5.876   6.354  0.8028  0.2974  0.0866
   91SAPC  H11A 8674   5.859   5.770   6.351  0.2608  0.1075  0.5745
   91SAPC  H11B 8675   5.860   5.915   6.256  1.8028 -0.8969 -0.0639
   91SAPC     P 8676   5.587   5.764   6.361 -0.4803 -0.0519 -0.4333
   91SAPC   O13 8677   5.648   5.640   6.406  0.4703 -0.1031  0.2802
   91SAPC   O14 8678   5.459   5.788   6.428  0.5226  0.2898  0.3155
   91SAPC   O12 8679   5.683   5.894   6.386  0.5955 -0.1677 -0.0515
   91SAPC   O11 8680   5.559   5.745   6.208 -0.9802 -0.4036  0.4789
   91SAPC    C1 8681   5.514   5.850   6.126  0.2380  0.5416  0.3047
   91SAPC    HA 8682   5.444   5.916   6.181 -2.8958  0.6766 -3.3827
   91SAPC    HB 8683   5.590   5.923   6.092  0.5595  1.9083  3.5663
   91SAPC    C2 8684   5.423   5.797   6.007  0.6200 -0.1931  0.2662
   91SAPC    HS 8685   5.365   5.720   6.062 -0.8725  2.3543  2.5472
   91SAPC   O21 8686   5.503   5.739   5.899  0.0619  0.3638  0.3137
   91SAPC   C21 8687   5.453   5.621   5.850 -0.6643 -1.0332  0.2934
   91SAPC   O22 8688   5.353   5.564   5.886  0.3230  0.3994 -0.1701
   91SAPC   C22 8689   5.555   5.564   5.755  1.0880  0.0728 -0.1273
   91SAPC   H2R 8690   5.636   5.523   5.819  0.5200 -0.7706  0.0759
   91SAPC   H2S 8691   5.514   5.473   5.707  2.4579  0.1576 -1.5211
   91SAPC    C3 8692   5.328   5.911   5.956 -0.0493 -0.6064 -0.4802
   91SAPC    HX 8693   5.381   6.001   5.919 -0.0806 -0.9021 -1.2563
   91SAPC    HY 8694   5.276   5.956   6.043  1.1380 -0.6089  0.2521
   91SAPC   O31 8695   5.245   5.875   5.845  0.3795  0.1431  0.3111
   91SAPC   C31 8696   5.144   5.805   5.874  0.4768 -0.4604 -0.4135
   91SAPC   O32 8697   5.094   5.794   5.987 -0.2017  0.8845  0.3765
   91SAPC   C32 8698   5.084   5.757   5.737 -0.0275  0.0921  0.4864
   91SAPC   H2X 8699   4.992   5.812   5.708 -0.4947 -0.3342  1.1293
   91SAPC   H2Y 8700   5.071   5.647   5.747 -1.7724  0.1889 -0.3129
   91SAPC   C23 8701   5.615   5.664   5.653  0.2527 -0.4279  0.4811
   91SAPC   H3R 8702   5.694   5.715   5.712 -0.5263 -0.1143  1.2906
   91SAPC   H3S 8703   5.534   5.725   5.609  0.3992 -1.0433 -0.6697
   91SAPC   C24 8704   5.680   5.598   5.531 -0.0543 -1.4043 -0.0911
   91SAPC   H4R 8705   5.615   5.523   5.482 -1.7907 -0.3538  0.5147
   91SAPC   H4S 8706   5.775   5.553   5.566 -0.2505 -2.4167 -0.7962
   91SAPC   C25 8707   5.717   5.703   5.432 -0.7978  0.4336  0.2811
   91SAPC   H5R 8708   5.788   5.779   5.468 -0.3539 -0.0536  0.4356
   91SAPC   C26 8709   5.659   5.713   5.309  0.0252 -1.0233  0.7067
   91SAPC   H6R 8710   5.720   5.777   5.244 -1.3639  0.5884  0.9354
   91SAPC   C27 8711   5.545   5.632   5.253 -0.0301 -0.2007  0.3372
   91SAPC   H7R 8712   5.465   5.704   5.224  1.1910  0.5142 -1.4498
   91SAPC   H7S 8713   5.509   5.553   5.322 -0.7805 -0.8349 -0.7330
   91SAPC   C28 8714   5.585   5.558   5.127  0.0257 -0.3811  0.2094
   91SAPC   H8R 8715   5.609   5.453   5.149 -1.4461 -0.6686  0.5417
   91SAPC   C29 8716   5.599   5.610   4.998  0.7513 -0.4566  0.8201
   91SAPC   H9R 8717   5.644   5.556   4.913  0.2754  1.0396 -0.4477
   91SAPC  C210 8718   5.583   5.755   4.955 -0.1700  0.4005  0.3927
   91SAPC  H10R 8719   5.680   5.787   4.911  0.3420  1.4195  2.1829
   91SAPC  H10S 8720   5.572   5.829   5.037  3.8571  1.9355 -0.2358
   91SAPC  C211 8721   5.471   5.773   4.850 -0.4225 -0.1094  0.6345
   91SAPC  H11R 8722   5.374   5.735   4.886 -0.9666  1.4645  0.9110
   91SAPC  C212 8723   5.487   5.830   4.728 -0.3184  0.2852  0.2878
   91SAPC  H12R 8724   5.392   5.826   4.673 -0.5282  0.4152  0.6367
   91SAPC  C213 8725   5.615   5.884   4.664 -0.0822 -0.7547  0.1566
   91SAPC  H13R 8726   5.710   5.873   4.720 -0.1031  0.7666  0.5296
   91SAPC  H13S 8727   5.612   5.993   4.641  3.3997 -0.4950  0.4618
   91SAPC  C214 8728   5.619   5.794   4.538 -0.4078 -0.1345 -0.2790
   91SAPC  H14R 8729   5.619   5.685   4.551  1.5526 -0.2141 -0.6391
   91SAPC  C215 8730   5.648   5.843   4.418 -0.2617  0.3141  0.3630
   91SAPC  H15R 8731   5.653   5.767   4.339 -1.1093  0.0365  0.5653
   91SAPC  C216 8732   5.668   5.982   4.380 -0.1831 -0.3981 -0.3185
   91SAPC  H16R 8733   5.692   5.987   4.271 -0.6001  0.3056 -0.3862
   91SAPC  H16S 8734   5.761   6.023   4.424  0.1589 -0.4358 -0.9804
   91SAPC  C217 8735   5.543   6.074   4.393  0.4784  0.2144  0.5736
   91SAPC  H17R 8736   5.543   6.098   4.501 -3.3096  0.8969  0.5563
   91SAPC  H17S 8737   5.448   6.022   4.368  0.4882 -0.5280  1.9993
   91SAPC  C218 8738   5.546   6.210   4.313 -0.0441 -0.0472  0.0459
   91SAPC  H18R 8739   5.647   6.253   4.328 -0.7032  1.3473  0.6628
   91SAPC  H18S 8740   5.467   6.282   4.344 -1.9784 -2.5515  1.3497
   91SAPC  C219 8741   5.523   6.184   4.166  0.3667 -0.0232 -0.6599
   91SAPC  H19R 8742   5.418   6.147   4.157  0.6677 -1.4039  0.9999
   91SAPC  H19S 8743   5.584   6.106   4.116 -1.2129 -0.1404 -2.5489
   91SAPC  C220 8744   5.525   6.311   4.073  0.3847 -0.3726 -0.0274
   91SAPC  H20R 8745   5.622   6.361   4.094 -0.3774  1.3576 -0.4781
   91SAPC  H20S 8746   5.446   6.385   4.101 -0.1983 -1.1327  0.3924
   91SAPC  H20T 8747   5.521   6.287   3.965 -3.6136 -1.4512  0.1754
   91SAPC   C33 8748   5.191   5.778   5.614  0.2822  0.6699 -0.5575
   91SAPC   H3X 8749   5.292   5.753   5.654 -0.0608  0.2874  0.1023
   91SAPC   H3Y 8750   5.207   5.885   5.592  1.0145  0.5614 -0.5568
   91SAPC   C34 8751   5.153   5.690   5.494  0.0839  0.1393 -0.3746
   91SAPC   H4X 8752   5.135   5.587   5.531  1.4950  0.5291  1.5107
   91SAPC   H4Y 8753   5.237   5.694   5.423  1.7501  1.6650  1.5718
   91SAPC   C35 8754   5.029   5.729   5.404 -0.5753 -0.1414  0.1252
   91SAPC   H5X 8755   5.050   5.829   5.360 -0.9975  0.8613  2.1035
   91SAPC   H5Y 8756   4.936   5.731   5.465  0.3594 -1.9408  1.7075
   91SAPC   C36 8757   5.007   5.623   5.293 -0.7106  0.1740 -0.1502
   91SAPC   H6X 8758   4.902   5.634   5.256 -0.2476 -0.1302 -1.6500
   91SAPC   H6Y 8759   5.022   5.523   5.339 -0.2581 -0.2678 -1.2310
   91SAPC   C37 8760   5.096   5.639   5.164 -0.2200 -0.2410 -0.7032
   91SAPC   H7X 8761   5.202   5.616   5.190 -0.9428 -2.7098  0.3193
   91SAPC   H7Y 8762   5.101   5.747   5.140 -0.2951 -0.0078  0.3107
   91SAPC   C38 8763   5.030   5.572   5.040  0.2902  0.0553  0.0466
   91SAPC   H8X 8764   4.930   5.618   5.033  0.3288  0.3614  1.3718
   91SAPC   H8Y 8765   5.025   5.461   5.051  0.4239  0.0271 -0.1534
   91SAPC   C39 8766   5.105   5.606   4.904  0.3214  0.2157  0.1350
   91SAPC   H9X 8767   5.211   5.581   4.923  0.1738 -0.2771  0.3277
   91SAPC   H9Y 8768   5.091   5.711   4.871 -1.2601  0.5127  1.6056
   91SAPC  C310 8769   5.051   5.517   4.796 -0.0460 -0.5260  0.9510
   91SAPC  H10X 8770   4.949   5.545   4.762  0.4664 -1.1506 -1.2038
   91SAPC  H10Y 8771   5.042   5.410   4.822 -0.5228 -0.3540  1.5206
   91SAPC  C311 8772   5.126   5.517   4.663  0.4355  0.2606 -0.5405
   91SAPC  H11X 8773   5.217   5.455   4.675  0.1289 -0.0818  0.0862
   91SAPC  H11Y 8774   5.152   5.624   4.644  0.4938  0.2512 -0.5151
   91SAPC  C312 8775   5.038   5.453   4.548  0.3044 -0.8465  0.4467
   91SAPC  H12X 8776   4.972   5.533   4.507  1.7307  0.8147  1.2597
   91SAPC  H12Y 8777   4.978   5.380   4.606  2.4890 -1.1190  2.4823
   91SAPC  C313 8778   5.119   5.384   4.437  0.1727 -0.5280  0.4459
   91SAPC  H13X 8779   5.170   5.292   4.474 -0.3717 -0.9492  0.1611
   91SAPC  H13Y 8780   5.190   5.450   4.383  0.4309 -0.2270  1.1340
   91SAPC  C314 8781   5.013   5.332   4.329  0.1968 -0.6242 -0.2824
   91SAPC  H14X 8782   5.071   5.286   4.246 -2.2320 -2.3144 -1.1596
   91SAPC  H14Y 8783   4.969   5.426   4.290 -0.0867 -0.3576  0.6649
   91SAPC  C315 8784   4.913   5.238   4.391 -0.4614  0.0845 -0.0925
   91SAPC  H15X 8785   4.839   5.290   4.456 -2.8218 -0.6162 -2.0842
   91SAPC  H15Y 8786   4.963   5.164   4.458 -0.6705  1.7677  2.0459
   91SAPC  C316 8787   4.836   5.163   4.282 -0.0269 -0.2022 -0.2255
   91SAPC  H16X 8788   4.785   5.247   4.229 -0.5181  0.3627  1.1048
   91SAPC  H16Y 8789   4.749   5.110   4.325  0.8043 -0.6803  0.8946
   91SAPC  C317 8790   4.905   5.062   4.193 -0.4996  0.2986 -0.9788
   91SAPC  H17X 8791   4.946   4.980   4.256  0.7550  2.3925  1.0577
   91SAPC  H17Y 8792   4.993   5.108   4.144  0.7880 -1.2903 -0.2684
   91SAPC  C318 8793   4.813   4.991   4.090 -0.1043  0.1869  0.3436
   91SAPC  H18X 8794   4.766   5.070   4.026  2.2690  0.2129 -1.4897
   91SAPC  H18Y 8795   4.736   4.942   4.153 -0.1279  1.9249  1.7357
   91SAPC  H18Z 8796   4.874   4.926   4.024  0.3632  2.4992 -1.6681
   92SAPC     N 8797   0.094   2.555   6.164 -0.2586 -0.1166  0.2067
   92SAPC   C12 8798  -0.056   2.529   6.147  0.5170 -0.0345 -0.2758
   92SAPC  H12A 8799  -0.104   2.520   6.244  3.3360  0.1846  1.2486
   92SAPC  H12B 8800  -0.067   2.432   6.101  2.0270  0.1320 -1.0398
   92SAPC   C13 8801   0.127   2.669   6.258 -0.1342 -0.4797 -0.1143
   92SAPC  H13A 8802   0.231   2.696   6.250 -0.1788  0.2699  1.4678
   92SAPC  H13B 8803   0.066   2.756   6.237  0.1410 -0.3964 -0.5718
   92SAPC  H13C 8804   0.129   2.636   6.361 -0.8605  0.5140  0.2377
   92SAPC   C14 8805   0.173   2.444   6.203 -0.1632  0.0433 -0.1057
   92SAPC  H14A 8806   0.190   2.371   6.125  0.5924 -1.0104  0.9997
   92SAPC  H14B 8807   0.271   2.461   6.245  0.4970 -0.3003 -1.4408
   92SAPC  H14C 8808   0.132   2.389   6.286  0.4253 -0.6316 -0.2428
   92SAPC   C15 8809   0.150   2.607   6.033  0.5707  0.2466 -0.0992
   92SAPC  H15A 8810   0.123   2.535   5.957 -1.8340  1.3538 -0.3866
   92SAPC  H15B 8811   0.107   2.703   6.008 -0.6451  0.6559  3.1344
   92SAPC  H15C 8812   0.258   2.614   6.039  0.5455 -0.0185  0.8755
   92SAPC   C11 8813  -0.138   2.639   6.073  1.1338  0.7609  0.6739
   92SAPC  H11A 8814  -0.242   2.600   6.061  1.4409  0.3795 -1.0758
   92SAPC  H11B 8815  -0.087   2.654   5.975  1.3051  0.5774  0.7344
   92SAPC     P 8816  -0.149   2.898   6.078  0.0311  0.6040 -0.2840
   92SAPC   O13 8817  -0.240   2.987   6.154 -0.0946 -0.2459  0.3833
   92SAPC   O14 8818  -0.009   2.937   6.059 -0.0528 -0.0763  0.0869
   92SAPC   O12 8819  -0.148   2.756   6.152 -0.1996 -0.1387  0.1531
   92SAPC   O11 8820  -0.218   2.878   5.936 -0.9895  0.2774  0.3935
   92SAPC    C1 8821  -0.358   2.881   5.924  0.0514  0.2938 -0.6672
   92SAPC    HA 8822  -0.393   2.790   5.869  0.3895 -0.2181 -0.0537
   92SAPC    HB 8823  -0.414   2.883   6.020  0.4877 -4.3750 -0.0420
   92SAPC    C2 8824  -0.400   2.994   5.829  0.2528  0.5963 -0.2690
   92SAPC    HS 8825  -0.511   2.996   5.839  0.2024 -3.4995  1.9664
   92SAPC   O21 8826  -0.372   2.963   5.686  0.2051  0.6156  0.2137
   92SAPC   C21 8827  -0.441   2.863   5.640  0.0304 -0.3701  0.0430
   92SAPC   O22 8828  -0.539   2.814   5.698 -1.1813  0.2097  0.1397
   92SAPC   C22 8829  -0.395   2.832   5.500  0.0889  0.1704 -0.4583
   92SAPC   H2R 8830  -0.352   2.922   5.451  0.5806 -0.5835 -1.4682
   92SAPC   H2S 8831  -0.317   2.753   5.493  1.5346  1.5730 -0.6903
   92SAPC    C3 8832  -0.351   3.136   5.863  0.2496  0.1712  0.1711
   92SAPC    HX 8833  -0.247   3.144   5.823  0.5559 -3.6258 -0.1424
   92SAPC    HY 8834  -0.326   3.149   5.970  2.3216  2.2736 -0.4799
   92SAPC   O31 8835  -0.438   3.241   5.815 -0.8675 -0.0781  0.2012
   92SAPC   C31 8836  -0.437   3.261   5.681  0.3001 -0.3452 -0.4134
   92SAPC   O32 8837  -0.355   3.222   5.597 -0.6799  0.3399 -0.8193
   92SAPC   C32 8838  -0.557   3.359   5.654  0.2103  0.1679  0.1608
   92SAPC   H2X 8839  -0.571   3.433   5.735  1.8963  1.5674 -0.7589
   92SAPC   H2Y 8840  -0.650   3.299   5.644 -0.7244  1.8732 -2.4031
   92SAPC   C23 8841  -0.500   2.779   5.401 -0.1910  0.2500 -0.3757
   92SAPC   H3R 8842  -0.581   2.854   5.393  0.7138  1.1792 -1.1899
   92SAPC   H3S 8843  -0.539   2.677   5.424  0.8400 -0.2262 -0.6680
   92SAPC   C24 8844  -0.443   2.773   5.264  0.1279 -0.1358  0.3818
   92SAPC   H4R 8845  -0.504   2.713   5.193 -2.0732  1.8522  0.4628
   92SAPC   H4S 8846  -0.346   2.720   5.268 -0.4924 -1.4193 -0.9697
   92SAPC   C25 8847  -0.410   2.908   5.197  0.2534  0.2539  1.0963
   92SAPC   H5R 8848  -0.389   2.993   5.262  0.2560  0.4974  0.7818
   92SAPC   C26 8849  -0.403   2.932   5.062  0.0069  0.0149 -0.4309
   92SAPC   H6R 8850  -0.356   3.029   5.037  0.1403  0.8272  2.5910
   92SAPC   C27 8851  -0.424   2.831   4.954  0.2926 -0.3885 -0.0376
   92SAPC   H7R 8852  -0.450   2.731   4.993 -1.6510  0.3952  0.8091
   92SAPC   H7S 8853  -0.323   2.827   4.906  0.0205  1.5367 -0.8830
   92SAPC   C28 8854  -0.527   2.892   4.862 -0.0268  0.3555  0.2543
   92SAPC   H8R 8855  -0.634   2.890   4.888 -0.2040 -2.2039 -0.4482
   92SAPC   C29 8856  -0.493   2.954   4.745 -0.1835  0.5469 -0.0754
   92SAPC   H9R 8857  -0.571   2.997   4.681 -1.9577  1.0531  2.2860
   92SAPC  C210 8858  -0.359   2.940   4.678 -0.6431  0.5264  0.7549
   92SAPC  H10R 8859  -0.279   2.906   4.747 -0.4510  1.0762  0.8060
   92SAPC  H10S 8860  -0.314   3.035   4.641  1.1178 -0.4141  0.3954
   92SAPC  C211 8861  -0.347   2.823   4.581 -0.3646  0.1888  0.6856
   92SAPC  H11R 8862  -0.344   2.720   4.621  1.2690 -0.3963 -0.7940
   92SAPC  C212 8863  -0.341   2.840   4.445 -0.0110  0.3891 -0.3265
   92SAPC  H12R 8864  -0.340   2.744   4.391 -1.5208 -2.1031  3.6900
   92SAPC  C213 8865  -0.336   2.962   4.364 -0.0035 -0.1902 -0.2887
   92SAPC  H13R 8866  -0.268   2.956   4.277  0.4308 -1.4264  0.1135
   92SAPC  H13S 8867  -0.295   3.044   4.426  0.3183 -0.3166 -0.3311
   92SAPC  C214 8868  -0.473   3.001   4.322  0.6062 -0.2555  0.0570
   92SAPC  H14R 8869  -0.550   2.987   4.399  0.5526  2.1861  0.5512
   92SAPC  C215 8870  -0.516   3.074   4.220 -0.5132  0.1022 -0.3466
   92SAPC  H15R 8871  -0.624   3.093   4.213 -0.8235 -0.3569  2.1552
   92SAPC  C216 8872  -0.428   3.123   4.107 -0.1617  0.1716  0.1447
   92SAPC  H16R 8873  -0.327   3.076   4.110 -0.8773 -1.4264  2.6337
   92SAPC  H16S 8874  -0.408   3.232   4.094 -0.3720  0.1763 -0.1557
   92SAPC  C217 8875  -0.484   3.090   3.968  0.1943 -0.1771  0.3556
   92SAPC  H17R 8876  -0.421   3.145   3.895 -1.7455  2.4385  0.5214
   92SAPC  H17S 8877  -0.584   3.139   3.964  1.0191  1.5276 -0.1638
   92SAPC  C218 8878  -0.479   2.941   3.937  0.3419  0.5489  0.2314
   92SAPC  H18R 8879  -0.479   2.881   4.031 -2.4115  0.0299 -0.0181
   92SAPC  H18S 8880  -0.385   2.911   3.888  0.2318 -1.7881  1.2882
   92SAPC  C219 8881  -0.609   2.911   3.852 -0.1076  0.0812  0.0498
   92SAPC  H19R 8882  -0.618   2.991   3.776  2.8373  0.6014  0.1371
   92SAPC  H19S 8883  -0.697   2.930   3.917  1.3875 -1.4012  2.6899
   92SAPC  C220 8884  -0.622   2.771   3.797 -0.1905 -0.0616  0.9462
   92SAPC  H20R 8885  -0.619   2.705   3.886 -0.9801 -3.8625 -1.5697
   92SAPC  H20S 8886  -0.529   2.745   3.741 -1.3391 -0.0026 -1.0947
   92SAPC  H20T 8887  -0.710   2.747   3.733 -1.1442 -1.9080  2.8338
   92SAPC   C33 8888  -0.542   3.432   5.515  0.3441 -0.3351  0.0014
   92SAPC   H3X 8889  -0.451   3.495   5.504  1.9086 -2.7962 -2.2999
   92SAPC   H3Y 8890  -0.622   3.508   5.503  1.1059  0.2299 -1.8598
   92SAPC   C34 8891  -0.550   3.336   5.391 -0.0694 -0.5139 -0.8924
   92SAPC   H4X 8892  -0.654   3.296   5.391 -0.3056 -0.0559  1.7910
   92SAPC   H4Y 8893  -0.488   3.246   5.409  3.6054  1.5515 -2.3261
   92SAPC   C35 8894  -0.522   3.406   5.261 -0.3734  0.1081 -0.2709
   92SAPC   H5X 8895  -0.412   3.418   5.268 -0.4132  0.2531  0.1019
   92SAPC   H5Y 8896  -0.559   3.510   5.256  1.3363  0.8307  1.1454
   92SAPC   C36 8897  -0.546   3.325   5.137 -0.3128 -0.0325  0.8728
   92SAPC   H6X 8898  -0.655   3.310   5.121  0.0211 -0.3360 -1.4402
   92SAPC   H6Y 8899  -0.507   3.223   5.152  0.4863  0.1798  0.3269
   92SAPC   C37 8900  -0.491   3.387   5.009 -0.3190 -0.4703  0.2311
   92SAPC   H7X 8901  -0.388   3.415   5.040 -0.6764  0.0629  0.9771
   92SAPC   H7Y 8902  -0.549   3.481   4.995 -1.3300 -1.3066 -1.7156
   92SAPC   C38 8903  -0.515   3.310   4.878 -0.4592 -0.6730 -0.2427
   92SAPC   H8X 8904  -0.626   3.302   4.873 -0.6867 -0.4164  2.5545
   92SAPC   H8Y 8905  -0.469   3.209   4.887 -0.8930 -1.0251 -1.7117
   92SAPC   C39 8906  -0.473   3.385   4.755 -0.2289 -0.3325 -0.0262
   92SAPC   H9X 8907  -0.364   3.403   4.754 -0.1486 -0.7974  0.2220
   92SAPC   H9Y 8908  -0.527   3.482   4.761  1.6734  0.9181 -1.5849
   92SAPC  C310 8909  -0.512   3.312   4.624 -0.0595  1.3053 -0.1711
   92SAPC  H10X 8910  -0.616   3.274   4.633  0.2235  0.3866 -0.6957
   92SAPC  H10Y 8911  -0.454   3.219   4.612 -1.1288  0.6513 -0.3546
   92SAPC  C311 8912  -0.509   3.396   4.498  0.0725 -0.7069 -0.0640
   92SAPC  H11X 8913  -0.592   3.470   4.499  1.5131  1.0187  1.5313
   92SAPC  H11Y 8914  -0.521   3.329   4.411  0.5504 -0.4081 -0.3683
   92SAPC  C312 8915  -0.374   3.471   4.494  0.7467  0.1831  0.1517
   92SAPC  H12X 8916  -0.293   3.395   4.505  0.0993 -0.6774 -0.8330
   92SAPC  H12Y 8917  -0.356   3.555   4.565  2.2387  1.3148 -1.4891
   92SAPC  C313 8918  -0.349   3.538   4.358 -0.7241 -0.6631  0.4232
   92SAPC  H13X 8919  -0.430   3.608   4.328 -0.7420 -0.9666 -0.2643
   92SAPC  H13Y 8920  -0.376   3.454   4.290 -2.0448  0.4271 -0.4574
   92SAPC  C314 8921  -0.212   3.598   4.330 -0.8991  0.6508 -0.0248
   92SAPC  H14X 8922  -0.191   3.612   4.222 -0.2079  1.5051  0.2026
   92SAPC  H14Y 8923  -0.125   3.534   4.355 -0.9342  0.5400 -0.1850
   92SAPC  C315 8924  -0.190   3.741   4.389 -0.0935  0.2708 -0.0751
   92SAPC  H15X 8925  -0.237   3.750   4.490 -3.0992 -0.6165 -1.3075
   92SAPC  H15Y 8926  -0.236   3.813   4.319  0.2524 -1.4519 -2.1537
   92SAPC  C316 8927  -0.038   3.767   4.399  0.0355 -0.0225  0.1566
   92SAPC  H16X 8928   0.016   3.779   4.303 -1.0139  0.7065 -0.3670
   92SAPC  H16Y 8929   0.013   3.677   4.439  1.1506 -0.8592 -2.9090
   92SAPC  C317 8930  -0.001   3.887   4.491  0.0066  0.0467  0.1261
   92SAPC  H17X 8931  -0.003   3.847   4.595  2.1287  3.3719  1.6205
   92SAPC  H17Y 8932  -0.076   3.968   4.480  1.3595  1.5949  1.7374
   92SAPC  C318 8933   0.137   3.934   4.464 -0.3582  0.0636  0.0394
   92SAPC  H18X 8934   0.213   3.864   4.507 -0.1571  1.1488  1.5600
   92SAPC  H18Y 8935   0.154   4.029   4.519  0.9857  0.0886 -0.3773
   92SAPC  H18Z 8936   0.159   3.950   4.357  1.1804  0.1926  0.3385
   93SAPC     N 8937   1.649   6.324   6.084  0.2869 -0.2038  0.3270
   93SAPC   C12 8938   1.517   6.250   6.084  0.2397  0.4829  0.0657
   93SAPC  H12A 8939   1.500   6.192   5.994 -0.9715  0.1273  0.4954
   93SAPC  H12B 8940   1.435   6.319   6.068  0.9464  1.1231 -0.8414
   93SAPC   C13 8941   1.657   6.428   6.196  0.0912  0.3431 -0.3010
   93SAPC  H13A 8942   1.615   6.383   6.285  0.1521  0.0471 -0.4214
   93SAPC  H13B 8943   1.760   6.459   6.202  0.7672 -1.9744  1.0430
   93SAPC  H13C 8944   1.588   6.511   6.186  0.8208  1.2778  1.9920
   93SAPC   C14 8945   1.761   6.230   6.091 -0.3404 -0.3088 -0.0765
   93SAPC  H14A 8946   1.853   6.288   6.091 -1.4270  1.5980  2.1240
   93SAPC  H14B 8947   1.766   6.179   6.186  2.0581  0.3224  0.1944
   93SAPC  H14C 8948   1.765   6.166   6.004 -0.2514  0.5319 -0.7130
   93SAPC   C15 8949   1.657   6.405   5.959 -0.1055  0.1101 -0.0707
   93SAPC  H15A 8950   1.668   6.342   5.872 -1.8862 -2.0418  1.1460
   93SAPC  H15B 8951   1.566   6.463   5.951  0.5897  1.2048 -0.3241
   93SAPC  H15C 8952   1.729   6.485   5.970 -1.1572  0.7162  4.2566
   93SAPC   C11 8953   1.479   6.168   6.206  0.2808 -0.0729  0.4420
   93SAPC  H11A 8954   1.382   6.117   6.189  1.2398 -1.9911  0.4279
   93SAPC  H11B 8955   1.453   6.230   6.295  0.6779  2.2516 -0.9863
   93SAPC     P 8956   1.528   5.972   6.364 -0.1710  0.5048  0.5981
   93SAPC   O13 8957   1.648   5.891   6.392  0.3273 -0.0710 -0.5249
   93SAPC   O14 8958   1.476   6.048   6.473 -0.5856 -0.7983 -0.3780
   93SAPC   O12 8959   1.577   6.072   6.246 -0.1324  0.1118  0.2063
   93SAPC   O11 8960   1.405   5.887   6.305 -0.2085  0.1767 -0.0995
   93SAPC    C1 8961   1.432   5.770   6.229  0.0702  0.7596  0.1002
   93SAPC    HA 8962   1.511   5.706   6.275 -3.1258 -2.6968  1.3298
   93SAPC    HB 8963   1.341   5.708   6.241 -1.0358  2.5432  1.4760
   93SAPC    C2 8964   1.450   5.805   6.078  0.1663  0.1630  0.0993
   93SAPC    HS 8965   1.549   5.855   6.072  0.1140  0.2842  0.2416
   93SAPC   O21 8966   1.340   5.888   6.036 -0.1922  0.4443  0.2337
   93SAPC   C21 8967   1.365   5.974   5.943  0.5951  0.5434  0.0459
   93SAPC   O22 8968   1.478   6.003   5.895  0.2500 -0.5209  0.2544
   93SAPC   C22 8969   1.233   6.041   5.894 -0.1512 -0.1445  0.2145
   93SAPC   H2R 8970   1.157   5.960   5.891 -0.5682  0.1862  1.4458
   93SAPC   H2S 8971   1.202   6.120   5.965  1.6174  0.3952  0.4338
   93SAPC    C3 8972   1.454   5.682   5.990 -0.2859 -0.0406  0.6604
   93SAPC    HX 8973   1.350   5.646   5.978  0.5109 -2.1380 -0.3398
   93SAPC    HY 8974   1.519   5.598   6.025 -4.2882 -3.5713  0.3744
   93SAPC   O31 8975   1.504   5.718   5.858  0.4724  0.5566 -0.4114
   93SAPC   C31 8976   1.508   5.627   5.761  0.5824 -0.2006 -0.0573
   93SAPC   O32 8977   1.476   5.513   5.779  0.3945  0.3939  0.3124
   93SAPC   C32 8978   1.546   5.679   5.621  0.3513 -0.4108 -0.8668
   93SAPC   H2X 8979   1.643   5.733   5.623  0.0518  0.2161  2.3074
   93SAPC   H2Y 8980   1.456   5.730   5.580 -0.6996  0.2721  2.0345
   93SAPC   C23 8981   1.229   6.115   5.752  0.0497  0.1358 -0.4487
   93SAPC   H3R 8982   1.319   6.180   5.753  1.4875 -1.7184  1.9172
   93SAPC   H3S 8983   1.136   6.173   5.736 -0.3069 -0.2113  0.3203
   93SAPC   C24 8984   1.250   6.005   5.641 -0.0967  0.0227 -0.3219
   93SAPC   H4R 8985   1.334   5.942   5.676 -1.9890 -0.6459  3.6434
   93SAPC   H4S 8986   1.289   6.052   5.548 -0.0517 -0.9879 -0.8221
   93SAPC   C25 8987   1.124   5.922   5.611  0.0589 -0.4808  1.3756
   93SAPC   H5R 8988   1.072   5.871   5.693 -1.5148 -0.1355  0.6274
   93SAPC   C26 8989   1.081   5.892   5.484 -0.3819  0.4099 -0.3814
   93SAPC   H6R 8990   0.983   5.842   5.480 -1.1472  1.4989  2.4731
   93SAPC   C27 8991   1.149   5.931   5.353  0.0424  0.2653 -0.4283
   93SAPC   H7R 8992   1.255   5.962   5.366 -0.4930  1.9576  0.2169
   93SAPC   H7S 8993   1.098   6.015   5.301  0.5495  1.0996  0.3948
   93SAPC   C28 8994   1.154   5.819   5.251 -0.1504 -0.1665 -1.0712
   93SAPC   H8R 8995   1.245   5.758   5.265  0.4587  0.7457 -0.9629
   93SAPC   C29 8996   1.063   5.786   5.159  0.0706  0.3504 -0.1721
   93SAPC   H9R 8997   1.085   5.698   5.097  1.8640  0.2108  0.6137
   93SAPC  C210 8998   0.929   5.847   5.131  0.1171 -0.2955  1.1868
   93SAPC  H10R 8999   0.904   5.954   5.148  0.0200 -0.2610  0.8445
   93SAPC  H10S 9000   0.844   5.794   5.179 -0.8754  0.6277  0.4937
   93SAPC  C211 9001   0.897   5.828   4.982 -0.3481  0.5001 -0.1856
   93SAPC  H11R 9002   0.883   5.721   4.962 -2.2339  0.6967 -0.1166
   93SAPC  C212 9003   0.897   5.922   4.884  0.3369 -0.0355 -0.3323
   93SAPC  H12R 9004   0.866   5.897   4.782  0.3445  2.1270 -0.9112
   93SAPC  C213 9005   0.928   6.068   4.903  0.3013  0.4070 -0.2237
   93SAPC  H13R 9006   1.015   6.078   4.972 -0.8415  2.1788  1.0360
   93SAPC  H13S 9007   0.846   6.106   4.968  2.2541 -0.3062  2.8528
   93SAPC  C214 9008   0.937   6.144   4.781  0.6983 -0.0226  0.1805
   93SAPC  H14R 9009   1.033   6.137   4.727 -0.4733 -1.0605 -1.9011
   93SAPC  C215 9010   0.842   6.210   4.713  0.1282 -0.8347 -0.0143
   93SAPC  H15R 9011   0.869   6.280   4.633 -1.9791  0.5490  0.4006
   93SAPC  C216 9012   0.698   6.244   4.762  0.6810  0.3257 -0.6431
   93SAPC  H16R 9013   0.692   6.346   4.807  2.4158  0.4196 -0.5427
   93SAPC  H16S 9014   0.667   6.180   4.847 -3.5570  2.6880 -0.1422
   93SAPC  C217 9015   0.609   6.242   4.642  0.4893  0.3986  0.4529
   93SAPC  H17R 9016   0.641   6.327   4.578  0.2039 -0.3008 -0.6659
   93SAPC  H17S 9017   0.505   6.260   4.676 -0.4700 -0.9096 -1.5618
   93SAPC  C218 9018   0.608   6.113   4.554  0.2289 -0.4640  0.2163
   93SAPC  H18R 9019   0.603   6.024   4.620 -0.3940  0.3871  1.3373
   93SAPC  H18S 9020   0.701   6.105   4.493 -0.2589 -0.5815 -0.5347
   93SAPC  C219 9021   0.493   6.113   4.456  0.1196  0.1945 -0.0516
   93SAPC  H19R 9022   0.504   6.193   4.379  0.8905 -0.9009 -1.0991
   93SAPC  H19S 9023   0.404   6.140   4.517  0.4760  0.4385  0.3713
   93SAPC  C220 9024   0.481   5.980   4.385 -0.3051  0.3941 -0.0255
   93SAPC  H20R 9025   0.405   5.989   4.304  0.4692  1.9915 -0.6105
   93SAPC  H20S 9026   0.454   5.904   4.462  0.9268 -0.0320  0.0015
   93SAPC  H20T 9027   0.580   5.965   4.337  0.0163 -1.0141  1.0281
   93SAPC   C33 9028   1.558   5.563   5.517  0.7152  0.5394 -0.3936
   93SAPC   H3X 9029   1.466   5.501   5.520  1.2529 -0.3176 -0.8866
   93SAPC   H3Y 9030   1.637   5.488   5.541 -1.0224 -1.3733 -0.3726
   93SAPC   C34 9031   1.585   5.614   5.376  0.4836 -0.1958  0.1599
   93SAPC   H4X 9032   1.688   5.656   5.366 -0.3330  1.8292 -0.2145
   93SAPC   H4Y 9033   1.512   5.691   5.344 -1.1713 -1.4529  0.7367
   93SAPC   C35 9034   1.571   5.499   5.279  1.3546 -0.0336  0.7854
   93SAPC   H5X 9035   1.474   5.449   5.296  0.3225  0.8512 -1.9247
   93SAPC   H5Y 9036   1.644   5.421   5.311 -0.4747 -1.4823  1.6173
   93SAPC   C36 9037   1.584   5.550   5.128 -0.2186 -0.0162  0.2180
   93SAPC   H6X 9038   1.506   5.629   5.119  2.3290  2.6719  0.4134
   93SAPC   H6Y 9039   1.561   5.471   5.053 -0.4775  2.1347 -2.0815
   93SAPC   C37 9040   1.718   5.611   5.103 -1.1540 -0.6379  0.2491
   93SAPC   H7X 9041   1.802   5.546   5.134 -0.2174 -0.1174 -1.1430
   93SAPC   H7Y 9042   1.727   5.705   5.162 -0.9850  0.0614 -0.8613
   93SAPC   C38 9043   1.742   5.643   4.960  0.3642  0.4958  0.5474
   93SAPC   H8X 9044   1.792   5.740   4.941  1.0701  0.2958  1.3540
   93SAPC   H8Y 9045   1.636   5.646   4.925  0.5632 -1.1171 -0.3011
   93SAPC   C39 9046   1.827   5.538   4.892  0.8625  0.1749 -0.4563
   93SAPC   H9X 9047   1.786   5.437   4.916 -0.2348  0.7749  0.2660
   93SAPC   H9Y 9048   1.932   5.539   4.928  0.5569 -0.1106  0.4563
   93SAPC  C310 9049   1.815   5.549   4.745 -0.6918 -0.2085  0.2148
   93SAPC  H10X 9050   1.708   5.576   4.729 -1.5311 -2.6167  1.1785
   93SAPC  H10Y 9051   1.841   5.449   4.704  1.6176  0.4564 -0.0992
   93SAPC  C311 9052   1.900   5.667   4.686 -0.0373  0.1294  0.0933
   93SAPC  H11X 9053   2.002   5.679   4.728 -0.8817 -1.8590  2.9917
   93SAPC  H11Y 9054   1.849   5.759   4.722 -1.6869 -1.4427  1.9214
   93SAPC  C312 9055   1.913   5.673   4.529 -0.1760  0.0868 -0.2665
   93SAPC  H12X 9056   1.829   5.722   4.475  0.4958  3.8775  1.7726
   93SAPC  H12Y 9057   1.948   5.572   4.499 -0.0924 -0.5379  1.7931
   93SAPC  C313 9058   2.038   5.755   4.487  0.3171  1.2185 -0.1981
   93SAPC  H13X 9059   2.045   5.850   4.545 -1.0667  2.6478 -2.2211
   93SAPC  H13Y 9060   2.018   5.790   4.383  0.6414  3.4790  0.4399
   93SAPC  C314 9061   2.168   5.681   4.505  0.1976  0.1909  0.4959
   93SAPC  H14X 9062   2.178   5.585   4.450  3.0690 -0.9903  2.8178
   93SAPC  H14Y 9063   2.193   5.667   4.612  1.4306  2.6512  0.6113
   93SAPC  C315 9064   2.289   5.760   4.447  0.4372 -0.1296 -0.5014
   93SAPC  H15X 9065   2.381   5.707   4.480 -0.0442  0.5574  2.2836
   93SAPC  H15Y 9066   2.286   5.854   4.506 -1.1009 -0.6206  0.2765
   93SAPC  C316 9067   2.282   5.792   4.300 -0.1645 -0.0510 -0.0613
   93SAPC  H16X 9068   2.182   5.824   4.264 -0.5932  2.1181  2.7293
   93SAPC  H16Y 9069   2.296   5.695   4.249 -0.3440 -0.0489 -0.1168
   93SAPC  C317 9070   2.389   5.899   4.266  0.1613 -0.2761 -0.4395
   93SAPC  H17X 9071   2.491   5.864   4.290  0.9087  2.8597  1.5436
   93SAPC  H17Y 9072   2.361   5.984   4.332 -0.8399  0.2493 -1.4804
   93SAPC  C318 9073   2.382   5.945   4.121  0.0728  0.5046 -0.6034
   93SAPC  H18X 9074   2.280   5.974   4.089 -0.7164 -1.3682  0.0186
   93SAPC  H18Y 9075   2.403   5.861   4.052 -3.9355 -0.7430 -0.5996
   93SAPC  H18Z 9076   2.455   6.028   4.108  5.0129 -3.4709 -1.3489
   94SAPC     N 9077   6.549   4.586   6.342 -0.0164 -0.1487 -0.0469
   94SAPC   C12 9078   6.408   4.585   6.287 -0.0719 -0.0392  0.4267
   94SAPC  H12A 9079   6.407   4.636   6.192  1.0764  0.8914  0.8770
   94SAPC  H12B 9080   6.354   4.646   6.359 -1.4593 -0.0566 -0.5624
   94SAPC   C13 9081   6.559   4.598   6.494  0.4727  0.2140 -0.0812
   94SAPC  H13A 9082   6.521   4.694   6.524 -3.3107 -0.9418 -0.5964
   94SAPC  H13B 9083   6.489   4.525   6.533 -2.5462  1.2750 -2.9618
   94SAPC  H13C 9084   6.663   4.593   6.523  1.6840 -2.7142 -3.9067
   94SAPC   C14 9085   6.631   4.471   6.293 -0.8810 -0.4894  0.0387
   94SAPC  H14A 9086   6.590   4.375   6.320  1.2994 -1.9324 -1.4745
   94SAPC  H14B 9087   6.649   4.471   6.187 -1.0135  0.7728 -0.0105
   94SAPC  H14C 9088   6.732   4.471   6.331 -0.3819  2.5209 -1.0092
   94SAPC   C15 9089   6.616   4.712   6.293  0.4173  0.0249  0.4461
   94SAPC  H15A 9090   6.571   4.806   6.322  0.9781 -0.0728  1.7108
   94SAPC  H15B 9091   6.720   4.717   6.320  1.2448 -1.3006 -2.1970
   94SAPC  H15C 9092   6.607   4.710   6.185  1.1398 -1.8274  0.3934
   94SAPC   C11 9093   6.340   4.446   6.269 -0.1357 -0.9529  1.0141
   94SAPC  H11A 9094   6.401   4.390   6.196 -1.8785  0.8426 -2.0212
   94SAPC  H11B 9095   6.256   4.475   6.202 -0.0880 -1.7226  0.6150
   94SAPC     P 9096   6.313   4.220   6.391  0.2147  0.0227 -0.3201
   94SAPC   O13 9097   6.444   4.156   6.373 -0.2308  0.0746 -0.6414
   94SAPC   O14 9098   6.225   4.181   6.504 -0.5453 -0.5330  0.1518
   94SAPC   O12 9099   6.317   4.372   6.387  0.0232  0.2950 -0.3214
   94SAPC   O11 9100   6.218   4.192   6.263  0.2432 -0.2080  0.2356
   94SAPC    C1 9101   6.266   4.111   6.157  0.8676  0.0551 -0.1371
   94SAPC    HA 9102   6.351   4.163   6.108  2.2566 -2.9731 -1.1875
   94SAPC    HB 9103   6.314   4.022   6.201 -2.1705 -0.8764  1.5644
   94SAPC    C2 9104   6.158   4.060   6.053 -0.2388  0.3408  0.5759
   94SAPC    HS 9105   6.110   4.150   6.008 -0.7996 -0.3838 -0.3041
   94SAPC   O21 9106   6.062   3.974   6.109  0.2932 -0.0296  1.0419
   94SAPC   C21 9107   5.942   3.963   6.043  0.5703 -0.3604 -0.0483
   94SAPC   O22 9108   5.895   4.040   5.963 -0.3034  0.1724  0.2705
   94SAPC   C22 9109   5.886   3.822   6.083  0.5005 -0.5800  0.5262
   94SAPC   H2R 9110   5.882   3.825   6.194  1.0239  1.1618  0.5295
   94SAPC   H2S 9111   5.787   3.803   6.037  0.8175 -0.4788 -0.2079
   94SAPC    C3 9112   6.227   3.979   5.937 -0.2522  0.2399  0.3014
   94SAPC    HX 9113   6.152   3.936   5.866 -0.5211  0.1269  0.6515
   94SAPC    HY 9114   6.281   3.890   5.976  0.6447  0.8878  0.5586
   94SAPC   O31 9115   6.318   4.065   5.863 -0.0238  0.2289  0.3499
   94SAPC   C31 9116   6.280   4.143   5.762 -0.0052  0.0412  0.0195
   94SAPC   O32 9117   6.165   4.161   5.735 -0.1986  0.0943 -0.0045
   94SAPC   C32 9118   6.399   4.201   5.700 -0.3885 -0.3679 -0.6386
   94SAPC   H2X 9119   6.448   4.118   5.645  2.1564 -1.0359  2.3787
   94SAPC   H2Y 9120   6.470   4.237   5.778  1.0740 -2.1390 -1.0821
   94SAPC   C23 9121   5.990   3.720   6.032  0.5505  0.0915  0.0545
   94SAPC   H3R 9122   5.962   3.623   6.078  0.6445 -0.2909 -0.6745
   94SAPC   H3S 9123   6.090   3.748   6.071  0.9212  0.3664 -1.0591
   94SAPC   C24 9124   5.994   3.678   5.883 -0.1073 -0.2723 -0.1216
   94SAPC   H4R 9125   5.969   3.771   5.829  1.1719  0.8994  1.1909
   94SAPC   H4S 9126   5.906   3.615   5.859  0.0605 -1.0220  1.1238
   94SAPC   C25 9127   6.130   3.621   5.857 -0.3498  0.3702 -0.1513
   94SAPC   H5R 9128   6.193   3.584   5.939 -1.2238 -0.1895  0.2881
   94SAPC   C26 9129   6.197   3.639   5.741  0.1966  0.1098  0.5393
   94SAPC   H6R 9130   6.288   3.582   5.717 -0.2336  0.8268 -3.5369
   94SAPC   C27 9131   6.142   3.718   5.617 -0.0699  0.6282  0.0015
   94SAPC   H7R 9132   6.228   3.748   5.555  0.5494 -0.2091  0.4236
   94SAPC   H7S 9133   6.094   3.815   5.639  0.0970  0.6994  0.0544
   94SAPC   C28 9134   6.055   3.611   5.547  0.7754 -0.1893  1.0173
   94SAPC   H8R 9135   5.967   3.581   5.606 -0.1049  2.2221  1.0291
   94SAPC   C29 9136   6.060   3.565   5.420 -0.2929  0.0117 -0.2382
   94SAPC   H9R 9137   6.000   3.475   5.402 -2.0111  1.0299  0.1481
   94SAPC  C210 9138   6.162   3.596   5.310  0.1946 -0.1749 -0.2710
   94SAPC  H10R 9139   6.186   3.500   5.259 -0.3286 -0.8060  0.6446
   94SAPC  H10S 9140   6.253   3.623   5.367 -1.4304  0.8698  1.9396
   94SAPC  C211 9141   6.112   3.698   5.211  0.6796 -0.4874  0.0910
   94SAPC  H11R 9142   6.103   3.798   5.256  3.1613 -0.4350  0.6234
   94SAPC  C212 9143   6.099   3.676   5.079 -0.0243 -0.1854 -0.0194
   94SAPC  H12R 9144   6.050   3.759   5.026  2.2533  1.3625  0.1701
   94SAPC  C213 9145   6.112   3.550   4.998 -0.5300  0.0473 -0.1921
   94SAPC  H13R 9146   6.006   3.526   4.971  0.0320 -0.8237 -1.7526
   94SAPC  H13S 9147   6.148   3.464   5.059 -0.7766  0.9638  1.2967
   94SAPC  C214 9148   6.180   3.583   4.872  0.0395 -0.1759 -0.0885
   94SAPC  H14R 9149   6.290   3.583   4.879  0.0537 -2.9211  0.7736
   94SAPC  C215 9150   6.132   3.596   4.750 -0.8432 -0.2271 -0.1932
   94SAPC  H15R 9151   6.197   3.630   4.668 -0.0374  0.4265  0.7025
   94SAPC  C216 9152   5.989   3.597   4.697  0.0768 -0.2613  0.7258
   94SAPC  H16R 9153   5.913   3.564   4.771  0.0042 -5.0323 -1.1019
   94SAPC  H16S 9154   5.989   3.525   4.612 -1.1124  1.5671 -0.9102
   94SAPC  C217 9155   5.954   3.735   4.633  0.0243  0.5587 -0.3621
   94SAPC  H17R 9156   5.863   3.719   4.572  0.3937  1.9742 -1.3339
   94SAPC  H17S 9157   6.033   3.778   4.568  0.0446 -0.4842 -1.0429
   94SAPC  C218 9158   5.936   3.853   4.727 -0.1051 -0.3828 -0.0463
   94SAPC  H18R 9159   6.033   3.861   4.781 -0.7901  2.4956  0.9632
   94SAPC  H18S 9160   5.860   3.832   4.805 -2.1310  1.6466 -1.3422
   94SAPC  C219 9161   5.904   3.978   4.647  0.0590  0.4481 -0.0027
   94SAPC  H19R 9162   5.849   4.047   4.714  1.0152 -1.2116  2.6577
   94SAPC  H19S 9163   5.847   3.945   4.557 -0.1872 -0.3183  0.4297
   94SAPC  C220 9164   6.023   4.047   4.574  0.6203  0.1248 -0.2229
   94SAPC  H20R 9165   6.082   4.095   4.655 -0.8139 -0.1777  1.0427
   94SAPC  H20S 9166   5.982   4.115   4.496 -0.5833 -1.4200 -0.9784
   94SAPC  H20T 9167   6.083   3.975   4.514 -0.9552  0.1247 -1.8867
   94SAPC   C33 9168   6.359   4.318   5.609 -0.2770 -0.1625 -0.2191
   94SAPC   H3X 9169   6.335   4.395   5.685  1.2926 -0.7143  0.8876
   94SAPC   H3Y 9170   6.266   4.284   5.557 -0.3009 -1.1872  0.4467
   94SAPC   C34 9171   6.455   4.370   5.513 -0.2979  0.5203  0.0406
   94SAPC   H4X 9172   6.521   4.282   5.495 -1.1805  0.0214 -0.8708
   94SAPC   H4Y 9173   6.521   4.444   5.564  1.7615 -0.7817 -0.6244
   94SAPC   C35 9174   6.411   4.412   5.377  0.4370  0.1458 -0.5934
   94SAPC   H5X 9175   6.360   4.511   5.384  0.5747  0.2526 -1.0371
   94SAPC   H5Y 9176   6.342   4.333   5.341  0.7708  0.9694 -3.2983
   94SAPC   C36 9177   6.527   4.423   5.285 -0.0406 -0.7178  0.3271
   94SAPC   H6X 9178   6.597   4.338   5.300 -1.6359 -2.0208  0.6193
   94SAPC   H6Y 9179   6.588   4.508   5.324  2.0307 -1.9975  0.0664
   94SAPC   C37 9180   6.500   4.438   5.139  0.2021  0.2017 -0.5382
   94SAPC   H7X 9181   6.419   4.515   5.131 -0.2170 -0.1812 -0.0523
   94SAPC   H7Y 9182   6.438   4.349   5.114  1.2475 -1.2890  1.8051
   94SAPC   C38 9183   6.625   4.468   5.059  0.3864 -0.3828 -0.1337
   94SAPC   H8X 9184   6.688   4.377   5.058 -0.0220 -0.6671 -0.2487
   94SAPC   H8Y 9185   6.682   4.554   5.101  1.1560 -0.9250 -0.0522
   94SAPC   C39 9186   6.593   4.499   4.903 -0.3041  0.6440 -0.8809
   94SAPC   H9X 9187   6.673   4.556   4.851  0.8513 -0.5396 -0.4538
   94SAPC   H9Y 9188   6.505   4.566   4.895 -3.5338 -2.5857  3.0512
   94SAPC  C310 9189   6.560   4.363   4.839 -0.3072  0.1843  0.4641
   94SAPC  H10X 9190   6.462   4.331   4.879  0.7043 -0.5135  2.5227
   94SAPC  H10Y 9191   6.633   4.286   4.872  0.8110  1.1946  0.4336
   94SAPC  C311 9192   6.551   4.364   4.692  0.1963 -0.2220  1.1697
   94SAPC  H11X 9193   6.520   4.465   4.659 -0.0899 -0.8383 -0.6032
   94SAPC  H11Y 9194   6.477   4.287   4.658  0.0908  0.6013 -0.5962
   94SAPC  C312 9195   6.685   4.330   4.617 -0.3418  0.3991 -0.0339
   94SAPC  H12X 9196   6.719   4.232   4.657 -1.0281 -0.0682 -0.5745
   94SAPC  H12Y 9197   6.774   4.391   4.644 -0.2743  1.4595 -2.4225
   94SAPC  C313 9198   6.678   4.338   4.465 -0.4634 -0.3341  0.3154
   94SAPC  H13X 9199   6.632   4.435   4.437  0.4115 -0.0142 -0.0387
   94SAPC  H13Y 9200   6.613   4.260   4.420 -0.1847 -1.2954  1.5360
   94SAPC  C314 9201   6.817   4.323   4.401 -0.3861 -0.4238  0.9421
   94SAPC  H14X 9202   6.859   4.221   4.414  0.6703 -0.2477 -0.7496
   94SAPC  H14Y 9203   6.878   4.401   4.450  1.1904 -1.4204  0.6546
   94SAPC  C315 9204   6.821   4.345   4.252 -0.0482  0.9927  0.1741
   94SAPC  H15X 9205   6.794   4.453   4.241 -1.7691  0.4288 -1.6549
   94SAPC  H15Y 9206   6.753   4.274   4.201  0.2606  1.2852 -0.6712
   94SAPC  C316 9207   6.962   4.329   4.197 -0.0462 -0.4785 -0.9902
   94SAPC  H16X 9208   7.030   4.371   4.274 -0.4659  0.7549 -1.2725
   94SAPC  H16Y 9209   6.980   4.384   4.102 -1.2566  2.2520  0.2497
   94SAPC  C317 9210   7.005   4.184   4.192 -0.5792  0.3415 -0.8331
   94SAPC  H17X 9211   6.928   4.118   4.147  0.5637 -1.6610  0.0157
   94SAPC  H17Y 9212   7.021   4.140   4.293 -0.8730  1.5067 -0.2546
   94SAPC  C318 9213   7.136   4.163   4.119 -0.2071 -0.3809 -0.1185
   94SAPC  H18X 9214   7.145   4.056   4.088 -1.1661 -0.2889 -0.7623
   94SAPC  H18Y 9215   7.223   4.198   4.179 -1.1920 -1.2999  1.9932
   94SAPC  H18Z 9216   7.141   4.212   4.020 -1.0411 -0.9305 -0.4488
   95SAPC     N 9217   3.830   5.556   1.627 -0.3304  0.0353 -0.0212
   95SAPC   C12 9218   3.888   5.498   1.755  0.3200  0.1194  0.3159
   95SAPC  H12A 9219   3.993   5.477   1.746  0.1733  0.1427 -2.2252
   95SAPC  H12B 9220   3.832   5.407   1.771  0.0897  0.0687 -0.6625
   95SAPC   C13 9221   3.862   5.467   1.508 -0.1804  0.3252 -0.2447
   95SAPC  H13A 9222   3.968   5.446   1.505  0.3399  2.0320  2.6693
   95SAPC  H13B 9223   3.801   5.379   1.520 -0.3281  0.4436 -0.1395
   95SAPC  H13C 9224   3.830   5.513   1.415 -0.4642  1.9219  0.6134
   95SAPC   C14 9225   3.678   5.570   1.628  0.2820  0.4746  0.1365
   95SAPC  H14A 9226   3.643   5.618   1.718 -0.8832 -1.9407  1.0324
   95SAPC  H14B 9227   3.641   5.613   1.536 -0.5554 -0.5287 -0.0124
   95SAPC  H14C 9228   3.627   5.475   1.634  2.0367 -0.4002  2.4493
   95SAPC   C15 9229   3.897   5.689   1.600  0.1486  0.1936 -0.4785
   95SAPC  H15A 9230   3.872   5.723   1.501  0.8918 -1.1613 -1.1597
   95SAPC  H15B 9231   3.866   5.765   1.671  0.0126  1.0853 -1.4728
   95SAPC  H15C 9232   4.001   5.663   1.602 -0.2219 -1.5142 -1.5072
   95SAPC   C11 9233   3.868   5.585   1.893 -0.1773  0.5151  0.5172
   95SAPC  H11A 9234   3.921   5.681   1.881  0.2523  0.2079 -0.0751
   95SAPC  H11B 9235   3.912   5.523   1.974 -1.2456 -1.8461 -0.6012
   95SAPC     P 9236   3.644   5.539   2.017  0.1270 -0.2974  0.0174
   95SAPC   O13 9237   3.528   5.624   2.041 -0.3659 -0.4139  0.0968
   95SAPC   O14 9238   3.627   5.393   1.975 -0.4095 -0.2595 -0.5006
   95SAPC   O12 9239   3.736   5.612   1.915 -0.1226 -0.0226 -0.3148
   95SAPC   O11 9240   3.741   5.544   2.143 -0.2514 -0.3020 -0.2934
   95SAPC    C1 9241   3.797   5.670   2.181  0.5741 -0.1903 -0.2940
   95SAPC    HA 9242   3.869   5.718   2.112 -0.4197  2.7701  0.5647
   95SAPC    HB 9243   3.726   5.752   2.208  1.4880 -0.4816  3.6545
   95SAPC    C2 9244   3.863   5.662   2.316 -0.2319 -0.0841  0.0969
   95SAPC    HS 9245   3.928   5.572   2.318 -0.4015 -0.2285 -0.4816
   95SAPC   O21 9246   3.753   5.647   2.414  0.1577 -0.0129 -0.0271
   95SAPC   C21 9247   3.743   5.538   2.486 -0.0372 -0.4848  0.3747
   95SAPC   O22 9248   3.815   5.442   2.484  0.2765  0.6001  0.5936
   95SAPC   C22 9249   3.630   5.565   2.581 -0.0179 -0.9748 -0.2541
   95SAPC   H2R 9250   3.594   5.668   2.563 -0.0886 -1.1991 -1.4504
   95SAPC   H2S 9251   3.545   5.499   2.553  0.5817 -0.9619 -2.2326
   95SAPC    C3 9252   3.951   5.784   2.346  0.1360 -0.0938 -0.0018
   95SAPC    HX 9253   3.900   5.879   2.320  1.8619  1.2377  1.2128
   95SAPC    HY 9254   4.038   5.773   2.277 -1.4202  0.0881 -2.0817
   95SAPC   O31 9255   3.988   5.788   2.487 -0.0406  0.5655 -0.2296
   95SAPC   C31 9256   4.089   5.705   2.514  0.3716 -0.1753  0.5862
   95SAPC   O32 9257   4.156   5.635   2.439 -0.2987  0.0692  0.1243
   95SAPC   C32 9258   4.111   5.708   2.665 -0.3951  0.0335 -0.1922
   95SAPC   H2X 9259   4.213   5.668   2.680 -0.3813 -0.2010 -0.8607
   95SAPC   H2Y 9260   4.041   5.629   2.703 -2.1394  0.7954 -1.6556
   95SAPC   C23 9261   3.671   5.551   2.728  0.6156  0.1666 -0.2423
   95SAPC   H3R 9262   3.733   5.460   2.741 -0.7871 -0.5223  2.2578
   95SAPC   H3S 9263   3.584   5.535   2.795  0.4874  1.3594 -0.1082
   95SAPC   C24 9264   3.765   5.665   2.775  0.0580  0.8821  0.6163
   95SAPC   H4R 9265   3.820   5.697   2.684 -0.6691  3.0203  0.8611
   95SAPC   H4S 9266   3.832   5.629   2.856  0.7996 -1.3239 -0.8765
   95SAPC   C25 9267   3.682   5.779   2.831  0.1060  0.2411 -0.5158
   95SAPC   H5R 9268   3.655   5.863   2.765 -0.3909  1.0494  0.6803
   95SAPC   C26 9269   3.659   5.797   2.958  0.7385  0.1479  0.2050
   95SAPC   H6R 9270   3.597   5.884   2.984 -0.2923  0.0542 -1.7603
   95SAPC   C27 9271   3.703   5.706   3.072  0.3047  0.0266  0.0961
   95SAPC   H7R 9272   3.763   5.768   3.142  0.8717  0.0369 -0.3934
   95SAPC   H7S 9273   3.765   5.622   3.036 -0.6946 -1.4377  1.5951
   95SAPC   C28 9274   3.579   5.654   3.141  0.1885 -0.0102  0.9871
   95SAPC   H8R 9275   3.514   5.596   3.074  0.4920  3.4618 -2.6633
   95SAPC   C29 9276   3.557   5.662   3.275 -0.3120  0.5284 -0.0331
   95SAPC   H9R 9277   3.463   5.616   3.309  0.1733 -0.8770 -0.5538
   95SAPC  C210 9278   3.635   5.715   3.393 -0.3869  0.1205 -0.1145
   95SAPC  H10R 9279   3.744   5.707   3.372 -0.5166 -0.3755 -0.6522
   95SAPC  H10S 9280   3.631   5.650   3.483  1.3954 -0.8401 -0.6812
   95SAPC  C211 9281   3.586   5.849   3.437  0.5724  0.2051 -0.1201
   95SAPC  H11R 9282   3.491   5.885   3.394  0.0660  0.7617  1.3922
   95SAPC  C212 9283   3.626   5.925   3.540 -0.5021 -0.2842  0.0132
   95SAPC  H12R 9284   3.565   6.012   3.569  1.9006  0.9262  1.8747
   95SAPC  C213 9285   3.738   5.898   3.634  0.1006  0.2183  0.0547
   95SAPC  H13R 9286   3.756   6.001   3.672 -2.5221  0.9404 -0.4811
   95SAPC  H13S 9287   3.829   5.862   3.581  0.0777  2.3072 -1.5203
   95SAPC  C214 9288   3.714   5.792   3.733 -0.1595 -0.1446 -0.2909
   95SAPC  H14R 9289   3.698   5.695   3.684  0.2292 -0.9115  1.0500
   95SAPC  C215 9290   3.700   5.813   3.868  0.3552  0.2863 -0.4567
   95SAPC  H15R 9291   3.675   5.732   3.939 -2.0752  1.1381 -0.2644
   95SAPC  C216 9292   3.741   5.934   3.943  0.6425 -0.3432  0.5421
   95SAPC  H16R 9293   3.661   5.971   4.011 -0.6974  0.0326 -1.1799
   95SAPC  H16S 9294   3.780   6.017   3.879  1.7213 -2.2526 -1.3917
   95SAPC  C217 9295   3.850   5.917   4.056 -0.0503  0.2765 -0.1003
   95SAPC  H17R 9296   3.923   5.839   4.025  0.5911 -0.3061  2.6495
   95SAPC  H17S 9297   3.796   5.886   4.148 -2.5091 -0.8906 -1.8166
   95SAPC  C218 9298   3.933   6.049   4.085 -0.1530  0.5123 -0.3712
   95SAPC  H18R 9299   3.972   6.087   3.988  0.6747 -1.1879 -0.7379
   95SAPC  H18S 9300   4.016   6.039   4.157 -0.5705 -2.4115 -0.1583
   95SAPC  C219 9301   3.846   6.162   4.139  1.0817 -0.4667 -0.6097
   95SAPC  H19R 9302   3.893   6.212   4.226  1.0324 -2.1184  0.4156
   95SAPC  H19S 9303   3.750   6.114   4.167  1.5688 -0.2920  1.5349
   95SAPC  C220 9304   3.801   6.267   4.033  0.4277 -0.6851 -0.0498
   95SAPC  H20R 9305   3.886   6.317   3.982  0.1109 -0.8971 -0.8018
   95SAPC  H20S 9306   3.734   6.341   4.082  1.9079  0.9564 -0.3946
   95SAPC  H20T 9307   3.750   6.217   3.948  0.4311  0.8421 -1.0005
   95SAPC   C33 9308   4.098   5.844   2.741  0.0707  0.3505 -0.0405
   95SAPC   H3X 9309   3.990   5.866   2.756 -0.8134 -4.1132  1.6113
   95SAPC   H3Y 9310   4.141   5.927   2.681  1.4051 -1.1950 -1.3225
   95SAPC   C34 9311   4.153   5.841   2.883  0.3888  0.1071 -0.1123
   95SAPC   H4X 9312   4.185   5.944   2.908 -0.0414 -0.1433  1.6204
   95SAPC   H4Y 9313   4.244   5.778   2.894  0.7105  0.8546  1.9380
   95SAPC   C35 9314   4.056   5.774   2.997 -0.2740 -0.2021 -0.0013
   95SAPC   H5X 9315   4.033   5.669   2.968 -2.2520 -0.4542  2.2356
   95SAPC   H5Y 9316   3.955   5.818   2.986 -0.8182 -1.6943 -1.3684
   95SAPC   C36 9317   4.111   5.787   3.143 -0.0343  0.6443  0.5341
   95SAPC   H6X 9318   4.207   5.732   3.150  0.9430  1.9638 -1.4870
   95SAPC   H6Y 9319   4.032   5.728   3.196  0.3448 -1.8118 -1.4265
   95SAPC   C37 9320   4.116   5.921   3.208  0.0168 -0.4695 -0.3717
   95SAPC   H7X 9321   4.014   5.956   3.232  0.4616 -0.1167  1.0920
   95SAPC   H7Y 9322   4.172   6.000   3.153  2.3186 -0.8087  1.3199
   95SAPC   C38 9323   4.200   5.919   3.344  0.0614 -0.4458  0.6972
   95SAPC   H8X 9324   4.217   6.026   3.369  2.5040 -0.0175 -2.2199
   95SAPC   H8Y 9325   4.300   5.876   3.323  0.7807  1.5016 -0.0672
   95SAPC   C39 9326   4.128   5.860   3.455  0.2049 -0.0392 -0.1079
   95SAPC   H9X 9327   4.112   5.751   3.443  1.2642 -0.2435  0.2005
   95SAPC   H9Y 9328   4.031   5.915   3.461 -0.0458 -0.5630  0.9189
   95SAPC  C310 9329   4.197   5.889   3.593 -0.1253  0.4907 -0.1775
   95SAPC  H10X 9330   4.217   5.998   3.603  3.3795  0.2805 -2.9983
   95SAPC  H10Y 9331   4.297   5.842   3.593 -0.3570 -0.0105 -0.2414
   95SAPC  C311 9332   4.109   5.852   3.703 -0.5783 -0.1151 -0.5697
   95SAPC  H11X 9333   4.069   5.749   3.693 -1.5862 -0.1538  2.6647
   95SAPC  H11Y 9334   4.012   5.906   3.703 -0.1549  0.6660 -0.8204
   95SAPC  C312 9335   4.179   5.867   3.843 -0.2913  0.2370  0.0772
   95SAPC  H12X 9336   4.113   5.855   3.932 -0.0832  0.9283  0.3358
   95SAPC  H12Y 9337   4.225   5.968   3.843 -0.5720  0.3678  0.6882
   95SAPC  C313 9338   4.294   5.773   3.856  0.7318  0.4561  0.2168
   95SAPC  H13X 9339   4.375   5.794   3.784 -0.7736  1.5868 -1.2331
   95SAPC  H13Y 9340   4.264   5.668   3.841  0.6314  0.2946  1.4430
   95SAPC  C314 9341   4.347   5.768   4.003 -0.9263  0.5407  0.2721
   95SAPC  H14X 9342   4.390   5.869   4.019 -0.2020  0.6273 -1.8585
   95SAPC  H14Y 9343   4.437   5.702   4.007  1.1196  2.9996 -1.7559
   95SAPC  C315 9344   4.252   5.732   4.121  0.6514  0.2326  0.5060
   95SAPC  H15X 9345   4.207   5.633   4.095  0.9107 -0.2196  1.7031
   95SAPC  H15Y 9346   4.174   5.811   4.119  1.7942  1.3739 -0.3858
   95SAPC  C316 9347   4.303   5.726   4.264 -0.6722  0.3960  0.4194
   95SAPC  H16X 9348   4.408   5.689   4.258 -0.5743  0.2795  2.2763
   95SAPC  H16Y 9349   4.236   5.657   4.320 -0.2059 -2.0570 -1.8481
   95SAPC  C317 9350   4.287   5.870   4.313 -0.6189  0.0099  0.1426
   95SAPC  H17X 9351   4.187   5.917   4.319  1.3463  4.9068 -0.9411
   95SAPC  H17Y 9352   4.336   5.942   4.244 -0.2255  0.0363  0.4436
   95SAPC  C318 9353   4.349   5.890   4.452  0.0899 -0.1539  0.3781
   95SAPC  H18X 9354   4.312   5.807   4.516  1.7394  0.0026  1.5795
   95SAPC  H18Y 9355   4.325   5.990   4.494 -0.4742 -1.1548  2.5745
   95SAPC  H18Z 9356   4.460   5.879   4.454  0.1470  0.5005  1.8656
   96SAPC     N 9357   4.955   6.956   1.806 -0.6563  0.1667 -0.5070
   96SAPC   C12 9358   5.003   6.925   1.950  0.1655  1.6740 -0.0678
   96SAPC  H12A 9359   4.978   7.005   2.019 -0.2195  1.3369  0.1884
   96SAPC  H12B 9360   5.111   6.914   1.949  0.1056  1.0404 -0.0943
   96SAPC   C13 9361   5.021   7.082   1.760 -0.0648  0.2992 -0.0970
   96SAPC  H13A 9362   4.992   7.165   1.822 -0.9859  0.0574 -0.1925
   96SAPC  H13B 9363   5.128   7.075   1.746  0.0781  3.7190 -1.6660
   96SAPC  H13C 9364   4.991   7.118   1.662 -1.0223  0.4978  0.2606
   96SAPC   C14 9365   4.986   6.841   1.714 -0.8012 -0.1343 -0.0325
   96SAPC  H14A 9366   4.929   6.756   1.747 -2.1323  0.5817 -0.4086
   96SAPC  H14B 9367   4.941   6.860   1.617  0.5850  0.5141 -0.5720
   96SAPC  H14C 9368   5.092   6.827   1.700 -0.3957  0.3074  2.1642
   96SAPC   C15 9369   4.800   6.973   1.803 -0.7005 -0.1160  0.0626
   96SAPC  H15A 9370   4.784   7.080   1.806  2.9279  0.6120 -0.9212
   96SAPC  H15B 9371   4.759   6.941   1.708 -1.5593  1.1672 -0.0199
   96SAPC  H15C 9372   4.749   6.920   1.883 -1.6020  1.7947  0.8136
   96SAPC   C11 9373   4.941   6.793   2.022  0.3086 -0.5126 -0.2837
   96SAPC  H11A 9374   4.998   6.785   2.118  2.8697 -1.9251 -1.7990
   96SAPC  H11B 9375   4.986   6.702   1.977 -0.1185 -1.2092  0.6635
   96SAPC     P 9376   4.723   6.880   2.143  0.4018 -0.0143 -0.1136
   96SAPC   O13 9377   4.786   7.016   2.153  0.6454  0.1135  0.0890
   96SAPC   O14 9378   4.575   6.886   2.110 -0.6328 -0.2435  0.0056
   96SAPC   O12 9379   4.802   6.788   2.039  0.7185  0.0813  0.6952
   96SAPC   O11 9380   4.730   6.811   2.288 -0.6030  0.0621  0.5742
   96SAPC    C1 9381   4.730   6.676   2.304 -0.6052  0.2481  0.0003
   96SAPC    HA 9382   4.808   6.633   2.238 -0.9516  0.7624 -0.7635
   96SAPC    HB 9383   4.768   6.658   2.407 -0.3437 -0.4005 -0.2090
   96SAPC    C2 9384   4.611   6.595   2.285  1.1246 -0.3235 -0.6446
   96SAPC    HS 9385   4.599   6.584   2.176  3.9787  1.0853 -1.1900
   96SAPC   O21 9386   4.501   6.661   2.340 -0.0740  0.3278 -0.0263
   96SAPC   C21 9387   4.388   6.617   2.298  0.5326 -0.8953 -0.1592
   96SAPC   O22 9388   4.360   6.515   2.237 -0.3801 -0.1092 -0.3690
   96SAPC   C22 9389   4.281   6.719   2.334  0.1700 -0.5609  0.2880
   96SAPC   H2R 9390   4.328   6.797   2.398 -0.2306 -0.2530  0.2132
   96SAPC   H2S 9391   4.246   6.773   2.244  1.5685  0.1664  0.1520
   96SAPC    C3 9392   4.622   6.454   2.350 -0.0773  0.4954 -0.7129
   96SAPC    HX 9393   4.542   6.387   2.313  0.2968 -0.4938  0.1990
   96SAPC    HY 9394   4.604   6.465   2.459  2.9817  0.6812 -0.1322
   96SAPC   O31 9395   4.757   6.400   2.323  0.1402  0.6547 -0.2673
   96SAPC   C31 9396   4.767   6.310   2.221  0.2726  0.6683  0.4640
   96SAPC   O32 9397   4.674   6.270   2.154 -0.4088  0.4771  0.5234
   96SAPC   C32 9398   4.912   6.272   2.202 -0.4348  0.4770  0.4316
   96SAPC   H2X 9399   4.974   6.361   2.227  0.0987  0.1605  0.2523
   96SAPC   H2Y 9400   4.937   6.234   2.101 -1.8377  0.9036 -0.0906
   96SAPC   C23 9401   4.170   6.661   2.414 -0.3027  0.3986  0.2894
   96SAPC   H3R 9402   4.139   6.564   2.370 -0.3041 -0.7556  2.6717
   96SAPC   H3S 9403   4.080   6.723   2.397 -0.8817 -0.9287 -2.0257
   96SAPC   C24 9404   4.209   6.645   2.565  0.1203  0.7506  0.7050
   96SAPC   H4R 9405   4.228   6.743   2.612  2.1015  0.4333  0.6630
   96SAPC   H4S 9406   4.311   6.602   2.571  0.1102  0.7002  0.5367
   96SAPC   C25 9407   4.097   6.571   2.634  0.6873 -0.1445  0.1031
   96SAPC   H5R 9408   4.040   6.513   2.561  2.5287 -1.4611 -0.3515
   96SAPC   C26 9409   4.065   6.571   2.764  0.3417 -0.0805  0.7460
   96SAPC   H6R 9410   3.974   6.520   2.800 -0.2502  0.4680  0.0623
   96SAPC   C27 9411   4.152   6.624   2.869  0.0428  0.2801 -0.0735
   96SAPC   H7R 9412   4.193   6.724   2.842 -1.4250  0.3652 -2.2890
   96SAPC   H7S 9413   4.235   6.551   2.880 -1.5695 -1.4267  1.4319
   96SAPC   C28 9414   4.082   6.640   3.003 -0.3412 -1.0532  0.5036
   96SAPC   H8R 9415   3.979   6.677   3.016  0.8993  3.2090 -0.2744
   96SAPC   C29 9416   4.143   6.626   3.124 -0.2578 -0.6900 -0.6359
   96SAPC   H9R 9417   4.079   6.647   3.211 -1.8647 -1.3021 -1.6247
   96SAPC  C210 9418   4.281   6.581   3.159  0.3036  0.1566  0.9236
   96SAPC  H10R 9419   4.329   6.535   3.070 -2.5411 -0.4563 -0.3896
   96SAPC  H10S 9420   4.269   6.499   3.232 -1.8685  1.4944  2.1726
   96SAPC  C211 9421   4.367   6.687   3.209 -0.2078 -0.2339 -0.0239
   96SAPC  H11R 9422   4.372   6.777   3.145 -1.6349  0.9733  1.4688
   96SAPC  C212 9423   4.450   6.677   3.315 -0.1105  0.1788 -0.5281
   96SAPC  H12R 9424   4.516   6.762   3.335 -0.7660  0.9380 -1.5001
   96SAPC  C213 9425   4.462   6.560   3.412 -0.4355  0.0560 -0.4608
   96SAPC  H13R 9426   4.566   6.521   3.405 -1.1349 -2.1569  0.4861
   96SAPC  H13S 9427   4.393   6.473   3.400 -2.0521  1.1294  0.6901
   96SAPC  C214 9428   4.426   6.591   3.555  0.2276 -0.2021 -0.1479
   96SAPC  H14R 9429   4.320   6.617   3.566  0.5658  1.0159  0.4689
   96SAPC  C215 9430   4.495   6.582   3.674 -0.1523 -0.0549  0.1198
   96SAPC  H15R 9431   4.450   6.625   3.765  0.6003  0.6043  0.1894
   96SAPC  C216 9432   4.634   6.528   3.696  0.2221  0.2414 -0.8109
   96SAPC  H16R 9433   4.683   6.511   3.598 -0.0857  0.5709 -1.0207
   96SAPC  H16S 9434   4.633   6.441   3.766 -1.5952  0.9748  0.1456
   96SAPC  C217 9435   4.714   6.645   3.766  0.3433  0.1736 -0.6987
   96SAPC  H17R 9436   4.667   6.746   3.760 -0.0721 -0.0862 -2.4249
   96SAPC  H17S 9437   4.816   6.657   3.724  0.4876 -0.2213 -0.4657
   96SAPC  C218 9438   4.733   6.625   3.917 -0.1157  0.7630  0.2449
   96SAPC  H18R 9439   4.803   6.543   3.946 -0.0780  1.5186  2.4692
   96SAPC  H18S 9440   4.638   6.602   3.970 -0.0514  0.6088  0.2975
   96SAPC  C219 9441   4.798   6.754   3.987 -0.3100  0.6237 -0.9321
   96SAPC  H19R 9442   4.796   6.745   4.098  0.4255  0.8464 -0.8982
   96SAPC  H19S 9443   4.737   6.843   3.958 -0.9036  1.5458  2.6396
   96SAPC  C220 9444   4.935   6.801   3.942 -0.0225 -0.2145 -0.4432
   96SAPC  H20R 9445   4.954   6.896   3.995  1.7149 -0.0278 -1.3068
   96SAPC  H20S 9446   4.938   6.816   3.832 -1.1337  2.0216 -0.2094
   96SAPC  H20T 9447   5.015   6.727   3.964 -1.0438 -1.0218  0.6851
   96SAPC   C33 9448   4.963   6.176   2.316 -0.1959 -0.2455 -0.1290
   96SAPC   H3X 9449   4.944   6.220   2.416 -0.2211 -0.6852  0.0647
   96SAPC   H3Y 9450   5.073   6.164   2.306  0.0494  1.8257 -0.2287
   96SAPC   C34 9451   4.886   6.041   2.316 -0.0103 -0.5151  0.0599
   96SAPC   H4X 9452   4.896   6.001   2.213 -0.2866 -0.3455 -0.0328
   96SAPC   H4Y 9453   4.780   6.066   2.337  0.5963  1.8653  0.5951
   96SAPC   C35 9454   4.949   5.940   2.414 -0.0072  0.4276 -0.6640
   96SAPC   H5X 9455   4.943   5.990   2.513  0.7835  0.8055 -0.7978
   96SAPC   H5Y 9456   5.057   5.927   2.391 -0.3147  2.9375 -4.3562
   96SAPC   C36 9457   4.883   5.802   2.409  0.2198 -0.5796  0.3585
   96SAPC   H6X 9458   4.895   5.760   2.307  1.5419  1.2958 -0.3066
   96SAPC   H6Y 9459   4.774   5.804   2.431 -0.1118  0.7348 -1.2015
   96SAPC   C37 9460   4.938   5.699   2.514 -0.5643  0.1622  0.3369
   96SAPC   H7X 9461   5.049   5.695   2.516 -0.5866 -0.4077  1.7630
   96SAPC   H7Y 9462   4.901   5.597   2.487  1.3840 -0.2804 -0.8436
   96SAPC   C38 9463   4.887   5.744   2.659 -0.4084 -0.8345 -0.4638
   96SAPC   H8X 9464   4.783   5.781   2.647 -0.2013 -1.1147 -3.9997
   96SAPC   H8Y 9465   4.938   5.839   2.687 -1.3244 -0.1560 -1.0399
   96SAPC   C39 9466   4.897   5.633   2.761  0.5994 -1.0626  0.0368
   96SAPC   H9X 9467   4.993   5.581   2.741  1.0320  0.5447 -2.5220
   96SAPC   H9Y 9468   4.806   5.576   2.730 -0.8948  1.5281 -0.7024
   96SAPC  C310 9469   4.880   5.672   2.908  0.3161 -0.2046  0.2558
   96SAPC  H10X 9470   4.781   5.724   2.908 -0.6967 -2.0445  0.7472
   96SAPC  H10Y 9471   4.961   5.743   2.933  0.8041 -0.6894  0.0641
   96SAPC  C311 9472   4.883   5.553   3.013  0.5163  0.2095  0.0369
   96SAPC  H11X 9473   4.962   5.481   2.982 -2.4127 -3.0784 -0.4710
   96SAPC  H11Y 9474   4.787   5.496   3.015  0.7709 -0.2096  1.7705
   96SAPC  C312 9475   4.895   5.607   3.154 -0.0686  1.1163 -0.5478
   96SAPC  H12X 9476   4.815   5.678   3.182 -1.9898 -0.4844 -1.7438
   96SAPC  H12Y 9477   4.991   5.659   3.178 -0.8197  0.9161  3.6137
   96SAPC  C313 9478   4.892   5.498   3.264 -0.3330 -0.2186  0.4763
   96SAPC  H13X 9479   4.968   5.419   3.244 -1.1550 -1.5140  2.2337
   96SAPC  H13Y 9480   4.796   5.443   3.257 -0.8244  0.6817  0.0115
   96SAPC  C314 9481   4.931   5.556   3.399 -1.1574 -0.9209  0.7502
   96SAPC  H14X 9482   4.864   5.642   3.422  2.1975  1.6243  1.7272
   96SAPC  H14Y 9483   5.033   5.598   3.396 -0.5178 -2.4218  0.4766
   96SAPC  C315 9484   4.924   5.457   3.510  0.1476  0.1860 -1.1317
   96SAPC  H15X 9485   5.004   5.381   3.503  0.8961  1.0159 -1.9360
   96SAPC  H15Y 9486   4.823   5.412   3.517 -0.5092  1.4580 -2.0475
   96SAPC  C316 9487   4.928   5.512   3.658 -0.1645 -0.6956  0.0154
   96SAPC  H16X 9488   4.832   5.565   3.672 -1.1963 -2.8457  1.6023
   96SAPC  H16Y 9489   5.006   5.587   3.682  0.4927 -1.3068 -0.1552
   96SAPC  C317 9490   4.925   5.404   3.769  0.0783  0.0976 -0.2621
   96SAPC  H17X 9491   5.016   5.342   3.759 -0.2063 -0.5236  0.8477
   96SAPC  H17Y 9492   4.830   5.346   3.771 -0.8308  1.5111  2.6068
   96SAPC  C318 9493   4.924   5.476   3.902  0.0891 -0.3440  0.9289
   96SAPC  H18X 9494   4.938   5.400   3.982  0.7494  0.4917  1.6281
   96SAPC  H18Y 9495   4.834   5.540   3.916 -0.1890 -0.4280 -0.4177
   96SAPC  H18Z 9496   5.010   5.546   3.904 -0.4604  0.3793 -0.0485
   97SAPC     N 9497   4.010   6.169   1.854  0.3922 -0.1879  0.7912
   97SAPC   C12 9498   4.008   6.130   2.000 -0.0225 -0.2045  0.4074
   97SAPC  H12A 9499   3.970   6.213   2.058  3.6826  1.0776  1.2755
   97SAPC  H12B 9500   4.111   6.115   2.030  0.9531  1.5899 -1.7580
   97SAPC   C13 9501   4.046   6.061   1.768  0.0761  0.4315  0.0008
   97SAPC  H13A 9502   3.970   5.986   1.781  0.6103 -0.8815 -3.4679
   97SAPC  H13B 9503   4.058   6.086   1.664  0.2590 -1.0335 -0.3423
   97SAPC  H13C 9504   4.142   6.024   1.801  0.0515  0.4117  0.0510
   97SAPC   C14 9505   3.885   6.229   1.809  0.1172 -0.1166 -0.8676
   97SAPC  H14A 9506   3.801   6.173   1.846  0.8223  1.0732  3.0136
   97SAPC  H14B 9507   3.882   6.326   1.857 -0.3132  1.6671 -4.2028
   97SAPC  H14C 9508   3.886   6.231   1.701  0.8071 -2.2933 -0.9479
   97SAPC   C15 9509   4.117   6.274   1.846 -0.0945  0.2920  0.2287
   97SAPC  H15A 9510   4.128   6.326   1.752  0.6622  0.4059  0.3786
   97SAPC  H15B 9511   4.104   6.346   1.926  1.2506 -1.8166  2.4797
   97SAPC  H15C 9512   4.209   6.225   1.870 -1.1347 -1.0281  1.6893
   97SAPC   C11 9513   3.921   6.016   2.038  0.4418  0.3998 -0.8091
   97SAPC  H11A 9514   3.943   5.978   2.140  1.5543  1.4475 -0.6403
   97SAPC  H11B 9515   3.948   5.929   1.974  1.3611 -0.5494  0.7995
   97SAPC     P 9516   3.704   6.127   2.128  0.2577 -0.3128 -0.2203
   97SAPC   O13 9517   3.774   6.249   2.174 -0.3351  0.0685  0.2591
   97SAPC   O14 9518   3.569   6.144   2.069  0.5051  0.0094 -0.4414
   97SAPC   O12 9519   3.786   6.051   2.015  0.2404  0.4073 -0.3440
   97SAPC   O11 9520   3.701   6.017   2.244  0.1896 -0.0568 -0.3172
   97SAPC    C1 9521   3.593   6.003   2.330  0.0904  0.0223  0.4917
   97SAPC    HA 9522   3.497   6.042   2.288  0.7286  0.3927 -0.6639
   97SAPC    HB 9523   3.577   5.897   2.357  1.3015  0.4022  2.9871
   97SAPC    C2 9524   3.628   6.068   2.469 -0.1825  0.2185  0.3427
   97SAPC    HS 9525   3.556   6.051   2.552 -0.4688 -0.0883  0.0312
   97SAPC   O21 9526   3.644   6.212   2.449 -0.1406 -0.5124 -0.2704
   97SAPC   C21 9527   3.540   6.288   2.435  0.3352 -0.2866 -0.4207
   97SAPC   O22 9528   3.425   6.247   2.427 -0.1501  0.1530  0.0515
   97SAPC   C22 9529   3.580   6.430   2.408 -0.1964 -0.0694  0.0028
   97SAPC   H2R 9530   3.651   6.414   2.324 -0.4432 -2.1167  0.1368
   97SAPC   H2S 9531   3.499   6.491   2.363  0.6830 -0.6715 -2.5810
   97SAPC    C3 9532   3.760   6.018   2.528 -0.2769  0.0506 -0.2408
   97SAPC    HX 9533   3.843   6.043   2.458 -1.7412  0.7026 -1.8157
   97SAPC    HY 9534   3.770   5.907   2.530  2.4891  0.2072 -0.9688
   97SAPC   O31 9535   3.790   6.067   2.663  0.6363  0.2142  0.2187
   97SAPC   C31 9536   3.885   6.161   2.675 -0.0894 -0.5407  0.1504
   97SAPC   O32 9537   3.935   6.222   2.582  0.2592 -0.1621  0.0961
   97SAPC   C32 9538   3.891   6.197   2.821 -0.0969 -0.1774 -0.2679
   97SAPC   H2X 9539   3.921   6.303   2.835  1.3908 -0.4206 -1.3736
   97SAPC   H2Y 9540   3.979   6.144   2.862  1.8717  0.6669 -3.1022
   97SAPC   C23 9541   3.633   6.501   2.539 -0.7914  0.1554 -0.2062
   97SAPC   H3R 9542   3.723   6.556   2.504 -0.1155  0.6770  2.1370
   97SAPC   H3S 9543   3.685   6.428   2.605  3.8039  2.1323 -1.2121
   97SAPC   C24 9544   3.527   6.581   2.604  0.3307  0.8843 -0.8938
   97SAPC   H4R 9545   3.465   6.633   2.528  0.1653  2.6267  0.3557
   97SAPC   H4S 9546   3.580   6.655   2.669 -0.1773 -1.5718  2.5585
   97SAPC   C25 9547   3.442   6.490   2.689 -0.2565  0.9768  0.5835
   97SAPC   H5R 9548   3.375   6.424   2.633 -1.0773  0.8925  1.6276
   97SAPC   C26 9549   3.442   6.482   2.823  0.2594 -0.1107 -0.4130
   97SAPC   H6R 9550   3.370   6.420   2.879 -0.5737  0.5312 -0.7644
   97SAPC   C27 9551   3.527   6.561   2.916 -0.2017 -0.5952 -0.1563
   97SAPC   H7R 9552   3.625   6.590   2.871 -1.1552  1.1066 -1.2453
   97SAPC   H7S 9553   3.554   6.491   2.998 -0.9744  0.6720  1.2177
   97SAPC   C28 9554   3.464   6.684   2.968 -0.1396  0.2208 -0.6347
   97SAPC   H8R 9555   3.391   6.738   2.905  0.6652  1.2172 -0.7299
   97SAPC   C29 9556   3.498   6.744   3.084 -0.2794  0.6760 -0.2671
   97SAPC   H9R 9557   3.446   6.836   3.115 -1.0916  0.3080 -0.5102
   97SAPC  C210 9558   3.625   6.715   3.168  0.9688 -0.4780  0.1572
   97SAPC  H10R 9559   3.664   6.818   3.182 -1.4683  0.8767 -2.1049
   97SAPC  H10S 9560   3.696   6.658   3.104 -0.2381  0.1853 -1.8454
   97SAPC  C211 9561   3.608   6.643   3.302 -0.1953  0.0523  0.2776
   97SAPC  H11R 9562   3.517   6.583   3.310 -0.8154  0.3885 -2.9088
   97SAPC  C212 9563   3.688   6.662   3.404 -0.0112  0.1036 -0.5510
   97SAPC  H12R 9564   3.663   6.615   3.500 -0.4897 -1.9304 -1.6214
   97SAPC  C213 9565   3.815   6.742   3.407  0.2145 -0.3827 -0.8970
   97SAPC  H13R 9566   3.800   6.841   3.455  2.8062  0.1037 -0.9443
   97SAPC  H13S 9567   3.848   6.766   3.303  1.4616  1.9670 -0.0201
   97SAPC  C214 9568   3.925   6.668   3.484  0.3783  0.2705 -0.3556
   97SAPC  H14R 9569   3.912   6.560   3.472  1.2927  0.1817 -0.5923
   97SAPC  C215 9570   4.030   6.720   3.560  0.2777  1.1652 -0.3960
   97SAPC  H15R 9571   4.103   6.653   3.607 -0.8869  0.5356  0.5994
   97SAPC  C216 9572   4.070   6.863   3.564 -0.5867  0.3430  0.3659
   97SAPC  H16R 9573   4.024   6.921   3.481  0.6995  2.3930  1.0210
   97SAPC  H16S 9574   4.180   6.881   3.559  0.0034 -2.0813  2.5425
   97SAPC  C217 9575   4.027   6.916   3.702  0.4976 -1.2180 -0.2332
   97SAPC  H17R 9576   4.072   6.859   3.786 -1.0800  0.4108  1.8392
   97SAPC  H17S 9577   3.919   6.893   3.704 -0.8072  3.4581 -2.2405
   97SAPC  C218 9578   4.031   7.074   3.716  0.4860 -0.0453 -0.6174
   97SAPC  H18R 9579   3.961   7.126   3.646  1.0112  4.2851  1.7064
   97SAPC  H18S 9580   4.140   7.094   3.705  0.3304  0.4375 -1.4140
   97SAPC  C219 9581   3.994   7.110   3.863  0.6186 -0.2014  0.0432
   97SAPC  H19R 9582   3.905   7.049   3.889  0.6935 -0.6611 -0.7417
   97SAPC  H19S 9583   3.962   7.216   3.867 -1.3167 -0.7698  0.7480
   97SAPC  C220 9584   4.090   7.078   3.978 -0.1467  0.0116  0.0615
   97SAPC  H20R 9585   4.185   7.132   3.960 -1.1541  1.9911  0.3582
   97SAPC  H20S 9586   4.089   6.967   3.980 -0.1750  0.0194  1.4701
   97SAPC  H20T 9587   4.048   7.099   4.079 -1.0339  0.3507 -0.3651
   97SAPC   C33 9588   3.758   6.163   2.902 -0.4496 -0.0241  0.0989
   97SAPC   H3X 9589   3.690   6.085   2.860  0.2118 -1.0978  0.9618
   97SAPC   H3Y 9590   3.707   6.262   2.899 -0.5523 -0.0684  0.3237
   97SAPC   C34 9591   3.790   6.128   3.051  0.3006 -0.1080  0.3278
   97SAPC   H4X 9592   3.857   6.039   3.056 -0.6137 -0.8043  0.6058
   97SAPC   H4Y 9593   3.698   6.107   3.109 -0.7532  1.1642 -0.8342
   97SAPC   C35 9594   3.882   6.228   3.130  0.1927 -0.3410  0.0000
   97SAPC   H5X 9595   3.840   6.331   3.123 -0.7139 -0.7070 -0.1514
   97SAPC   H5Y 9596   3.987   6.235   3.096  0.0740  0.4262 -0.2218
   97SAPC   C36 9597   3.868   6.212   3.282 -0.3099  0.7582  0.0679
   97SAPC   H6X 9598   3.878   6.107   3.317 -1.3409  0.7590  0.3815
   97SAPC   H6Y 9599   3.769   6.251   3.313 -0.6890 -1.2195  1.5364
   97SAPC   C37 9600   3.988   6.284   3.360  0.0926 -0.5368  0.4981
   97SAPC   H7X 9601   3.994   6.391   3.330  0.7042 -0.6056  0.3632
   97SAPC   H7Y 9602   4.075   6.225   3.324 -0.0799 -0.7124  0.3686
   97SAPC   C38 9603   3.969   6.267   3.509 -0.2367  0.0673  0.1941
   97SAPC   H8X 9604   3.959   6.159   3.531  1.3027 -0.6916 -2.3923
   97SAPC   H8Y 9605   3.880   6.326   3.542 -0.4359  0.2183 -0.6071
   97SAPC   C39 9606   4.100   6.314   3.573  0.0088 -0.0531 -0.1273
   97SAPC   H9X 9607   4.134   6.418   3.553 -1.1468  0.3259 -0.1982
   97SAPC   H9Y 9608   4.188   6.257   3.537  1.8648  3.8188 -2.4050
   97SAPC  C310 9609   4.090   6.296   3.718  0.4685 -0.3692 -0.5116
   97SAPC  H10X 9610   4.050   6.193   3.736 -1.1160  0.3313  0.2186
   97SAPC  H10Y 9611   4.002   6.355   3.753  0.3073 -0.6263 -0.4785
   97SAPC  C311 9612   4.207   6.329   3.806 -0.3055  0.0007 -0.8338
   97SAPC  H11X 9613   4.223   6.438   3.816 -0.5400 -0.0489  0.1814
   97SAPC  H11Y 9614   4.301   6.281   3.771 -0.1292  0.7595 -1.4143
   97SAPC  C312 9615   4.181   6.280   3.946  0.2537  0.0299 -0.2764
   97SAPC  H12X 9616   4.136   6.178   3.945 -0.0613  0.1364  1.3661
   97SAPC  H12Y 9617   4.096   6.342   3.980 -0.9278 -2.1144  0.8782
   97SAPC  C313 9618   4.307   6.292   4.031  0.1419 -0.2095 -0.3533
   97SAPC  H13X 9619   4.343   6.397   4.030 -0.8227  0.1652 -2.5190
   97SAPC  H13Y 9620   4.386   6.222   3.994  1.4225  1.4870 -0.9758
   97SAPC  C314 9621   4.291   6.260   4.181 -0.2018  0.3190 -0.2493
   97SAPC  H14X 9622   4.388   6.273   4.235 -0.4507  1.7230 -0.0975
   97SAPC  H14Y 9623   4.276   6.150   4.179 -0.0076  0.2955 -1.3593
   97SAPC  C315 9624   4.179   6.338   4.246  0.0767 -0.2088 -0.1548
   97SAPC  H15X 9625   4.087   6.347   4.185 -0.1277  1.3231  0.3383
   97SAPC  H15Y 9626   4.207   6.441   4.279 -1.4962 -0.4997  2.3562
   97SAPC  C316 9627   4.126   6.264   4.375  0.0030  0.2577 -1.0049
   97SAPC  H16X 9628   4.199   6.253   4.458 -1.0501  1.0856  0.0683
   97SAPC  H16Y 9629   4.085   6.166   4.343 -0.9152  0.2193  0.2199
   97SAPC  C317 9630   4.006   6.340   4.439 -0.1519  0.0436 -0.2075
   97SAPC  H17X 9631   3.936   6.375   4.359  0.1040  2.0838  0.4074
   97SAPC  H17Y 9632   4.051   6.423   4.496 -0.8933 -1.4840  2.7841
   97SAPC  C318 9633   3.933   6.255   4.546 -0.7062  0.7104  0.4294
   97SAPC  H18X 9634   3.825   6.253   4.522 -0.7546 -2.9435  0.3586
   97SAPC  H18Y 9635   3.950   6.300   4.646 -0.8939  0.8640  0.3924
   97SAPC  H18Z 9636   3.962   6.148   4.540 -1.9659  0.4279 -2.4668
   98SAPC     N 9637   6.039   6.588   1.976  0.6477  0.2639  0.2805
   98SAPC   C12 9638   6.189   6.584   1.995  0.5735 -0.8428 -0.1606
   98SAPC  H12A 9639   6.231   6.616   1.900 -0.0803  1.0146  0.1542
   98SAPC  H12B 9640   6.221   6.481   2.010 -0.9543 -0.9416  3.2680
   98SAPC   C13 9641   6.004   6.491   1.866 -0.2119 -0.5121 -0.0496
   98SAPC  H13A 9642   5.897   6.498   1.851  0.0260  1.5044 -1.0855
   98SAPC  H13B 9643   6.047   6.512   1.769 -0.7614  1.4793  0.1018
   98SAPC  H13C 9644   6.036   6.391   1.890 -0.8239 -0.8082 -0.4360
   98SAPC   C14 9645   5.957   6.557   2.103 -0.3435  0.4512 -0.5150
   98SAPC  H14A 9646   5.971   6.451   2.120 -0.2322  0.6443  0.6471
   98SAPC  H14B 9647   5.990   6.619   2.185 -0.9436  2.4058 -1.7027
   98SAPC  H14C 9648   5.851   6.565   2.090 -0.3705  1.5113  0.2451
   98SAPC   C15 9649   5.992   6.729   1.942 -0.5259  0.1894  0.1669
   98SAPC  H15A 9650   6.007   6.800   2.022  3.1147  1.9774 -1.8554
   98SAPC  H15B 9651   6.051   6.766   1.860  1.3633 -2.5153  0.1421
   98SAPC  H15C 9652   5.890   6.726   1.908 -0.5523 -1.2390  0.2791
   98SAPC   C11 9653   6.246   6.672   2.110  0.0903  0.5855  0.7247
   98SAPC  H11A 9654   6.229   6.780   2.090 -0.0810  0.5340  0.5923
   98SAPC  H11B 9655   6.355   6.653   2.103 -0.3090 -1.7166 -0.2345
   98SAPC     P 9656   6.258   6.501   2.305 -0.2368 -0.0404  0.1100
   98SAPC   O13 9657   6.160   6.469   2.413  0.2099 -0.3881 -0.4106
   98SAPC   O14 9658   6.279   6.388   2.212  0.4578 -0.5479 -0.6499
   98SAPC   O12 9659   6.201   6.636   2.237 -0.1668  0.4181 -0.2613
   98SAPC   O11 9660   6.393   6.531   2.379 -0.4537 -0.5847 -0.1208
   98SAPC    C1 9661   6.447   6.661   2.393  0.7347 -0.1141 -0.2214
   98SAPC    HA 9662   6.554   6.663   2.364  1.2734 -1.2496  1.5362
   98SAPC    HB 9663   6.391   6.745   2.347 -0.2499 -0.6855 -0.0969
   98SAPC    C2 9664   6.439   6.706   2.545  0.3824  0.5313  0.3562
   98SAPC    HS 9665   6.510   6.790   2.560  0.7898  0.1518  0.5898
   98SAPC   O21 9666   6.465   6.598   2.632  0.1061 -0.2193  0.1046
   98SAPC   C21 9667   6.578   6.536   2.618 -0.2189  1.4147 -0.5361
   98SAPC   O22 9668   6.669   6.559   2.536  0.7015 -0.5418  0.0396
   98SAPC   C22 9669   6.585   6.420   2.720  0.0015 -0.9964  0.1690
   98SAPC   H2R 9670   6.511   6.451   2.797  0.4019  2.5337 -0.7198
   98SAPC   H2S 9671   6.560   6.328   2.662 -0.9108 -0.5343 -0.2000
   98SAPC    C3 9672   6.300   6.777   2.589 -0.5300  0.1449  0.4185
   98SAPC    HX 9673   6.214   6.712   2.563  0.1949 -1.4630  1.7764
   98SAPC    HY 9674   6.280   6.868   2.530  2.0028 -0.5945 -1.8163
   98SAPC   O31 9675   6.298   6.807   2.733  0.1176  0.3911  0.1806
   98SAPC   C31 9676   6.368   6.912   2.771 -0.6006 -0.1472 -0.0082
   98SAPC   O32 9677   6.447   6.975   2.705  0.3615  0.1184 -0.3031
   98SAPC   C32 9678   6.317   6.939   2.916  0.8365  0.2376 -0.1939
   98SAPC   H2X 9679   6.353   6.871   2.997  1.4364  0.1505 -0.5265
   98SAPC   H2Y 9680   6.207   6.942   2.928  0.8945 -0.5038  0.6579
   98SAPC   C23 9681   6.729   6.409   2.771  0.1449 -0.5932 -0.1179
   98SAPC   H3R 9682   6.754   6.504   2.822 -1.0210  0.6747 -1.8203
   98SAPC   H3S 9683   6.806   6.397   2.691  0.8143  3.2426 -0.2526
   98SAPC   C24 9684   6.733   6.295   2.865 -0.6526 -0.3160 -0.5269
   98SAPC   H4R 9685   6.724   6.200   2.808 -1.2255 -0.6826  0.1492
   98SAPC   H4S 9686   6.651   6.288   2.940 -0.7477 -3.8713 -0.7765
   98SAPC   C25 9687   6.872   6.304   2.926 -0.5684  0.0360 -0.3608
   98SAPC   H5R 9688   6.957   6.250   2.884 -1.2190 -0.2246 -1.3850
   98SAPC   C26 9689   6.904   6.376   3.032  0.3072  0.3650 -0.5641
   98SAPC   H6R 9690   7.009   6.385   3.063  0.0367 -0.5854  0.6955
   98SAPC   C27 9691   6.795   6.444   3.112 -0.1664 -0.6227 -0.4721
   98SAPC   H7R 9692   6.724   6.500   3.047  1.0045  5.1686  2.5524
   98SAPC   H7S 9693   6.840   6.524   3.174  0.0066 -0.9983 -0.1077
   98SAPC   C28 9694   6.710   6.348   3.190 -0.1610 -0.4630 -0.1928
   98SAPC   H8R 9695   6.629   6.298   3.135 -0.8559  1.7810 -1.3403
   98SAPC   C29 9696   6.721   6.327   3.325  0.3248 -0.2348  0.0891
   98SAPC   H9R 9697   6.651   6.261   3.377 -0.3715 -2.1939 -3.0729
   98SAPC  C210 9698   6.834   6.381   3.411  0.3069  0.6153 -1.0294
   98SAPC  H10R 9699   6.806   6.486   3.435 -0.9263  0.2054 -0.6312
   98SAPC  H10S 9700   6.933   6.385   3.360  1.3155  0.7450  0.8755
   98SAPC  C211 9701   6.850   6.279   3.528 -0.2992 -0.1545 -0.1609
   98SAPC  H11R 9702   6.890   6.181   3.498 -0.1171 -0.1230 -0.0266
   98SAPC  C212 9703   6.823   6.298   3.663  0.4421  0.4731 -0.3361
   98SAPC  H12R 9704   6.855   6.224   3.738 -0.7490 -0.9790 -1.2140
   98SAPC  C213 9705   6.753   6.418   3.719  0.1671  0.1623  0.2602
   98SAPC  H13R 9706   6.662   6.401   3.779 -0.4192  0.0952 -0.6234
   98SAPC  H13S 9707   6.729   6.480   3.629 -2.1890  0.2229  0.8638
   98SAPC  C214 9708   6.861   6.492   3.791 -0.0485 -1.3403 -0.5841
   98SAPC  H14R 9709   6.950   6.515   3.730 -1.1332  2.1658 -1.1050
   98SAPC  C215 9710   6.855   6.563   3.907  0.0227  0.5868 -0.7026
   98SAPC  H15R 9711   6.954   6.607   3.928  0.1678 -0.3439  0.6532
   98SAPC  C216 9712   6.737   6.568   4.005  0.5232 -0.4877  1.0481
   98SAPC  H16R 9713   6.770   6.520   4.100 -1.7439 -0.6946  1.7765
   98SAPC  H16S 9714   6.643   6.519   3.973 -0.3917  0.2855  2.4311
   98SAPC  C217 9715   6.703   6.711   4.040 -0.7613 -0.0973  0.5368
   98SAPC  H17R 9716   6.798   6.750   4.083 -0.5216 -0.3932  0.2788
   98SAPC  H17S 9717   6.628   6.714   4.122  0.4573 -4.0972  2.0324
   98SAPC  C218 9718   6.645   6.788   3.927 -0.0969 -0.3438  0.0619
   98SAPC  H18R 9719   6.722   6.790   3.847  0.2720 -4.5328  0.0816
   98SAPC  H18S 9720   6.621   6.887   3.970 -0.2241 -0.1931 -0.3499
   98SAPC  C219 9721   6.515   6.734   3.876  0.1669 -0.2816 -0.5798
   98SAPC  H19R 9722   6.525   6.644   3.812 -2.9625 -1.1929  0.0458
   98SAPC  H19S 9723   6.477   6.808   3.802 -2.9088 -1.3342 -0.1855
   98SAPC  C220 9724   6.412   6.724   3.985 -0.4970 -0.1642 -0.5246
   98SAPC  H20R 9725   6.415   6.816   4.047  1.1763  0.2920 -1.2243
   98SAPC  H20S 9726   6.441   6.632   4.039 -1.1952  0.7224  1.4324
   98SAPC  H20T 9727   6.315   6.701   3.936  0.0129 -1.7667 -0.8123
   98SAPC   C33 9728   6.375   7.075   2.960 -0.4023  0.0716 -0.2560
   98SAPC   H3X 9729   6.382   7.142   2.871  1.3446 -0.9165 -0.8970
   98SAPC   H3Y 9730   6.482   7.056   2.981 -0.5831  1.3993  2.2312
   98SAPC   C34 9731   6.299   7.155   3.064 -0.5925 -0.1476 -0.0554
   98SAPC   H4X 9732   6.208   7.195   3.015  1.5523  4.5505 -0.7210
   98SAPC   H4Y 9733   6.358   7.245   3.088  0.2184 -0.7696  0.3352
   98SAPC   C35 9734   6.265   7.071   3.189  0.2661 -0.0855 -0.1665
   98SAPC   H5X 9735   6.357   7.036   3.239 -0.6808 -0.3535  1.4756
   98SAPC   H5Y 9736   6.209   6.979   3.160  0.5148  0.3314 -2.0806
   98SAPC   C36 9737   6.174   7.150   3.293  0.3330  0.1244  1.3829
   98SAPC   H6X 9738   6.069   7.138   3.261  1.2972 -1.1087 -1.7623
   98SAPC   H6Y 9739   6.205   7.256   3.297  1.4928 -0.0775 -0.6281
   98SAPC   C37 9740   6.177   7.090   3.429  0.3191  0.5132 -0.4352
   98SAPC   H7X 9741   6.102   7.142   3.493  0.6336  2.5152 -1.6037
   98SAPC   H7Y 9742   6.273   7.111   3.481  0.0533 -1.3457  0.8983
   98SAPC   C38 9743   6.141   6.943   3.444 -0.0160 -0.2275 -0.2828
   98SAPC   H8X 9744   6.199   6.892   3.365 -0.4531  1.9038 -2.0881
   98SAPC   H8Y 9745   6.031   6.928   3.428  0.1531  0.7614 -3.0158
   98SAPC   C39 9746   6.169   6.874   3.576  0.2969 -0.0547  0.0789
   98SAPC   H9X 9747   6.269   6.908   3.611 -0.0163 -0.3853  1.3481
   98SAPC   H9Y 9748   6.178   6.764   3.567  1.1217  0.1224 -1.5892
   98SAPC  C310 9749   6.072   6.916   3.688 -0.0634  0.0311 -0.9083
   98SAPC  H10X 9750   5.968   6.876   3.687  0.0729 -0.4801  0.9396
   98SAPC  H10Y 9751   6.060   7.026   3.693 -1.7483 -0.1656  1.9387
   98SAPC  C311 9752   6.115   6.856   3.822 -0.9477 -0.6672  0.1482
   98SAPC  H11X 9753   6.208   6.908   3.853 -0.7739  0.9218 -2.6829
   98SAPC  H11Y 9754   6.135   6.748   3.806 -0.1787 -0.3990 -0.8202
   98SAPC  C312 9755   6.012   6.880   3.930  0.4779 -0.0865 -0.1410
   98SAPC  H12X 9756   5.994   6.990   3.940 -1.6324 -0.3552 -0.3672
   98SAPC  H12Y 9757   6.051   6.841   4.026 -1.9252  1.8569  1.7770
   98SAPC  C313 9758   5.873   6.812   3.916 -0.3945 -0.0090 -0.3874
   98SAPC  H13X 9759   5.859   6.751   4.008 -0.7292 -1.1288 -1.1620
   98SAPC  H13Y 9760   5.885   6.742   3.831  0.6972  1.3385 -1.4117
   98SAPC  C314 9761   5.753   6.900   3.880 -0.3159  0.7510 -0.6495
   98SAPC  H14X 9762   5.661   6.837   3.887  1.2861 -1.6215  0.3255
   98SAPC  H14Y 9763   5.763   6.934   3.775  2.0253  1.8098 -0.1473
   98SAPC  C315 9764   5.722   7.021   3.962 -0.4137 -0.5299 -0.0858
   98SAPC  H15X 9765   5.789   7.106   3.939 -1.3293  0.1827 -0.1923
   98SAPC  H15Y 9766   5.733   7.007   4.072 -0.5743 -1.4237 -0.1735
   98SAPC  C316 9767   5.585   7.081   3.926  0.2023 -0.0868  0.3689
   98SAPC  H16X 9768   5.514   7.001   3.959 -0.5925  1.0467  1.5281
   98SAPC  H16Y 9769   5.587   7.107   3.818 -3.1457  1.2917  0.5131
   98SAPC  C317 9770   5.548   7.206   4.007 -0.2376  0.8770 -0.1083
   98SAPC  H17X 9771   5.605   7.292   3.965  0.8871  0.1900 -0.0291
   98SAPC  H17Y 9772   5.591   7.196   4.109 -1.3047 -0.9592  0.2046
   98SAPC  C318 9773   5.400   7.248   4.018  0.7990 -0.4969  0.6331
   98SAPC  H18X 9774   5.366   7.276   3.917  0.5185 -1.6094  0.4064
   98SAPC  H18Y 9775   5.399   7.333   4.090  2.0267 -0.5098  0.6886
   98SAPC  H18Z 9776   5.338   7.164   4.057  1.6074 -0.7572  1.4247
   99SAPC     N 9777   4.309   3.210   2.278 -0.1205 -0.1352  0.1013
   99SAPC   C12 9778   4.184   3.290   2.240  0.0974 -0.8506 -0.1243
   99SAPC  H12A 9779   4.116   3.217   2.198 -0.5225 -1.6140  2.0403
   99SAPC  H12B 9780   4.215   3.360   2.164 -2.4226  1.7482  1.0987
   99SAPC   C13 9781   4.399   3.300   2.351  0.4005 -0.0672 -0.0884
   99SAPC  H13A 9782   4.494   3.250   2.364  0.8881  0.1913 -2.2440
   99SAPC  H13B 9783   4.411   3.386   2.287  0.6367  0.0786  0.1526
   99SAPC  H13C 9784   4.341   3.326   2.438  0.2808 -0.1091 -0.1555
   99SAPC   C14 9785   4.272   3.090   2.355  0.4498  0.7345  0.7337
   99SAPC  H14A 9786   4.238   3.115   2.455 -0.3775  0.8720  0.4267
   99SAPC  H14B 9787   4.197   3.032   2.304  1.0718  0.8227 -0.3055
   99SAPC  H14C 9788   4.352   3.019   2.368 -0.5561 -0.3965  0.9252
   99SAPC   C15 9789   4.378   3.177   2.148 -0.0551  0.1879 -0.7661
   99SAPC  H15A 9790   4.465   3.115   2.167 -0.8427 -1.1359 -1.3077
   99SAPC  H15B 9791   4.307   3.136   2.078 -1.9522  1.0141  0.5965
   99SAPC  H15C 9792   4.404   3.270   2.100 -1.1112  1.0974  0.3591
   99SAPC   C11 9793   4.107   3.382   2.344  0.1771  0.5805  0.0076
   99SAPC  H11A 9794   4.117   3.338   2.446  0.0316  2.3573  0.8288
   99SAPC  H11B 9795   4.003   3.380   2.305  0.6745  1.1929 -1.4188
   99SAPC     P 9796   4.093   3.639   2.390  0.3594  0.4029  0.0986
   99SAPC   O13 9797   4.039   3.710   2.270 -0.1616  0.5253  0.1435
   99SAPC   O14 9798   3.989   3.598   2.491  0.5135  0.2058  0.5974
   99SAPC   O12 9799   4.173   3.509   2.344  0.1152 -0.7293 -0.6204
   99SAPC   O11 9800   4.203   3.725   2.462  0.5063 -0.7746  0.5310
   99SAPC    C1 9801   4.338   3.708   2.425  0.3096  0.2374  0.3853
   99SAPC    HA 9802   4.375   3.603   2.426  0.0265  0.1319  0.0350
   99SAPC    HB 9803   4.346   3.745   2.321  0.7392 -0.9034  0.0012
   99SAPC    C2 9804   4.437   3.804   2.493  0.6969  0.4413  0.2018
   99SAPC    HS 9805   4.540   3.792   2.453  1.7786  0.0634  2.9139
   99SAPC   O21 9806   4.442   3.789   2.636 -0.3344  0.3738  0.1165
   99SAPC   C21 9807   4.455   3.665   2.684  0.0678  0.4663 -0.3902
   99SAPC   O22 9808   4.477   3.558   2.627 -0.7833 -0.0470 -0.3681
   99SAPC   C22 9809   4.454   3.696   2.833  0.2953  0.3377  0.6874
   99SAPC   H2R 9810   4.535   3.634   2.878  0.9424 -0.2059 -1.1545
   99SAPC   H2S 9811   4.466   3.803   2.860 -0.1701  0.3781  0.7534
   99SAPC    C3 9812   4.405   3.955   2.457 -0.4060 -0.1591  0.4858
   99SAPC    HX 9813   4.298   3.970   2.485 -0.7159  0.2609 -0.8371
   99SAPC    HY 9814   4.408   3.980   2.349  0.5111  2.0992  0.9836
   99SAPC   O31 9815   4.492   4.058   2.525  0.8205  0.1315  0.4746
   99SAPC   C31 9816   4.628   4.068   2.498  0.0606  0.9319 -0.1500
   99SAPC   O32 9817   4.685   3.997   2.424 -0.1835  0.3919 -0.4751
   99SAPC   C32 9818   4.692   4.180   2.578 -0.2790 -0.4322 -0.1208
   99SAPC   H2X 9819   4.628   4.269   2.563 -0.2174 -0.3739 -0.0322
   99SAPC   H2Y 9820   4.798   4.194   2.545  0.2460  2.2453  2.3038
   99SAPC   C23 9821   4.324   3.662   2.895  0.2917 -0.2691 -0.3392
   99SAPC   H3R 9822   4.313   3.552   2.889 -1.5284 -0.1059 -0.4154
   99SAPC   H3S 9823   4.242   3.699   2.830 -0.9757 -2.6393 -0.1759
   99SAPC   C24 9824   4.312   3.722   3.039 -0.2321 -0.0427  0.1112
   99SAPC   H4R 9825   4.265   3.823   3.034  0.0655  0.1525  1.0653
   99SAPC   H4S 9826   4.415   3.726   3.081 -0.5819 -1.0179  1.1065
   99SAPC   C25 9827   4.225   3.626   3.123  0.1784  0.0189  0.5710
   99SAPC   H5R 9828   4.128   3.603   3.076  1.3030 -0.1308 -1.8639
   99SAPC   C26 9829   4.257   3.585   3.243  0.3974  0.0037 -0.7622
   99SAPC   H6R 9830   4.174   3.529   3.289 -0.0845  0.7569 -0.7039
   99SAPC   C27 9831   4.378   3.620   3.319 -0.0478  0.0713 -0.3594
   99SAPC   H7R 9832   4.350   3.699   3.393  0.2016 -1.4001  1.3691
   99SAPC   H7S 9833   4.453   3.660   3.248 -0.7192  2.3500  0.1264
   99SAPC   C28 9834   4.432   3.511   3.407  0.5314  0.7488  0.1480
   99SAPC   H8R 9835   4.362   3.434   3.443  1.9684 -1.0722 -0.7610
   99SAPC   C29 9836   4.560   3.485   3.437 -0.5637  0.2575 -0.9551
   99SAPC   H9R 9837   4.580   3.398   3.501  1.2531  1.6441  0.4931
   99SAPC  C210 9838   4.674   3.581   3.393 -0.5837  0.7272  0.0300
   99SAPC  H10R 9839   4.643   3.667   3.330 -1.7255  0.8297  0.7064
   99SAPC  H10S 9840   4.749   3.524   3.332 -0.4018  1.3349 -0.3216
   99SAPC  C211 9841   4.754   3.636   3.508 -0.3251 -0.5500 -0.1784
   99SAPC  H11R 9842   4.696   3.658   3.599 -0.5526 -1.4408 -0.1021
   99SAPC  C212 9843   4.883   3.668   3.503 -0.4109 -0.0353 -0.0174
   99SAPC  H12R 9844   4.913   3.742   3.578 -1.8842  2.0959 -1.4282
   99SAPC  C213 9845   4.988   3.634   3.397 -0.0707 -0.3150  0.6900
   99SAPC  H13R 9846   5.081   3.667   3.449  1.3997 -0.7017 -1.5689
   99SAPC  H13S 9847   4.977   3.697   3.306  0.5992  0.6376  1.2473
   99SAPC  C214 9848   5.007   3.495   3.351  0.1307 -0.1026  0.9779
   99SAPC  H14R 9849   5.023   3.423   3.432 -1.2287  0.7680  2.0682
   99SAPC  C215 9850   5.029   3.451   3.228 -0.7571  0.2226  0.2002
   99SAPC  H15R 9851   5.036   3.342   3.220  2.7558  0.1725  1.9266
   99SAPC  C216 9852   5.032   3.526   3.094  0.2427 -1.0762  0.8715
   99SAPC  H16R 9853   5.118   3.490   3.035  1.3194  0.2142  1.5996
   99SAPC  H16S 9854   5.056   3.633   3.109  0.7532 -0.7735 -1.6939
   99SAPC  C217 9855   4.900   3.516   3.016  0.1197 -0.2215 -0.2334
   99SAPC  H17R 9856   4.814   3.548   3.078 -0.3697  0.3968 -1.2157
   99SAPC  H17S 9857   4.880   3.410   2.989 -0.4307 -0.2536  0.2747
   99SAPC  C218 9858   4.900   3.605   2.893 -0.0776  0.0319  0.7201
   99SAPC  H18R 9859   5.005   3.614   2.858  0.5731 -0.3778  2.4714
   99SAPC  H18S 9860   4.862   3.703   2.929 -1.0272 -0.6410  1.5858
   99SAPC  C219 9861   4.816   3.555   2.776  0.2271  0.2444 -0.0379
   99SAPC  H19R 9862   4.706   3.554   2.791  0.2678  0.8414  0.3485
   99SAPC  H19S 9863   4.849   3.454   2.744  2.0733  0.8594 -0.1913
   99SAPC  C220 9864   4.843   3.645   2.658  0.4385 -0.1351  0.0993
   99SAPC  H20R 9865   4.954   3.647   2.654  0.4684 -0.1698  0.7846
   99SAPC  H20S 9866   4.813   3.752   2.661  0.3237 -0.1153 -1.3309
   99SAPC  H20T 9867   4.796   3.607   2.565 -2.2826  1.0324  0.9184
   99SAPC   C33 9868   4.680   4.156   2.726  1.2538 -0.4335  0.1905
   99SAPC   H3X 9869   4.571   4.177   2.740  1.4039  1.6157 -1.2570
   99SAPC   H3Y 9870   4.744   4.228   2.782  1.4519  0.0505 -0.6456
   99SAPC   C34 9871   4.719   4.019   2.783  0.0882 -0.8642  0.8148
   99SAPC   H4X 9872   4.828   4.002   2.766 -0.1788  0.6170 -3.5280
   99SAPC   H4Y 9873   4.662   3.933   2.743 -1.0098  0.3450 -0.3324
   99SAPC   C35 9874   4.713   4.017   2.937 -0.1684  0.1684  0.8662
   99SAPC   H5X 9875   4.808   4.061   2.972 -0.4126 -0.1067  1.9067
   99SAPC   H5Y 9876   4.710   3.908   2.962 -0.1805 -0.2655 -0.8514
   99SAPC   C36 9877   4.584   4.085   2.989 -0.5132 -1.0439  0.1620
   99SAPC   H6X 9878   4.489   4.041   2.951 -0.6074  0.0261 -0.8826
   99SAPC   H6Y 9879   4.579   4.191   2.958  1.1563 -0.5276  1.5118
   99SAPC   C37 9880   4.586   4.092   3.134 -0.1003 -0.1118 -1.0715
   99SAPC   H7X 9881   4.518   4.169   3.176  1.0364  0.2530  0.2021
   99SAPC   H7Y 9882   4.688   4.120   3.169  0.0491 -0.6875 -1.0447
   99SAPC   C38 9883   4.552   3.958   3.211  0.3545 -0.2307  0.2044
   99SAPC   H8X 9884   4.621   3.872   3.196  0.7602 -1.0399  4.9754
   99SAPC   H8Y 9885   4.455   3.917   3.177  0.3869  0.1038 -0.2969
   99SAPC   C39 9886   4.547   3.996   3.368  0.3861  0.3770 -0.3638
   99SAPC   H9X 9887   4.530   3.906   3.430  1.7114 -1.2354 -2.2013
   99SAPC   H9Y 9888   4.473   4.073   3.399  0.9409  1.0876 -0.7623
   99SAPC  C310 9889   4.690   4.048   3.420 -0.1511  0.6415 -0.0822
   99SAPC  H10X 9890   4.709   4.152   3.386 -1.4726  1.1326  0.6368
   99SAPC  H10Y 9891   4.770   3.981   3.380  0.4744  0.6941  1.0533
   99SAPC  C311 9892   4.710   4.045   3.572  0.6312  0.1197 -0.4050
   99SAPC  H11X 9893   4.740   3.946   3.614  2.3678  0.3515 -1.0347
   99SAPC  H11Y 9894   4.621   4.056   3.637  0.3228 -0.8402 -0.6429
   99SAPC  C312 9895   4.832   4.129   3.627  0.0338 -0.0029  0.7365
   99SAPC  H12X 9896   4.816   4.234   3.595  2.4481  0.4104  0.7464
   99SAPC  H12Y 9897   4.920   4.109   3.562 -0.9247  1.4547 -1.1228
   99SAPC  C313 9898   4.853   4.111   3.781  0.2849  0.0700 -1.3817
   99SAPC  H13X 9899   4.751   4.099   3.823  0.6753  2.6342  0.5064
   99SAPC  H13Y 9900   4.890   4.200   3.835 -0.1560 -1.5456  1.8828
   99SAPC  C314 9901   4.930   3.984   3.818  0.0341 -0.1186  0.3346
   99SAPC  H14X 9902   5.029   3.979   3.769 -0.5752 -2.1635 -0.8222
   99SAPC  H14Y 9903   4.880   3.891   3.782  2.5656 -0.6485 -2.1779
   99SAPC  C315 9904   4.953   3.962   3.973 -0.3324  0.2893  0.1600
   99SAPC  H15X 9905   4.851   3.949   4.013  0.2526  0.1579  1.6428
   99SAPC  H15Y 9906   4.985   4.061   4.013  0.7811  0.3501 -0.8161
   99SAPC  C316 9907   5.050   3.857   4.022  0.8171  0.0915 -0.1110
   99SAPC  H16X 9908   5.145   3.886   3.972  0.4434  3.3074  0.8222
   99SAPC  H16Y 9909   5.009   3.758   3.993 -0.6792  0.9064 -0.8847
   99SAPC  C317 9910   5.072   3.869   4.177  0.6537 -0.1354  0.2755
   99SAPC  H17X 9911   4.971   3.837   4.213  0.4730 -1.1687 -1.0903
   99SAPC  H17Y 9912   5.087   3.975   4.207  0.2067  0.1999 -0.6679
   99SAPC  C318 9913   5.178   3.773   4.235  0.4082 -0.2196 -0.5649
   99SAPC  H18X 9914   5.276   3.819   4.208  0.3474 -0.1377 -0.6454
   99SAPC  H18Y 9915   5.162   3.670   4.198  1.3930 -0.7716  0.4716
   99SAPC  H18Z 9916   5.172   3.766   4.346 -0.5133  2.4163 -0.3866
  100SAPC     N 9917   0.550   1.559   1.722 -0.9510 -0.5453  0.5833
  100SAPC   C12 9918   0.521   1.695   1.777  0.0535 -0.5978  0.5007
  100SAPC  H12A 9919   0.414   1.700   1.790 -0.4587 -3.4064 -1.6177
  100SAPC  H12B 9920   0.554   1.762   1.699  0.9744 -0.9661  0.5539
  100SAPC   C13 9921   0.517   1.459   1.826  0.7120  0.6115  0.5203
  100SAPC  H13A 9922   0.545   1.359   1.797  0.2893  0.4334  0.7169
  100SAPC  H13B 9923   0.560   1.473   1.924 -0.8974 -2.1681  1.7306
  100SAPC  H13C 9924   0.410   1.454   1.841  0.3029  3.6727 -0.5115
  100SAPC   C14 9925   0.472   1.539   1.594 -0.3395  0.4542  0.0843
  100SAPC  H14A 9926   0.366   1.540   1.614 -0.5048  1.7645 -0.7235
  100SAPC  H14B 9927   0.502   1.606   1.514 -0.5487 -1.3072 -1.5336
  100SAPC  H14C 9928   0.493   1.441   1.555 -0.9196  0.2898  0.1784
  100SAPC   C15 9929   0.693   1.542   1.687  0.1913  0.1729  0.1317
  100SAPC  H15A 9930   0.753   1.577   1.770 -0.5230  0.0180  0.7252
  100SAPC  H15B 9931   0.725   1.443   1.660  0.3100  0.2661 -0.0686
  100SAPC  H15C 9932   0.724   1.612   1.611 -1.3939  1.0474  0.2271
  100SAPC   C11 9933   0.577   1.744   1.909  0.1091  0.3537 -0.0013
  100SAPC  H11A 9934   0.525   1.695   1.994  0.4951  0.9167  0.5671
  100SAPC  H11B 9935   0.533   1.845   1.924 -2.1816 -0.4712 -0.7569
  100SAPC     P 9936   0.803   1.731   2.049  0.3469 -0.7358  0.4839
  100SAPC   O13 9937   0.845   1.594   2.067  0.0392  0.2892  0.3735
  100SAPC   O14 9938   0.912   1.830   2.043  0.3287 -0.0002 -0.5648
  100SAPC   O12 9939   0.721   1.743   1.912  0.7642 -0.2441 -0.1286
  100SAPC   O11 9940   0.697   1.760   2.163 -0.2259 -0.1561 -0.4918
  100SAPC    C1 9941   0.648   1.899   2.185  0.0404  0.0718 -0.2004
  100SAPC    HA 9942   0.671   1.975   2.108  2.8463 -0.1448  0.3092
  100SAPC    HB 9943   0.538   1.902   2.170 -0.0046  0.6172  0.2160
  100SAPC    C2 9944   0.676   1.952   2.331 -0.5153 -0.2374 -0.3708
  100SAPC    HS 9945   0.623   2.047   2.354 -0.9967 -0.5482 -0.1520
  100SAPC   O21 9946   0.818   1.981   2.358 -0.4427 -0.0206 -0.0651
  100SAPC   C21 9947   0.888   2.050   2.273  0.3957 -0.6242  0.5594
  100SAPC   O22 9948   0.859   2.106   2.170 -0.2490  0.0606  0.0917
  100SAPC   C22 9949   1.026   2.073   2.338 -0.7282 -0.3999 -0.7815
  100SAPC   H2R 9950   1.074   1.973   2.335  0.0388 -0.1270  1.1121
  100SAPC   H2S 9951   1.092   2.132   2.269  0.4256 -0.1240  0.5146
  100SAPC    C3 9952   0.643   1.861   2.450 -0.4709 -0.0943 -0.6713
  100SAPC    HX 9953   0.718   1.779   2.444  0.3311  0.6661 -1.3328
  100SAPC    HY 9954   0.542   1.814   2.448  0.4602 -2.4400  1.0458
  100SAPC   O31 9955   0.653   1.931   2.579  0.4191  0.0244  0.3398
  100SAPC   C31 9956   0.549   2.008   2.610  0.0563  0.4709  0.4154
  100SAPC   O32 9957   0.443   2.009   2.554 -0.3787  0.3334 -0.0458
  100SAPC   C32 9958   0.574   2.089   2.730 -0.4306  0.1662 -0.0534
  100SAPC   H2X 9959   0.526   2.025   2.807  0.6358  0.3518  0.7767
  100SAPC   H2Y 9960   0.517   2.184   2.720  0.5721  0.6284 -1.9981
  100SAPC   C23 9961   1.027   2.136   2.483 -0.4783  0.1403 -0.6372
  100SAPC   H3R 9962   1.002   2.047   2.544  0.4912 -0.4345 -1.0615
  100SAPC   H3S 9963   0.946   2.211   2.496  0.1122  0.4156  1.8334
  100SAPC   C24 9964   1.160   2.204   2.531  0.4164 -0.2202  0.0688
  100SAPC   H4R 9965   1.245   2.136   2.508  0.2512  0.4100 -2.7918
  100SAPC   H4S 9966   1.156   2.217   2.641  0.0228 -0.5956  0.1002
  100SAPC   C25 9967   1.180   2.328   2.449  0.0878 -0.1349  0.8602
  100SAPC   H5R 9968   1.215   2.307   2.347 -1.8675 -1.4792  0.4328
  100SAPC   C26 9969   1.177   2.461   2.479 -0.4874  0.0172  0.4277
  100SAPC   H6R 9970   1.217   2.536   2.408 -2.3006 -0.4670 -1.1990
  100SAPC   C27 9971   1.143   2.505   2.623  0.2915  0.0052  0.0649
  100SAPC   H7R 9972   1.166   2.612   2.638  1.9877 -0.3598  0.2852
  100SAPC   H7S 9973   1.224   2.463   2.686  2.1017  1.2911 -1.3120
  100SAPC   C28 9974   1.017   2.457   2.687  1.3494  0.4347  0.6528
  100SAPC   H8R 9975   0.958   2.392   2.621  3.0684 -0.7714  0.2339
  100SAPC   C29 9976   0.950   2.510   2.790  0.0049 -0.2373 -0.3353
  100SAPC   H9R 9977   0.858   2.466   2.833 -0.3520  0.4073 -0.4219
  100SAPC  C210 9978   1.010   2.614   2.887  0.4137  0.9301 -0.1124
  100SAPC  H10R 9979   1.101   2.659   2.842 -0.1850  2.5983  0.2775
  100SAPC  H10S 9980   1.053   2.557   2.972 -0.3505 -1.2737 -1.1270
  100SAPC  C211 9981   0.921   2.731   2.919 -0.5405  0.1846 -0.4837
  100SAPC  H11R 9982   0.921   2.808   2.840  3.0642  1.3728  0.4582
  100SAPC  C212 9983   0.846   2.746   3.032 -0.4516  0.0475 -0.3724
  100SAPC  H12R 9984   0.783   2.836   3.041 -0.9031 -0.4717  3.0572
  100SAPC  C213 9985   0.838   2.646   3.146  0.3038 -0.0998 -0.6639
  100SAPC  H13R 9986   0.844   2.540   3.115  1.6840 -0.4410  0.6333
  100SAPC  H13S 9987   0.739   2.649   3.196  0.8118 -0.4207  0.3714
  100SAPC  C214 9988   0.941   2.665   3.255  0.0433 -0.8647 -0.4386
  100SAPC  H14R 9989   1.021   2.591   3.266  0.1618 -0.7673 -0.6459
  100SAPC  C215 9990   0.948   2.765   3.345  0.2217  0.4550 -0.0723
  100SAPC  H15R 9991   1.034   2.758   3.414  0.1903  2.2831  0.2039
  100SAPC  C216 9992   0.854   2.880   3.364  0.2418 -0.0276  1.0226
  100SAPC  H16R 9993   0.776   2.886   3.285  1.3681 -2.3903 -0.3690
  100SAPC  H16S 9994   0.907   2.977   3.360  2.1650 -1.0597  0.1500
  100SAPC  C217 9995   0.789   2.882   3.503 -0.4140 -0.2774  0.0289
  100SAPC  H17R 9996   0.717   2.797   3.510 -0.3782 -0.3069  0.0403
  100SAPC  H17S 9997   0.742   2.982   3.515  1.3058  0.3697  1.9561
  100SAPC  C218 9998   0.890   2.881   3.619  0.2153 -0.7304  0.2679
  100SAPC  H18R 9999   0.960   2.953   3.572 -2.4558  0.8631 -1.5810
  100SAPC  H18S10000   0.934   2.781   3.639 -1.6120 -1.4480  1.0018
  100SAPC  C21910001   0.834   2.943   3.745  0.0315  0.7228 -0.3925
  100SAPC  H19R10002   0.754   2.883   3.794  1.7900  0.3049  2.1847
  100SAPC  H19S10003   0.793   3.046   3.739  1.6973  1.5328  1.1035
  100SAPC  C22010004   0.941   2.956   3.861  0.0751 -0.0861  0.3682
  100SAPC  H20R10005   1.012   3.028   3.816 -0.9803  1.0388  0.4492
  100SAPC  H20S10006   0.984   2.860   3.896 -2.3611 -0.7471  1.7559
  100SAPC  H20T10007   0.882   3.004   3.942  0.6787 -0.4844  1.0537
  100SAPC   C3310008   0.718   2.114   2.771  0.4121 -0.0854  0.3008
  100SAPC   H3X10009   0.779   2.154   2.687  2.1782 -0.4358  1.3421
  100SAPC   H3Y10010   0.750   2.016   2.813  0.5104  0.9212  2.7398
  100SAPC   C3410011   0.729   2.231   2.883  0.1506  0.2349 -0.1330
  100SAPC   H4X10012   0.692   2.326   2.839  1.3057  0.3129 -0.9901
  100SAPC   H4Y10013   0.834   2.242   2.917  0.2348  0.5142 -0.4678
  100SAPC   C3510014   0.649   2.199   3.015  0.0398 -0.0349 -0.0722
  100SAPC   H5X10015   0.676   2.099   3.054 -0.0916 -0.2954 -0.6293
  100SAPC   H5Y10016   0.542   2.180   2.993  0.1385  0.0963 -0.6873
  100SAPC   C3610017   0.686   2.296   3.123  0.9696 -0.1292 -0.5751
  100SAPC   H6X10018   0.660   2.397   3.084  0.5056 -0.6236 -1.5617
  100SAPC   H6Y10019   0.796   2.298   3.144  0.8514 -1.4940  0.3518
  100SAPC   C3710020   0.609   2.281   3.254 -0.3195  0.2672  0.4648
  100SAPC   H7X10021   0.630   2.185   3.308  3.8442  0.9437  0.3304
  100SAPC   H7Y10022   0.500   2.290   3.233 -0.4511 -1.1398  0.4293
  100SAPC   C3810023   0.650   2.396   3.341  0.7254  0.2203 -0.2776
  100SAPC   H8X10024   0.652   2.495   3.291 -1.0625  0.0454 -0.7902
  100SAPC   H8Y10025   0.752   2.368   3.376 -0.0996  0.7593  2.9186
  100SAPC   C3910026   0.559   2.396   3.466  0.0676  0.5118  0.3325
  100SAPC   H9X10027   0.558   2.296   3.514 -0.6044  1.1269  1.6462
  100SAPC   H9Y10028   0.457   2.430   3.441 -0.0799  1.1122  1.6458
  100SAPC  C31010029   0.615   2.487   3.576  0.4840  0.1282 -0.2234
  100SAPC  H10X10030   0.639   2.591   3.542  1.0283  0.3190  0.7095
  100SAPC  H10Y10031   0.718   2.465   3.612  0.9472 -0.3240 -1.7182
  100SAPC  C31110032   0.520   2.504   3.696  0.1914  0.9074 -0.8624
  100SAPC  H11X10033   0.477   2.406   3.728 -3.0119  2.6240  0.5437
  100SAPC  H11Y10034   0.433   2.562   3.659 -0.9177  0.9670  1.6180
  100SAPC  C31210035   0.582   2.574   3.819  0.4120 -0.2256 -0.0778
  100SAPC  H12X10036   0.610   2.677   3.788  2.2576 -1.3012 -2.2586
  100SAPC  H12Y10037   0.672   2.530   3.868 -0.4418  0.7135  2.5320
  100SAPC  C31310038   0.482   2.599   3.939 -0.0385 -0.6594  0.1970
  100SAPC  H13X10039   0.489   2.508   4.003  2.1556  0.1094  1.1571
  100SAPC  H13Y10040   0.379   2.617   3.901  0.2205 -1.9792 -1.2316
  100SAPC  C31410041   0.524   2.725   4.020  0.2803  0.0604 -0.0436
  100SAPC  H14X10042   0.443   2.735   4.096 -1.9030 -2.1565 -1.8750
  100SAPC  H14Y10043   0.544   2.816   3.960 -0.9338  2.2061  2.5765
  100SAPC  C31510044   0.653   2.701   4.103 -0.3786  0.0903  0.2816
  100SAPC  H15X10045   0.733   2.678   4.028 -0.1121  1.0034  0.2718
  100SAPC  H15Y10046   0.639   2.612   4.168  1.0730 -0.6484 -0.3471
  100SAPC  C31610047   0.706   2.822   4.184  0.0747 -0.4141  0.1121
  100SAPC  H16X10048   0.626   2.879   4.235  0.6743 -0.5200  1.2085
  100SAPC  H16Y10049   0.739   2.896   4.108 -1.3330 -0.1682 -0.3025
  100SAPC  C31710050   0.812   2.787   4.285  0.0710 -0.1134  0.1784
  100SAPC  H17X10051   0.763   2.708   4.347 -3.3440 -0.6114 -2.8249
  100SAPC  H17Y10052   0.824   2.873   4.354  1.2614 -1.2299  1.4172
  100SAPC  C31810053   0.947   2.754   4.217  0.3007  0.5158  0.0830
  100SAPC  H18X10054   1.019   2.755   4.302  0.1836 -2.4802  0.3290
  100SAPC  H18Y10055   0.987   2.833   4.149 -1.1940  0.0457 -1.4028
  100SAPC  H18Z10056   0.956   2.654   4.169 -3.1977  0.9611 -1.8518
  101OSM      N10057   4.004   1.741   6.145  0.3277  0.3857  0.0427
  101OSM    C1510058   3.892   1.838   6.150  0.5512 -0.2307  0.8043
  101OSM   H15A10059   3.858   1.857   6.050 -0.7420  0.2141  1.3046
  101OSM   H15B10060   3.919   1.932   6.197  1.7859 -0.8326  1.3693
  101OSM   H15C10061   3.814   1.793   6.210  0.9492 -1.5540  0.3611
  101OSM    C1410062   3.972   1.643   6.041 -0.0804 -0.5891  0.1186
  101OSM   H14A10063   4.058   1.579   6.023 -0.4212 -0.9268 -0.3614
  101OSM   H14B10064   3.953   1.695   5.948  0.9183 -0.4597 -0.0322
  101OSM   H14C10065   3.887   1.583   6.072  0.5018 -0.8006  1.3566
  101OSM    C1310066   4.129   1.817   6.102 -0.2066  0.1061 -0.6415
  101OSM   H13A10067   4.143   1.917   6.142 -1.1266 -0.1533  0.3805
  101OSM   H13B10068   4.132   1.839   5.997 -0.6775  2.6055 -0.1983
  101OSM   H13C10069   4.219   1.759   6.118 -1.4945 -2.3017 -1.6994
  101OSM    C1210070   4.029   1.683   6.281 -0.7070  0.6513  0.1928
  101OSM   H12A10071   3.938   1.657   6.332 -1.7132  2.6058 -0.4896
  101OSM   H12B10072   4.088   1.750   6.342 -0.1047 -0.4917  0.8920
  101OSM    C1110073   4.116   1.552   6.275  0.0830 -0.6077 -0.4693
  101OSM   H11A10074   4.225   1.571   6.268  0.0695 -0.1036  0.5184
  101OSM   H11B10075   4.082   1.479   6.197 -2.6504  0.7329 -0.6487
  101OSM      P10076   4.001   1.380   6.445 -0.2388  0.1977 -0.1638
  101OSM    O1310077   4.085   1.273   6.508  0.7224  0.4982 -1.0605
  101OSM    O1410078   3.893   1.438   6.522 -0.3377 -1.0944 -0.4109
  101OSM    O1110079   3.932   1.324   6.314 -0.6680 -0.4218  0.1425
  101OSM    O1210080   4.093   1.505   6.400  0.4253  0.0836 -0.0982
  101OSM    C1S10081   3.981   1.211   6.243 -0.1066  0.4501  0.3808
  101OSM    H1S10082   3.991   1.130   6.318 -2.5943  0.0091  0.3137
  101OSM    H1T10083   4.085   1.228   6.209 -0.5448  1.7802 -0.3950
  101OSM     NF10084   3.968   1.060   6.049  0.4385 -0.6439 -0.4150
  101OSM    HNF10085   4.038   1.088   5.984 -0.6910 -1.3131 -1.9624
  101OSM    C2S10086   3.898   1.170   6.119 -0.3887 -0.5764  0.3733
  101OSM    H2S10087   3.800   1.137   6.159  1.1550 -1.8588  3.4442
  101OSM    C3S10088   3.874   1.301   6.032 -0.4013 -0.0459 -0.6593
  101OSM    H3S10089   3.967   1.357   6.010 -1.7789  2.0881 -1.3216
  101OSM     O310090   3.813   1.403   6.103  0.5480 -0.7273 -0.2326
  101OSM    HO310091   3.857   1.400   6.188 -1.1312 -2.1207  0.6551
  101OSM    C4S10092   3.792   1.264   5.907 -0.0172  0.0687 -0.5820
  101OSM    H4S10093   3.684   1.269   5.928 -0.0373 -2.3545  0.1920
  101OSM    C5S10094   3.836   1.258   5.787  0.2230 -0.2644  0.1931
  101OSM    H5S10095   3.944   1.266   5.770  0.1981  0.6945  0.4140
  101OSM    C6S10096   3.739   1.258   5.670 -0.3851 -0.6763  1.4307
  101OSM    H6S10097   3.670   1.345   5.672 -0.7590 -0.9477  0.7252
  101OSM    H6T10098   3.674   1.170   5.651  0.5476 -0.8272 -1.5031
  101OSM    C7S10099   3.830   1.252   5.545 -0.6767  0.0682  0.7170
  101OSM    H7S10100   3.893   1.161   5.558 -2.0284 -0.8414  1.2080
  101OSM    H7T10101   3.893   1.343   5.541  0.1425 -0.4390  1.4850
  101OSM    C8S10102   3.752   1.241   5.415  1.1717  0.1340  0.0378
  101OSM    H8S10103   3.680   1.325   5.408  0.6362 -0.3845 -0.8767
  101OSM    H8T10104   3.695   1.148   5.393  1.1590  0.1302  0.0853
  101OSM    C9S10105   3.851   1.270   5.296 -0.1422  0.2217  0.7727
  101OSM    H9S10106   3.908   1.180   5.266 -0.5545  0.4925 -0.9339
  101OSM    H9T10107   3.914   1.360   5.318  0.6173  0.0016 -0.4065
  101OSM   C10S10108   3.769   1.300   5.172  0.6761 -0.3305  0.9402
  101OSM   H10S10109   3.741   1.405   5.196  2.8847  0.5646 -0.1480
  101OSM   H10T10110   3.678   1.236   5.181  0.7832 -1.0155 -1.8985
  101OSM   C11S10111   3.834   1.289   5.033 -0.4682 -0.4714  0.1454
  101OSM   H11S10112   3.863   1.183   5.018 -1.4858 -0.5006 -2.1948
  101OSM   H11T10113   3.918   1.361   5.024 -1.2442  0.4321 -0.0964
  101OSM   C12S10114   3.731   1.322   4.929 -0.5370  0.1993 -0.0522
  101OSM   H12S10115   3.714   1.431   4.917  1.2800  0.5085 -0.1652
  101OSM   H12T10116   3.633   1.274   4.949 -0.4980 -0.0274 -0.3832
  101OSM   C13S10117   3.770   1.258   4.789 -0.9331 -0.2525 -0.0809
  101OSM   H13S10118   3.700   1.284   4.706  0.9444 -1.2537 -2.0699
  101OSM   H13T10119   3.773   1.148   4.805  1.7556  0.1689  3.3539
  101OSM   C14S10120   3.907   1.301   4.743 -0.7137 -0.3452 -0.3483
  101OSM   H14S10121   3.974   1.248   4.815  1.9418  0.6668 -1.9337
  101OSM   H14T10122   3.924   1.411   4.748  1.8998 -0.4347 -3.5292
  101OSM   C15S10123   3.956   1.259   4.603 -0.0384 -0.1727 -0.1700
  101OSM   H15S10124   3.963   1.148   4.613  1.6370 -0.0269  0.5881
  101OSM   H15T10125   4.054   1.307   4.583 -0.1439  0.5557  0.9864
  101OSM   C16S10126   3.862   1.299   4.485 -0.3645  0.1700 -0.0259
  101OSM   H16S10127   3.876   1.408   4.469 -0.0178 -0.0143 -1.0118
  101OSM   H16T10128   3.759   1.282   4.523  0.5568  2.5643  4.2880
  101OSM   C17S10129   3.884   1.218   4.352  0.0993 -0.2574  0.0714
  101OSM   H17S10130   3.799   1.241   4.285 -0.4090 -5.5859 -1.5965
  101OSM   H17T10131   3.874   1.109   4.374  1.6304 -0.2846  0.7280
  101OSM   C18S10132   4.026   1.247   4.292  0.4004  0.2749  0.7062
  101OSM   H18S10133   4.090   1.173   4.345 -0.6330 -0.7689  0.5431
  101OSM   H18T10134   4.055   1.352   4.311  0.9708  0.3384 -0.4199
  101OSM   H18U10135   4.031   1.218   4.185  1.9324  0.9260  0.5744
  101OSM    C1F10136   3.980   0.941   6.109  0.6941 -0.0477  0.3355
  101OSM     OF10137   3.916   0.927   6.210 -0.0480  0.5944  0.0713
  101OSM    C2F10138   4.080   0.848   6.044 -0.3208 -0.1050  0.4941
  101OSM    H2F10139   4.136   0.797   6.126  0.5643 -0.3371 -0.2373
  101OSM    H2G10140   4.147   0.903   5.975  0.7424  0.9983  2.3264
  101OSM    C3F10141   4.020   0.742   5.949  0.6453 -0.7339 -0.4072
  101OSM    H3F10142   3.929   0.695   5.993  0.7870 -1.9130 -1.3248
  101OSM    H3G10143   4.103   0.670   5.935  1.7960  0.4156  0.2260
  101OSM    C4F10144   3.978   0.808   5.816  0.2161  0.3748  0.1659
  101OSM    H4F10145   3.926   0.906   5.822 -1.5388 -0.3399 -1.8882
  101OSM    H4G10146   3.907   0.732   5.774 -3.7328  2.1687  2.9720
  101OSM    C5F10147   4.092   0.838   5.728  0.4477  0.3718 -0.2372
  101OSM    H5F10148   4.130   0.737   5.701 -0.1136 -0.0832  0.6459
  101OSM    H5G10149   4.174   0.889   5.784  0.7212 -1.3004  0.9423
  101OSM    C6F10150   4.049   0.930   5.624 -0.1984 -0.0666  0.3698
  101OSM    H6F10151   4.046   1.029   5.673 -2.8807 -0.6158  1.5064
  101OSM    H6G10152   3.947   0.911   5.585 -0.0709 -2.4472  1.0392
  101OSM    C7F10153   4.153   0.926   5.510 -0.4932 -0.1691  0.9264
  101OSM    H7F10154   4.139   0.832   5.453 -3.5492  1.5820 -1.5062
  101OSM    H7G10155   4.252   0.935   5.560 -1.3538 -0.8453  2.8455
  101OSM    C8F10156   4.138   1.035   5.404 -0.3411  0.7182  0.2033
  101OSM    H8F10157   4.122   1.130   5.459 -0.1596  0.4967  0.6436
  101OSM    H8G10158   4.049   0.998   5.348 -0.4484  0.7343  0.3602
  101OSM    C9F10159   4.243   1.050   5.298 -0.3259 -0.6800 -0.1407
  101OSM    H9F10160   4.311   1.136   5.313 -0.8169 -0.7981  3.4109
  101OSM   C10F10161   4.248   0.996   5.175  0.0366 -0.0218  0.1497
  101OSM   H10F10162   4.330   1.028   5.110  0.2019  1.8484  1.2057
  101OSM   C11F10163   4.157   0.902   5.098  1.2200  0.1826 -0.9497
  101OSM   H11F10164   4.093   0.972   5.041 -0.7300  0.0465  0.9350
  101OSM   H11G10165   4.085   0.853   5.167  1.0523 -0.9994 -1.9343
  101OSM   C12F10166   4.219   0.795   5.008 -0.2464 -0.3116  1.3312
  101OSM   H12F10167   4.146   0.726   4.961  0.5978  1.0484 -2.2922
  101OSM   H12G10168   4.285   0.742   5.080 -0.9236  0.6189  2.6950
  101OSM   C13F10169   4.296   0.847   4.894 -0.8563  0.2308 -0.6513
  101OSM   H13F10170   4.360   0.769   4.847 -1.0813 -0.3807  0.0485
  101OSM   H13G10171   4.375   0.913   4.936  1.4194 -3.0823  0.7442
  101OSM   C14F10172   4.211   0.895   4.779  0.3611 -0.2340  0.4409
  101OSM   H14F10173   4.171   0.996   4.804  3.5615  1.0621  0.8817
  101OSM   H14G10174   4.117   0.844   4.751  0.0159  0.4592  0.3001
  101OSM   C15F10175   4.294   0.937   4.653  0.6968 -0.6190 -0.0384
  101OSM   H15F10176   4.394   0.974   4.685  1.7552 -2.9291 -0.3956
  101OSM   H15G10177   4.230   1.008   4.597  0.0661  0.1024  1.5456
  101OSM   C16F10178   4.326   0.820   4.558 -0.6406 -0.7298 -0.0345
  101OSM   H16F10179   4.241   0.748   4.553  0.9169 -2.8536  1.8062
  101OSM   H16G10180   4.412   0.763   4.599  0.5246  0.5502 -0.6064
  101OSM   C17F10181   4.363   0.871   4.419  0.5106  0.0106 -0.5112
  101OSM   H17F10182   4.442   0.949   4.412 -0.5261  1.2776  1.0768
  101OSM   H17G10183   4.277   0.917   4.366  0.0224 -0.5527 -0.2106
  101OSM   C18F10184   4.415   0.754   4.327 -0.6782  0.2172 -0.1088
  101OSM   H18F10185   4.349   0.666   4.342 -0.9215  0.2851 -0.7766
  101OSM   H18G10186   4.521   0.727   4.349 -0.3691  1.7939  0.5181
  101OSM   H18H10187   4.419   0.774   4.218  2.5800  1.5898  0.1281
  102OSM      N10188   6.026   0.734   7.002  0.4393 -0.0900  0.7758
  102OSM    C1510189   6.045   0.584   7.003 -0.0357 -0.0279  0.2584
  102OSM   H15A10190   6.023   0.544   6.905  1.5822  1.0168 -0.5858
  102OSM   H15B10191   5.992   0.534   7.082 -1.6886 -1.7868 -1.8384
  102OSM   H15C10192   6.153   0.572   7.007  0.1127  1.3660  1.3502
  102OSM    C1410193   5.882   0.754   6.982  0.7554 -0.7495  0.2584
  102OSM   H14A10194   5.859   0.859   6.966  2.3604 -0.5552 -0.9113
  102OSM   H14B10195   5.821   0.734   7.069  0.1443  1.1420  0.3249
  102OSM   H14C10196   5.849   0.681   6.910 -0.5523 -0.0132  0.0685
  102OSM    C1310197   6.067   0.789   7.131  0.6289 -0.0638 -0.1703
  102OSM   H13A10198   6.011   0.747   7.213 -2.4606  0.8250 -1.6809
  102OSM   H13B10199   6.068   0.897   7.139  1.2191 -0.1298  0.8069
  102OSM   H13C10200   6.174   0.776   7.146  0.5052  0.1348  0.9861
  102OSM    C1210201   6.103   0.810   6.882  0.1277  0.8426  0.8700
  102OSM   H12A10202   6.208   0.789   6.898  0.2022  0.7216  0.2604
  102OSM   H12B10203   6.080   0.913   6.906 -0.2911  0.3866  2.5423
  102OSM    C1110204   6.069   0.773   6.738 -0.1598 -0.3727  0.6275
  102OSM   H11A10205   6.134   0.832   6.670 -1.5710  3.1348  2.1239
  102OSM   H11B10206   5.967   0.812   6.716  1.0176  2.0318 -1.0856
  102OSM      P10207   6.204   0.559   6.681  0.3356 -0.3264 -0.2599
  102OSM    O1310208   6.319   0.578   6.775  0.0522 -0.0725  0.4387
  102OSM    O1410209   6.156   0.418   6.670 -0.3234  0.8517  0.5688
  102OSM    O1110210   6.226   0.620   6.538  0.0935 -0.3853  0.3186
  102OSM    O1210211   6.072   0.634   6.720  0.3076 -0.1162 -0.4516
  102OSM    C1S10212   6.141   0.600   6.426 -0.0822 -0.3246  1.0018
  102OSM    H1S10213   6.035   0.630   6.444  0.1857  1.5721 -0.2850
  102OSM    H1T10214   6.157   0.496   6.393  1.5622  0.9048 -2.5586
  102OSM     NF10215   6.140   0.591   6.186  0.0224  0.1016  0.5181
  102OSM    HNF10216   6.203   0.546   6.123  2.5067  0.8602  2.3235
  102OSM    C2S10217   6.198   0.658   6.295  0.0216 -1.0435  0.2771
  102OSM    H2S10218   6.161   0.763   6.291 -0.5498 -1.0720  2.9761
  102OSM    C3S10219   6.356   0.661   6.290 -0.2808  0.2984 -0.3963
  102OSM    H3S10220   6.390   0.557   6.306 -1.5229  0.1034  1.3182
  102OSM     O310221   6.411   0.736   6.399  0.4772  0.3215 -0.2733
  102OSM    HO310222   6.340   0.745   6.463 -1.1804 -2.5504 -1.5120
  102OSM    C4S10223   6.407   0.717   6.164  0.0492 -0.2325  0.8145
  102OSM    H4S10224   6.351   0.805   6.129  1.3588  0.6142  0.7904
  102OSM    C5S10225   6.500   0.657   6.088  0.0245 -0.1681  0.2867
  102OSM    H5S10226   6.559   0.576   6.134  1.3918 -0.3323 -1.6439
  102OSM    C6S10227   6.553   0.692   5.954 -0.8254 -1.0768  0.3545
  102OSM    H6S10228   6.550   0.598   5.895 -2.3949  0.1780 -1.6764
  102OSM    H6T10229   6.660   0.722   5.959 -1.2464  0.5763  0.1539
  102OSM    C7S10230   6.487   0.809   5.889  0.4406 -0.4304 -0.0963
  102OSM    H7S10231   6.483   0.890   5.965  0.4206 -2.2428  1.9393
  102OSM    H7T10232   6.383   0.779   5.865 -0.5582  1.4578  1.5315
  102OSM    C8S10233   6.545   0.854   5.756 -0.0822 -0.1421  0.8601
  102OSM    H8S10234   6.656   0.864   5.757 -0.1177  0.3313  0.3631
  102OSM    H8T10235   6.500   0.953   5.737 -0.3950 -0.2843  0.8550
  102OSM    C9S10236   6.524   0.755   5.635  0.1658  0.3711 -0.2294
  102OSM    H9S10237   6.426   0.702   5.643  0.9727 -1.7092 -2.7670
  102OSM    H9T10238   6.614   0.691   5.644 -0.1741 -0.6357 -2.9107
  102OSM   C10S10239   6.527   0.821   5.496 -0.3522  0.1525 -0.2980
  102OSM   H10S10240   6.582   0.918   5.500 -1.0333  0.6516 -2.1071
  102OSM   H10T10241   6.419   0.838   5.477 -0.3207 -0.0630 -0.6786
  102OSM   C11S10242   6.582   0.724   5.385 -0.1510  0.8023 -0.2452
  102OSM   H11S10243   6.509   0.641   5.393  0.2679  0.5727  1.6423
  102OSM   H11T10244   6.687   0.698   5.412 -0.8534 -1.7844  0.2462
  102OSM   C12S10245   6.580   0.790   5.250 -0.1174  0.3322 -0.3212
  102OSM   H12S10246   6.655   0.871   5.241  0.4347 -0.1252  0.1578
  102OSM   H12T10247   6.480   0.837   5.235  0.0766  1.0752  0.6285
  102OSM   C13S10248   6.597   0.690   5.136 -0.2002  0.4268 -0.1180
  102OSM   H13S10249   6.503   0.631   5.127  0.0652 -0.2425  1.2773
  102OSM   H13T10250   6.686   0.625   5.150 -0.3009  0.5430  1.1193
  102OSM   C14S10251   6.624   0.766   5.007 -0.4448 -0.0321 -0.1357
  102OSM   H14S10252   6.722   0.816   5.017  0.9783 -2.7609  0.3445
  102OSM   H14T10253   6.552   0.847   4.982 -1.6157 -0.6506  1.0876
  102OSM   C15S10254   6.622   0.673   4.888 -0.5661 -0.4683  0.1299
  102OSM   H15S10255   6.545   0.592   4.894  0.2937 -1.1995  2.1254
  102OSM   H15T10256   6.712   0.608   4.886 -0.2996 -0.1287  1.0970
  102OSM   C16S10257   6.615   0.754   4.759 -0.2176  0.0024 -0.4185
  102OSM   H16S10258   6.665   0.851   4.779 -2.6218  1.0883  0.7931
  102OSM   H16T10259   6.514   0.787   4.726 -0.7935  0.7555  1.9132
  102OSM   C17S10260   6.673   0.689   4.629  0.2375 -0.4253 -0.2962
  102OSM   H17S10261   6.600   0.610   4.604  0.2377 -0.2869 -0.7452
  102OSM   H17T10262   6.775   0.648   4.648  0.7010  0.6962 -0.2766
  102OSM   C18S10263   6.695   0.805   4.520  0.0968  1.0456  0.9596
  102OSM   H18S10264   6.761   0.885   4.559  0.4941 -0.6278  4.1555
  102OSM   H18T10265   6.590   0.835   4.501 -0.0934 -0.3886 -0.4933
  102OSM   H18U10266   6.733   0.759   4.427 -1.3142  2.7837 -0.5490
  102OSM    C1F10267   6.010   0.590   6.154 -0.0765 -0.7254  0.6705
  102OSM     OF10268   5.940   0.668   6.217  0.4169 -0.2333 -0.1096
  102OSM    C2F10269   5.963   0.508   6.034  0.3180  1.3003  0.2610
  102OSM    H2F10270   5.957   0.402   6.065  1.6198  1.5133  1.3390
  102OSM    H2G10271   6.044   0.510   5.957 -0.7798  1.3203 -0.9296
  102OSM    C3F10272   5.839   0.556   5.979  0.3565  0.0137 -0.2986
  102OSM    H3F10273   5.846   0.661   5.943 -2.8309  0.3173 -0.2392
  102OSM    H3G10274   5.759   0.563   6.055  1.7283  2.9493  1.0646
  102OSM    C4F10275   5.775   0.471   5.872 -0.0869 -1.3148 -0.3566
  102OSM    H4F10276   5.665   0.487   5.880  0.0201 -0.9787  0.5091
  102OSM    H4G10277   5.794   0.362   5.881  0.3455 -1.3265 -1.3292
  102OSM    C5F10278   5.811   0.505   5.731  0.0695 -0.3120  0.6300
  102OSM    H5F10279   5.908   0.453   5.715  1.1376  1.3120  1.5631
  102OSM    H5G10280   5.838   0.613   5.723 -0.5275 -0.2550 -1.0340
  102OSM    C6F10281   5.717   0.448   5.622 -0.4807 -0.3381  0.1058
  102OSM    H6F10282   5.686   0.529   5.553 -0.0734 -0.9972 -0.8772
  102OSM    H6G10283   5.627   0.404   5.670 -0.5542 -0.9971 -0.6174
  102OSM    C7F10284   5.792   0.339   5.536  0.3978 -0.4676 -0.3017
  102OSM    H7F10285   5.835   0.267   5.609 -1.1425 -0.7706  0.3389
  102OSM    H7G10286   5.879   0.386   5.485  3.1110 -3.6382  1.0802
  102OSM    C8F10287   5.707   0.280   5.420 -1.0039  0.0800 -0.0695
  102OSM    H8F10288   5.664   0.359   5.356  0.0219  0.3234 -0.4801
  102OSM    H8G10289   5.614   0.234   5.460  0.3027 -2.9108 -0.2228
  102OSM    C9F10290   5.779   0.179   5.335 -0.1703  0.4140  0.1320
  102OSM    H9F10291   5.860   0.120   5.380  0.6996  1.3316 -0.2076
  102OSM   C10F10292   5.751   0.158   5.208 -0.4815  0.2173 -0.1480
  102OSM   H10F10293   5.811   0.097   5.139 -1.2119 -0.6992  0.0104
  102OSM   C11F10294   5.645   0.227   5.135  0.3667 -0.8571 -0.6070
  102OSM   H11F10295   5.681   0.329   5.109 -1.5310 -0.7896 -3.3377
  102OSM   H11G10296   5.552   0.229   5.196  0.4564  0.0445 -0.4744
  102OSM   C12F10297   5.614   0.170   4.995 -0.1933  0.6017 -0.0559
  102OSM   H12F10298   5.581   0.065   4.981  0.7783  0.2354  0.2851
  102OSM   H12G10299   5.713   0.162   4.946  0.4298 -2.0371  1.4287
  102OSM   C13F10300   5.515   0.260   4.922  0.4233 -0.6674 -0.3797
  102OSM   H13F10301   5.559   0.361   4.926 -1.2305  0.0715  0.0693
  102OSM   H13G10302   5.422   0.280   4.980  0.4072 -0.5581 -0.4435
  102OSM   C14F10303   5.485   0.208   4.786 -0.3476  0.5939  0.6790
  102OSM   H14F10304   5.407   0.275   4.743 -0.2130 -0.3703 -1.1923
  102OSM   H14G10305   5.440   0.107   4.795 -2.5262  1.2554 -1.7220
  102OSM   C15F10306   5.605   0.210   4.682 -0.5879 -0.2423  0.1727
  102OSM   H15F10307   5.693   0.160   4.728  3.1174  3.3814 -2.2608
  102OSM   H15G10308   5.627   0.319   4.677  0.1744 -0.3632  0.8261
  102OSM   C16F10309   5.557   0.134   4.553 -0.1306  0.3431 -0.2188
  102OSM   H16F10310   5.509   0.034   4.565  2.5508 -1.0427 -0.2642
  102OSM   H16G10311   5.638   0.111   4.481 -0.7163  0.5879 -0.9576
  102OSM   C17F10312   5.459   0.219   4.478  0.1541 -0.4443  0.4671
  102OSM   H17F10313   5.495   0.321   4.451 -0.6189  0.0978  1.4121
  102OSM   H17G10314   5.372   0.236   4.545  0.3663 -1.2882  0.9644
  102OSM   C18F10315   5.425   0.152   4.348 -0.0709 -0.8701  0.0758
  102OSM   H18F10316   5.349   0.203   4.284  0.5708  0.6200  0.4705
  102OSM   H18G10317   5.399   0.046   4.371 -0.1544 -0.8983 -0.1416
  102OSM   H18H10318   5.520   0.142   4.291  0.6774 -1.4139  1.3859
  103OSM      N10319   4.528   1.960   6.730  0.5445  0.7353 -0.1972
  103OSM    C1510320   4.388   2.006   6.701 -0.1572 -1.0643 -0.1255
  103OSM   H15A10321   4.320   1.961   6.773  0.1608  1.2824  1.7657
  103OSM   H15B10322   4.364   1.986   6.598 -0.1285 -0.1268 -0.3217
  103OSM   H15C10323   4.360   2.108   6.726 -1.1016 -1.1265 -0.8646
  103OSM    C1410324   4.558   1.997   6.870 -0.1324  1.0437 -0.2194
  103OSM   H14A10325   4.518   1.927   6.942  1.1348 -0.6279 -1.0736
  103OSM   H14B10326   4.523   2.098   6.885  1.7224  1.5228  1.3045
  103OSM   H14C10327   4.665   1.991   6.885 -0.0478  2.4811 -0.1290
  103OSM    C1310328   4.532   1.806   6.730 -0.4571 -0.5843  0.4119
  103OSM   H13A10329   4.634   1.772   6.736 -0.0911  0.3803 -0.0908
  103OSM   H13B10330   4.497   1.759   6.639 -0.0386  0.2216 -0.1770
  103OSM   H13C10331   4.475   1.773   6.815 -0.8090  1.9551  1.2385
  103OSM    C1210332   4.628   2.020   6.632  0.2031 -0.1328 -0.2732
  103OSM   H12A10333   4.729   1.993   6.658  0.6474  1.7219  0.0604
  103OSM   H12B10334   4.618   2.127   6.629 -0.3594 -0.2029 -1.7462
  103OSM    C1110335   4.617   1.974   6.478 -0.7307 -0.9553  0.2729
  103OSM   H11A10336   4.709   2.021   6.438 -1.8056  1.5171  0.5658
  103OSM   H11B10337   4.529   2.024   6.434  0.7299  1.5270  0.0064
  103OSM      P10338   4.734   1.749   6.411  0.0702 -0.0246 -0.1807
  103OSM    O1310339   4.772   1.700   6.545 -0.0012 -0.0727  0.0510
  103OSM    O1410340   4.685   1.647   6.319  0.2585 -1.2606 -0.7992
  103OSM    O1110341   4.847   1.832   6.335 -0.0110 -0.4415 -0.3781
  103OSM    O1210342   4.608   1.841   6.439 -0.2864  0.0605 -0.3895
  103OSM    C1S10343   4.935   1.769   6.246 -0.3413  0.2602 -0.0465
  103OSM    H1S10344   4.947   1.662   6.276 -1.6340  0.7650  2.4766
  103OSM    H1T10345   5.032   1.823   6.251 -0.0522 -0.3003  0.6264
  103OSM     NF10346   4.977   1.728   6.003 -0.0716 -0.7855  0.0994
  103OSM    HNF10347   5.022   1.796   5.945  0.2599 -0.9452  0.1653
  103OSM    C2S10348   4.889   1.783   6.102 -0.1005  0.0572  0.5211
  103OSM    H2S10349   4.794   1.726   6.087 -0.5517  0.3005  2.2271
  103OSM    C3S10350   4.856   1.933   6.079 -0.2341  0.0209  1.3449
  103OSM    H3S10351   4.952   1.987   6.096 -1.0190  1.7055  0.5590
  103OSM     O310352   4.754   1.992   6.159  0.4339  0.9380  0.6095
  103OSM    HO310353   4.760   1.940   6.239 -0.7092  0.8489  0.6553
  103OSM    C4S10354   4.834   1.964   5.933 -0.7332 -0.0544  0.4946
  103OSM    H4S10355   4.934   1.992   5.895 -0.2395 -0.7830  1.2418
  103OSM    C5S10356   4.718   1.969   5.862  0.0308 -0.8869  0.2818
  103OSM    H5S10357   4.623   1.954   5.914 -1.1495 -0.7539 -1.7407
  103OSM    C6S10358   4.703   2.025   5.724  0.0612 -0.0221 -0.6579
  103OSM    H6S10359   4.626   2.104   5.727 -0.9881 -1.0211 -0.4938
  103OSM    H6T10360   4.656   1.950   5.657 -3.8157  3.1698 -1.8876
  103OSM    C7S10361   4.835   2.086   5.673  0.0596 -0.1763  0.2797
  103OSM    H7S10362   4.916   2.010   5.683  0.0323  0.0126  2.5690
  103OSM    H7T10363   4.858   2.180   5.727 -0.5995 -0.2138  0.6443
  103OSM    C8S10364   4.807   2.129   5.535 -0.1682  0.4753  0.5286
  103OSM    H8S10365   4.722   2.199   5.543 -1.6832 -1.3480  1.1916
  103OSM    H8T10366   4.771   2.043   5.474 -1.9802  1.0751  0.6962
  103OSM    C9S10367   4.924   2.197   5.458 -1.1021 -0.4553  0.1347
  103OSM    H9S10368   5.020   2.145   5.481 -0.6582  0.7576  1.1217
  103OSM    H9T10369   4.931   2.297   5.505 -1.7450 -0.0891 -0.5281
  103OSM   C10S10370   4.888   2.211   5.310 -0.7406 -0.3493 -0.2683
  103OSM   H10S10371   4.923   2.310   5.273  0.2861 -0.3655  0.6060
  103OSM   H10T10372   4.777   2.198   5.314 -1.0308  1.8461  1.3805
  103OSM   C11S10373   4.956   2.098   5.229 -0.1046 -0.5244  0.6552
  103OSM   H11S10374   4.929   2.001   5.275 -5.0639 -0.1957 -0.9819
  103OSM   H11T10375   5.066   2.111   5.237 -0.3516  1.2537  1.6383
  103OSM   C12S10376   4.913   2.096   5.086  0.6342 -0.4008  0.3126
  103OSM   H12S10377   4.870   2.194   5.058 -0.4128 -0.3710  1.9019
  103OSM   H12T10378   4.831   2.021   5.087  0.6090 -0.4424 -1.6498
  103OSM   C13S10379   5.013   2.059   4.976 -0.3541 -0.1451 -0.4370
  103OSM   H13S10380   5.066   1.970   5.015 -2.3105 -0.7122  1.0880
  103OSM   H13T10381   5.082   2.142   4.952 -0.3126  0.1053  0.5438
  103OSM   C14S10382   4.942   2.027   4.844 -0.2525 -0.3246  0.6089
  103OSM   H14S10383   4.903   2.120   4.798 -0.4469 -0.8407 -0.2910
  103OSM   H14T10384   4.847   1.971   4.859 -1.0969  1.1020  0.6942
  103OSM   C15S10385   5.022   1.936   4.750  0.2486 -0.2104 -0.0044
  103OSM   H15S10386   5.046   1.838   4.797 -3.1856 -1.7058 -1.0175
  103OSM   H15T10387   5.110   1.995   4.717 -1.0333  0.8832 -1.5786
  103OSM   C16S10388   4.947   1.904   4.617  0.6613 -0.0869  0.7341
  103OSM   H16S10389   4.840   1.875   4.634  0.5434  0.1951  0.4737
  103OSM   H16T10390   4.997   1.820   4.564 -1.4201 -0.9436  0.0203
  103OSM   C17S10391   4.946   2.024   4.513  0.0942 -0.7948 -0.6270
  103OSM   H17S10392   5.051   2.057   4.497  0.0348 -0.2864 -0.0245
  103OSM   H17T10393   4.887   2.108   4.556  1.1242 -1.3457  2.0840
  103OSM   C18S10394   4.891   1.988   4.373  0.4327  0.3751  0.6531
  103OSM   H18S10395   4.957   1.912   4.327  0.5809  1.8807 -1.7769
  103OSM   H18T10396   4.871   2.074   4.306 -1.9624 -0.8250 -0.3126
  103OSM   H18U10397   4.787   1.950   4.383  0.6066 -0.2283  0.2378
  103OSM    C1F10398   5.010   1.600   5.989 -0.3271 -0.9141  0.0634
  103OSM     OF10399   4.953   1.509   6.048 -0.6604 -0.0230 -0.4402
  103OSM    C2F10400   5.129   1.576   5.900 -0.2605 -0.1681  0.8270
  103OSM    H2F10401   5.216   1.541   5.959  0.8656  0.7184 -0.2653
  103OSM    H2G10402   5.159   1.669   5.848 -1.3308 -0.0755  0.3472
  103OSM    C3F10403   5.087   1.468   5.798  0.9089 -0.2087  0.3604
  103OSM    H3F10404   4.998   1.509   5.745  2.4496  0.4697 -1.8556
  103OSM    H3G10405   5.082   1.365   5.838 -0.4928  0.6613  2.6402
  103OSM    C4F10406   5.188   1.465   5.680 -0.3989 -0.3971  0.0157
  103OSM    H4F10407   5.293   1.454   5.713 -0.1934 -1.9629 -1.0542
  103OSM    H4G10408   5.186   1.563   5.627  2.1124  0.1210  0.7190
  103OSM    C5F10409   5.147   1.361   5.578 -0.1444 -0.1978 -0.4374
  103OSM    H5F10410   5.048   1.383   5.533 -0.6614  1.3020  1.2908
  103OSM    H5G10411   5.151   1.257   5.619  2.5137  0.2928  0.7820
  103OSM    C6F10412   5.251   1.355   5.469 -0.4858 -0.1798  0.0594
  103OSM    H6F10413   5.357   1.339   5.501  0.0632  1.0993 -0.9930
  103OSM    H6G10414   5.252   1.457   5.424  0.4191  0.4286  1.3795
  103OSM    C7F10415   5.229   1.242   5.361 -0.2225  0.0615 -0.9096
  103OSM    H7F10416   5.121   1.235   5.336 -0.1017  2.9266 -2.7583
  103OSM    H7G10417   5.270   1.154   5.415  2.2859  1.7592  0.1573
  103OSM    C8F10418   5.309   1.266   5.234 -0.3287  1.0599 -0.3959
  103OSM    H8F10419   5.289   1.177   5.170 -1.3381  0.7558  0.3302
  103OSM    H8G10420   5.417   1.250   5.257 -0.4402 -0.6969 -0.9231
  103OSM    C9F10421   5.275   1.398   5.171 -0.0583 -0.0965  0.3341
  103OSM    H9F10422   5.304   1.486   5.230 -1.2571  1.0108 -0.6557
  103OSM   C10F10423   5.220   1.430   5.051 -0.1567 -0.1309 -0.4935
  103OSM   H10F10424   5.204   1.534   5.020 -0.9186 -0.0029  0.2833
  103OSM   C11F10425   5.183   1.327   4.947  0.3843  0.0898  0.2256
  103OSM   H11F10426   5.073   1.334   4.939  0.3573 -0.0146  0.5237
  103OSM   H11G10427   5.217   1.225   4.973 -1.8116 -0.3403  1.6431
  103OSM   C12F10428   5.235   1.369   4.811  0.2438 -0.1065  0.5331
  103OSM   H12F10429   5.344   1.348   4.810  0.1687 -0.5959  1.4956
  103OSM   H12G10430   5.230   1.476   4.781  2.4864 -0.5985 -2.0347
  103OSM   C13F10431   5.182   1.298   4.687  0.7940  0.7352 -0.6223
  103OSM   H13F10432   5.072   1.292   4.674  0.5771  1.2438  0.7835
  103OSM   H13G10433   5.221   1.195   4.704 -1.7502 -0.0335  1.0604
  103OSM   C14F10434   5.259   1.338   4.566 -0.3420  0.1214  0.1334
  103OSM   H14F10435   5.366   1.356   4.586 -0.0998  2.5798 -2.6144
  103OSM   H14G10436   5.220   1.435   4.530 -1.2351 -1.1036 -2.4977
  103OSM   C15F10437   5.227   1.244   4.447 -0.9839  0.8384  0.0353
  103OSM   H15F10438   5.125   1.202   4.435 -0.5481  0.3403 -2.7906
  103OSM   H15G10439   5.291   1.157   4.473 -1.6033 -0.0567 -1.2852
  103OSM   C16F10440   5.271   1.305   4.309 -0.6869  0.1095 -0.0300
  103OSM   H16F10441   5.241   1.411   4.295  2.6106  0.7917 -3.0608
  103OSM   H16G10442   5.229   1.261   4.216 -0.0651  0.9234 -0.7097
  103OSM   C17F10443   5.428   1.313   4.297  0.1995  0.6713  0.6522
  103OSM   H17F10444   5.478   1.347   4.390  0.7882  0.7425  0.3205
  103OSM   H17G10445   5.455   1.384   4.215  1.8363 -0.7196 -0.0872
  103OSM   C18F10446   5.479   1.171   4.257  0.3082 -0.9134 -0.3020
  103OSM   H18F10447   5.589   1.179   4.241  0.2403  1.6178  0.0653
  103OSM   H18G10448   5.434   1.131   4.163 -0.4751 -0.8861  0.0623
  103OSM   H18H10449   5.483   1.097   4.339 -1.5033  0.8536  1.4601
  104OSM      N10450   5.552   2.917   6.919 -0.0402 -0.1280 -0.5482
  104OSM    C1510451   5.677   2.994   6.951 -0.1380  0.3700 -0.0290
  104OSM   H15A10452   5.704   2.978   7.054  0.8275  2.0492  0.0014
  104OSM   H15B10453   5.665   3.098   6.924 -0.8840  0.1851 -0.4420
  104OSM   H15C10454   5.757   2.956   6.889 -1.1062 -0.3299 -0.9095
  104OSM    C1410455   5.564   2.775   6.958 -0.9658  0.0434  0.3127
  104OSM   H14A10456   5.465   2.732   6.953 -1.0029  0.1536  0.0519
  104OSM   H14B10457   5.594   2.754   7.059  2.1330  0.7709 -0.3512
  104OSM   H14C10458   5.625   2.719   6.889  1.0189  0.6858  1.4767
  104OSM    C1310459   5.438   2.975   7.001 -0.0729 -0.4302  0.0754
  104OSM   H13A10460   5.453   3.082   6.996 -2.0465 -0.0128  1.8311
  104OSM   H13B10461   5.438   2.928   7.097 -3.2146 -0.0846  0.3300
  104OSM   H13C10462   5.341   2.952   6.960  0.0950  0.0683 -0.6323
  104OSM    C1210463   5.522   2.932   6.771  0.2862 -0.2662 -0.2842
  104OSM   H12A10464   5.489   3.033   6.753  1.4347  0.2445  0.4248
  104OSM   H12B10465   5.422   2.892   6.755 -0.0579  0.1749  0.7357
  104OSM    C1110466   5.633   2.891   6.658 -0.2278  0.7224 -0.8339
  104OSM   H11A10467   5.586   2.906   6.558 -0.7972  0.8838 -0.5490
  104OSM   H11B10468   5.648   2.784   6.681  3.0276  1.1622 -0.5195
  104OSM      P10469   5.799   3.103   6.619  0.0111 -0.1008  0.1961
  104OSM    O1310470   5.709   3.200   6.690 -0.0498  0.1927 -0.1976
  104OSM    O1410471   5.948   3.118   6.646  0.2655 -0.0447  0.3263
  104OSM    O1110472   5.774   3.101   6.467 -0.1811  0.1665 -0.1714
  104OSM    O1210473   5.759   2.960   6.666  0.3833 -0.0552  0.6057
  104OSM    C1S10474   5.797   2.992   6.380 -0.1004  0.0284  0.2643
  104OSM    H1S10475   5.702   2.934   6.374 -0.1233 -0.1744  2.1587
  104OSM    H1T10476   5.870   2.911   6.405 -1.6422 -2.2564 -2.0417
  104OSM     NF10477   5.812   2.909   6.132  0.3969 -0.5655 -0.2065
  104OSM    HNF10478   5.890   2.858   6.098  1.1832 -0.8724  1.9283
  104OSM    C2S10479   5.826   3.023   6.225 -0.7078  0.0769 -0.3991
  104OSM    H2S10480   5.746   3.091   6.187 -0.5533  1.0222  0.9055
  104OSM    C3S10481   5.949   3.112   6.223  0.3803 -0.0601 -0.3147
  104OSM    H3S10482   6.026   3.071   6.291  0.0098 -0.9255 -0.4029
  104OSM     O310483   5.925   3.241   6.278 -0.4425  0.4123  0.2701
  104OSM    HO310484   5.846   3.218   6.327  0.0037  0.9842  1.2963
  104OSM    C4S10485   6.011   3.120   6.094 -0.8450 -0.4777 -0.1180
  104OSM    H4S10486   6.067   3.032   6.058 -0.6950  0.5632 -2.5856
  104OSM    C5S10487   6.019   3.220   6.005  0.0635  0.1300  0.1633
  104OSM    H5S10488   5.994   3.322   6.037 -1.0698 -0.3998  1.0757
  104OSM    C6S10489   6.089   3.217   5.872  0.0856 -0.0563 -1.3921
  104OSM    H6S10490   6.163   3.136   5.891 -0.2412  0.0071  0.4131
  104OSM    H6T10491   6.145   3.312   5.856 -0.5416  0.9616  1.6278
  104OSM    C7S10492   6.000   3.175   5.755  0.1619  0.0515 -0.0967
  104OSM    H7S10493   5.902   3.227   5.756 -0.3245 -0.8289  0.5110
  104OSM    H7T10494   5.973   3.067   5.764 -0.3107  0.2699  1.4913
  104OSM    C8S10495   6.076   3.204   5.628 -0.2800 -0.0836 -0.0285
  104OSM    H8S10496   6.166   3.139   5.625  0.8722  1.4765 -0.3997
  104OSM    H8T10497   6.109   3.310   5.630 -1.7663  0.4046  1.6968
  104OSM    C9S10498   5.994   3.187   5.500  1.0583 -0.6767 -0.0889
  104OSM    H9S10499   5.929   3.277   5.489  0.2934 -1.0274  1.3053
  104OSM    H9T10500   5.929   3.097   5.501 -4.1491  2.6913  0.0010
  104OSM   C10S10501   6.071   3.185   5.372 -0.0787  0.2873  0.2327
  104OSM   H10S10502   6.143   3.101   5.362 -0.1364  0.2470  0.1552
  104OSM   H10T10503   6.131   3.278   5.358  1.8492 -0.9013  0.2367
  104OSM   C11S10504   5.975   3.183   5.248  0.3523 -0.4676 -0.2858
  104OSM   H11S10505   5.924   3.281   5.238 -0.7153 -0.9817 -0.0427
  104OSM   H11T10506   5.898   3.106   5.268 -1.4521  1.6459  1.3618
  104OSM   C12S10507   6.052   3.159   5.110  0.9616  0.3159  0.0087
  104OSM   H12S10508   6.143   3.097   5.125  0.5463 -0.1464  0.6661
  104OSM   H12T10509   6.094   3.255   5.072  0.3879  0.9666  0.9710
  104OSM   C13S10510   5.959   3.101   5.010 -0.3814 -0.2652  0.0672
  104OSM   H13S10511   5.859   3.129   5.048  0.5384  1.4886  1.3065
  104OSM   H13T10512   5.963   2.991   4.994 -1.0459 -0.0309 -2.0406
  104OSM   C14S10513   5.976   3.161   4.872 -0.4208 -0.5150  0.5929
  104OSM   H14S10514   6.085   3.161   4.851 -1.1405  1.9045 -4.4706
  104OSM   H14T10515   5.934   3.264   4.869  0.0011 -0.3526  0.2658
  104OSM   C15S10516   5.910   3.093   4.747 -0.4778 -0.2429 -0.4411
  104OSM   H15S10517   5.799   3.091   4.759 -0.2475 -0.2763  2.3291
  104OSM   H15T10518   5.945   2.988   4.740 -1.8476 -0.7429 -0.1947
  104OSM   C16S10519   5.951   3.155   4.605  0.7974  0.1583 -0.1572
  104OSM   H16S10520   5.912   3.258   4.595  1.0342  0.2554 -0.0861
  104OSM   H16T10521   5.889   3.097   4.533 -2.2536  0.8156  1.7221
  104OSM   C17S10522   6.100   3.164   4.582 -0.6397 -0.6157  0.2752
  104OSM   H17S10523   6.149   3.064   4.578 -0.2233 -0.3833 -0.9716
  104OSM   H17T10524   6.147   3.212   4.670 -1.2564 -1.6506  1.1910
  104OSM   C18S10525   6.144   3.242   4.455  0.0108  0.3309 -0.6123
  104OSM   H18S10526   6.104   3.202   4.359  1.8506  0.8162 -1.6351
  104OSM   H18T10527   6.254   3.233   4.446  0.1553 -0.3705  1.3841
  104OSM   H18U10528   6.122   3.349   4.473 -1.6740 -0.0144 -0.4536
  104OSM    C1F10529   5.697   2.849   6.093  0.0810  0.3910  0.0956
  104OSM     OF10530   5.596   2.904   6.133 -0.1525  0.8415  0.3476
  104OSM    C2F10531   5.699   2.723   6.013 -0.0449  0.1162  0.3478
  104OSM    H2F10532   5.664   2.642   6.080  2.7086 -0.5870  1.0879
  104OSM    H2G10533   5.805   2.702   5.986 -0.0618  0.2979  0.1365
  104OSM    C3F10534   5.602   2.728   5.888  0.1074  0.6828 -0.1027
  104OSM    H3F10535   5.498   2.754   5.916  0.3729  1.8914 -0.1533
  104OSM    H3G10536   5.599   2.630   5.836  0.4618  1.0998 -0.9429
  104OSM    C4F10537   5.660   2.834   5.782  0.0777 -0.0176 -0.0675
  104OSM    H4F10538   5.770   2.815   5.777  0.1642 -0.6258  2.4153
  104OSM    H4G10539   5.647   2.938   5.819 -1.1222 -0.8035  1.8831
  104OSM    C5F10540   5.597   2.833   5.639  0.0857 -0.9600 -0.2471
  104OSM    H5F10541   5.488   2.839   5.657  0.2753 -2.0516  1.4606
  104OSM    H5G10542   5.609   2.733   5.592  0.6425 -0.2859 -1.5889
  104OSM    C6F10543   5.655   2.940   5.545  0.3374 -0.4977 -0.3514
  104OSM    H6F10544   5.764   2.928   5.526  0.2626 -0.1073 -1.1088
  104OSM    H6G10545   5.633   3.037   5.595 -1.1641 -0.4760 -1.0035
  104OSM    C7F10546   5.577   2.941   5.412 -0.4646 -0.2918  0.3529
  104OSM    H7F10547   5.469   2.956   5.435 -0.0628  0.6522  1.7562
  104OSM    H7G10548   5.585   2.847   5.353  1.3850  0.3703 -0.5152
  104OSM    C8F10549   5.627   3.053   5.320 -0.2524  0.4423  0.4616
  104OSM    H8F10550   5.734   3.030   5.299 -0.1463  1.2095  0.1285
  104OSM    H8G10551   5.625   3.152   5.370 -0.2965  1.0129 -0.6432
  104OSM    C9F10552   5.561   3.070   5.190  0.1179 -0.1592 -0.5585
  104OSM    H9F10553   5.522   3.171   5.170 -2.1538 -0.8349  0.1466
  104OSM   C10F10554   5.556   2.981   5.091  0.3021 -0.2416  0.8521
  104OSM   H10F10555   5.499   3.014   5.003 -0.9992  0.4771  1.9180
  104OSM   C11F10556   5.616   2.843   5.078  0.5851  0.3365 -0.3302
  104OSM   H11F10557   5.538   2.764   5.088  0.9270 -0.0845 -0.9406
  104OSM   H11G10558   5.676   2.821   5.169 -1.2112 -1.6788  0.4640
  104OSM   C12F10559   5.704   2.804   4.956  0.1196 -0.3103 -0.1521
  104OSM   H12F10560   5.773   2.725   4.991  2.9876  2.3953  0.8353
  104OSM   H12G10561   5.766   2.893   4.932  0.5230 -0.9474 -1.5396
  104OSM   C13F10562   5.615   2.770   4.836  0.4737 -0.6574  0.8875
  104OSM   H13F10563   5.576   2.871   4.814 -1.1454 -1.0148  1.9724
  104OSM   H13G10564   5.531   2.705   4.867 -0.8703  1.1956  1.2605
  104OSM   C14F10565   5.692   2.717   4.717 -0.2164 -0.2330  0.0550
  104OSM   H14F10566   5.741   2.619   4.733 -0.3365 -0.2432  0.3536
  104OSM   H14G10567   5.771   2.792   4.693 -0.1053 -1.2103 -3.1465
  104OSM   C15F10568   5.600   2.706   4.594 -0.0311  0.6802  0.5515
  104OSM   H15F10569   5.547   2.803   4.589 -2.0635 -0.4175 -0.5810
  104OSM   H15G10570   5.523   2.629   4.618  0.6587  0.6127  2.7471
  104OSM   C16F10571   5.665   2.667   4.460 -0.0817  0.3979 -0.7010
  104OSM   H16F10572   5.728   2.576   4.475 -0.0680  0.5174  0.0154
  104OSM   H16G10573   5.730   2.748   4.421  0.7211  0.8148  1.3746
  104OSM   C17F10574   5.573   2.620   4.349  0.1250  0.2101  0.5017
  104OSM   H17F10575   5.504   2.702   4.319  0.4616  0.2983 -0.0465
  104OSM   H17G10576   5.515   2.531   4.382 -0.3165  0.3469  0.1120
  104OSM   C18F10577   5.656   2.570   4.234  0.0488  0.1347 -0.0387
  104OSM   H18F10578   5.707   2.646   4.171 -0.2611 -0.1423 -0.6226
  104OSM   H18G10579   5.602   2.502   4.166  0.5633  0.7474 -1.0780
  104OSM   H18H10580   5.740   2.515   4.281  0.0884  1.1363  1.1373
  105OSM      N10581   5.965   1.726   6.731  0.0152  0.3897 -0.3966
  105OSM    C1510582   6.013   1.585   6.729 -0.1162 -0.3016 -0.5639
  105OSM   H15A10583   6.081   1.564   6.648 -1.8381 -1.2862 -1.8266
  105OSM   H15B10584   5.926   1.523   6.712 -0.5318 -0.0874  0.6236
  105OSM   H15C10585   6.061   1.560   6.823 -1.6418  0.5549  0.5006
  105OSM    C1410586   5.844   1.742   6.816  0.6145 -0.2062 -0.6262
  105OSM   H14A10587   5.763   1.677   6.786 -0.4220 -0.2300  1.9462
  105OSM   H14B10588   5.804   1.841   6.798 -0.5259 -0.8771 -1.9712
  105OSM   H14C10589   5.869   1.717   6.918  1.8490  3.3417  0.0828
  105OSM    C1310590   6.073   1.800   6.798 -0.0066 -0.5172 -0.0980
  105OSM   H13A10591   6.066   1.799   6.906  1.0426 -0.6987 -0.0227
  105OSM   H13B10592   6.056   1.903   6.771 -2.5580 -0.8489 -0.0097
  105OSM   H13C10593   6.169   1.768   6.762 -1.3111 -2.4077 -2.1521
  105OSM    C1210594   5.936   1.776   6.595  0.1254 -0.0010 -0.0860
  105OSM   H12A10595   5.850   1.841   6.585 -0.3865 -0.9260 -2.1921
  105OSM   H12B10596   5.903   1.691   6.538 -2.2048  0.8852 -0.1754
  105OSM    C1110597   6.050   1.835   6.508  0.1390  0.7381 -0.2307
  105OSM   H11A10598   6.012   1.828   6.403  2.7527 -2.1080 -1.1620
  105OSM   H11B10599   6.141   1.773   6.523 -0.7644  0.0369  3.0995
  105OSM      P10600   5.990   2.087   6.528 -0.5035 -0.2009  0.3518
  105OSM    O1310601   5.863   2.034   6.478  0.5171  0.1183  0.5044
  105OSM    O1410602   5.992   2.180   6.645 -0.5012  0.1040  0.2177
  105OSM    O1110603   6.050   2.164   6.406 -0.0927 -0.0606 -0.1514
  105OSM    O1210604   6.096   1.966   6.553  0.1571 -0.4276 -0.5708
  105OSM    C1S10605   6.122   2.114   6.296  0.2651 -0.1660 -0.3969
  105OSM    H1S10606   6.155   2.009   6.308  0.3713 -0.5606 -3.3007
  105OSM    H1T10607   6.210   2.180   6.281 -1.9833  2.4542 -3.6731
  105OSM     NF10608   6.114   2.076   6.049  0.2796 -0.4819 -0.2055
  105OSM    HNF10609   6.148   2.140   5.981 -0.8426  1.8959  1.3536
  105OSM    C2S10610   6.045   2.129   6.161  0.1316  0.2433 -0.2261
  105OSM    H2S10611   5.950   2.071   6.164  0.7629 -0.8257 -0.5485
  105OSM    C3S10612   6.013   2.284   6.133  0.1707  1.0598 -0.3664
  105OSM    H3S10613   6.114   2.332   6.127  0.0102  1.5579  0.7444
  105OSM     O310614   5.963   2.347   6.244  0.1524  0.9173 -0.3552
  105OSM    HO310615   5.970   2.277   6.309  2.3300  1.9305  0.6318
  105OSM    C4S10616   5.933   2.307   6.010  0.3991  0.2919 -0.0502
  105OSM    H4S10617   5.990   2.346   5.924  0.5635 -0.2264 -0.1813
  105OSM    C5S10618   5.802   2.285   6.001  0.7383 -0.4116 -0.4743
  105OSM    H5S10619   5.749   2.245   6.089  2.2729  0.3860  0.8635
  105OSM    C6S10620   5.724   2.309   5.873  0.2196  0.3499  0.2802
  105OSM    H6S10621   5.632   2.368   5.892  1.4561  1.8710  1.8623
  105OSM    H6T10622   5.697   2.204   5.847  0.9769 -0.3789  2.2100
  105OSM    C7S10623   5.790   2.377   5.748  0.2761  0.5857  0.4926
  105OSM    H7S10624   5.880   2.319   5.718  1.4934  3.6240 -2.3559
  105OSM    H7T10625   5.814   2.483   5.773 -2.8751  1.4906  0.0678
  105OSM    C8S10626   5.701   2.376   5.622  0.9638 -0.2651  0.1643
  105OSM    H8S10627   5.604   2.421   5.653  0.7022  0.2254 -1.2828
  105OSM    H8T10628   5.679   2.271   5.593 -2.9136 -0.1035  1.8590
  105OSM    C9S10629   5.763   2.452   5.507  0.3471 -0.7407  0.1330
  105OSM    H9S10630   5.853   2.399   5.471  0.6102  1.5901 -3.0304
  105OSM    H9T10631   5.778   2.559   5.533  2.1963 -0.8508 -0.3851
  105OSM   C10S10632   5.663   2.475   5.395  0.1513 -0.3313 -0.8836
  105OSM   H10S10633   5.591   2.555   5.423  1.1149 -0.6261  2.9417
  105OSM   H10T10634   5.610   2.377   5.393  1.5277 -1.1975  1.2459
  105OSM   C11S10635   5.725   2.527   5.275 -0.3787  0.6803  0.1457
  105OSM   H11S10636   5.785   2.618   5.296  0.1454  0.7935 -1.6136
  105OSM   H11T10637   5.640   2.555   5.210 -2.0742 -3.2430  0.3849
  105OSM   C12S10638   5.808   2.422   5.194 -0.0853  0.5418 -0.2043
  105OSM   H12S10639   5.892   2.383   5.255 -0.5170  1.7284  1.2367
  105OSM   H12T10640   5.851   2.468   5.103  0.6720  0.1207 -0.0613
  105OSM   C13S10641   5.732   2.296   5.158 -0.7343 -0.1889  0.4192
  105OSM   H13S10642   5.622   2.309   5.148 -0.6895 -1.3273 -3.1060
  105OSM   H13T10643   5.748   2.231   5.247  4.0374  0.5925  0.3674
  105OSM   C14S10644   5.794   2.213   5.039 -0.3049 -0.5131  0.1276
  105OSM   H14S10645   5.781   2.102   5.039  2.2748 -0.9621 -2.6686
  105OSM   H14T10646   5.899   2.230   5.071  0.4847 -0.2442 -2.3574
  105OSM   C15S10647   5.759   2.278   4.899  0.0803  0.6575 -1.0739
  105OSM   H15S10648   5.779   2.387   4.898  0.4350  0.6026 -0.3861
  105OSM   H15T10649   5.649   2.278   4.891 -0.0425  1.1044  0.3449
  105OSM   C16S10650   5.829   2.215   4.774  0.0106  0.4933 -0.2012
  105OSM   H16S10651   5.784   2.114   4.763  1.4539 -0.4481  2.0109
  105OSM   H16T10652   5.937   2.198   4.791 -0.3684 -0.4543  1.5430
  105OSM   C17S10653   5.806   2.284   4.638 -0.4937  0.5005 -0.5630
  105OSM   H17S10654   5.874   2.371   4.623 -0.1296  0.2377 -0.4720
  105OSM   H17T10655   5.703   2.323   4.644  0.0387  1.8125  1.0751
  105OSM   C18S10656   5.829   2.186   4.521 -0.0629  0.2032 -0.0517
  105OSM   H18S10657   5.936   2.157   4.532  0.8345  2.7478 -1.4019
  105OSM   H18T10658   5.807   2.238   4.426 -2.0088 -0.0705  0.1985
  105OSM   H18U10659   5.757   2.103   4.536  0.5023 -0.5419 -1.2510
  105OSM    C1F10660   6.142   1.948   6.036  0.4573  0.3877  0.5353
  105OSM     OF10661   6.095   1.871   6.122  0.1722 -0.5850 -0.1531
  105OSM    C2F10662   6.229   1.896   5.923  0.0761 -0.2000  0.2809
  105OSM    H2F10663   6.307   1.828   5.963 -0.1816 -0.6838 -0.0339
  105OSM    H2G10664   6.271   1.988   5.877  0.7092 -0.7545 -0.2691
  105OSM    C3F10665   6.151   1.820   5.819  0.5284 -0.0584 -0.4993
  105OSM    H3F10666   6.085   1.880   5.751 -0.1908  0.3264  0.5167
  105OSM    H3G10667   6.078   1.754   5.869  0.9323  1.1694  1.8543
  105OSM    C4F10668   6.243   1.725   5.741  0.4379 -0.0488 -0.1217
  105OSM    H4F10669   6.282   1.647   5.810  0.8253  0.5767  0.3838
  105OSM    H4G10670   6.318   1.803   5.717 -0.5289  1.3419  1.1488
  105OSM    C5F10671   6.177   1.659   5.619  0.2965 -0.2854 -0.2110
  105OSM    H5F10672   6.079   1.701   5.587 -0.9322 -1.1689  2.2002
  105OSM    H5G10673   6.155   1.556   5.654  2.8123 -0.3590  1.3673
  105OSM    C6F10674   6.283   1.652   5.511  0.6358 -0.1770  0.1999
  105OSM    H6F10675   6.379   1.605   5.539  0.3081 -3.5333 -3.4059
  105OSM    H6G10676   6.318   1.754   5.482  2.6562 -0.8966 -0.0629
  105OSM    C7F10677   6.226   1.563   5.403  0.8127 -0.1888  0.2983
  105OSM    H7F10678   6.146   1.620   5.351  0.3458 -0.6114  0.5471
  105OSM    H7G10679   6.168   1.474   5.436  0.2886  0.2915  0.6983
  105OSM    C8F10680   6.343   1.507   5.316  0.7099 -1.4988  0.0354
  105OSM    H8F10681   6.303   1.424   5.253 -0.8884 -2.2085  1.9015
  105OSM    H8G10682   6.415   1.466   5.390  0.4992 -2.1276 -0.1032
  105OSM    C9F10683   6.406   1.611   5.227  0.4328  0.5528  0.3025
  105OSM    H9F10684   6.470   1.682   5.282  2.0148 -1.1903  0.8325
  105OSM   C10F10685   6.406   1.616   5.093 -0.8261  0.2930 -0.2540
  105OSM   H10F10686   6.459   1.698   5.043  1.5270 -0.3884  0.9749
  105OSM   C11F10687   6.338   1.513   5.005 -0.0263 -0.0037  0.8209
  105OSM   H11F10688   6.244   1.479   5.054  0.6351  0.8748  2.8060
  105OSM   H11G10689   6.412   1.434   4.982  0.3036  0.5291 -0.0017
  105OSM   C12F10690   6.289   1.570   4.870 -0.0169 -0.4539  0.1988
  105OSM   H12F10691   6.242   1.669   4.888 -1.5770 -1.0589 -0.3143
  105OSM   H12G10692   6.225   1.497   4.816  0.1287 -0.0756 -0.4874
  105OSM   C13F10693   6.406   1.594   4.763 -0.3003  0.0546 -0.4204
  105OSM   H13F10694   6.473   1.508   4.744  0.5974  0.0348  2.4071
  105OSM   H13G10695   6.466   1.675   4.810 -0.7920 -0.3451  0.9532
  105OSM   C14F10696   6.349   1.629   4.626  0.3237  0.5107 -0.5168
  105OSM   H14F10697   6.284   1.718   4.642 -0.4565 -0.2668  0.8421
  105OSM   H14G10698   6.287   1.552   4.576  1.4853 -0.5442 -0.3747
  105OSM   C15F10699   6.448   1.662   4.521  0.4526 -0.4074  0.6577
  105OSM   H15F10700   6.491   1.567   4.481  2.5292  0.2868  1.1504
  105OSM   H15G10701   6.528   1.726   4.562  0.4462  0.7104 -1.0117
  105OSM   C16F10702   6.386   1.738   4.403 -0.5955  0.6272 -0.8039
  105OSM   H16F10703   6.473   1.783   4.350  2.8698 -1.3238  2.7154
  105OSM   H16G10704   6.323   1.820   4.443 -1.6677 -0.6958  0.3546
  105OSM   C17F10705   6.315   1.651   4.298  0.0423 -0.1068 -0.1013
  105OSM   H17F10706   6.227   1.606   4.349  0.3112 -0.7665 -0.2123
  105OSM   H17G10707   6.387   1.574   4.263  0.4848 -0.7303  2.0546
  105OSM   C18F10708   6.267   1.730   4.175 -0.2161  0.2367  0.1314
  105OSM   H18F10709   6.200   1.817   4.198  2.2781  2.7170 -1.3840
  105OSM   H18G10710   6.201   1.663   4.116  0.2726 -0.3624  0.2627
  105OSM   H18H10711   6.357   1.756   4.116 -0.1594 -1.6014 -0.6518
  106OSM      N10712   3.029   0.432   6.541  0.6982  0.2691  0.3130
  106OSM    C1510713   3.002   0.326   6.643 -0.5976 -0.3165  0.1290
  106OSM   H15A10714   3.069   0.242   6.628  1.3459  1.1894 -0.0025
  106OSM   H15B10715   2.898   0.298   6.633 -1.9764  2.9751  3.1900
  106OSM   H15C10716   3.022   0.359   6.744  0.8282 -1.2189  0.1764
  106OSM    C1410717   3.005   0.357   6.411 -0.4404 -0.7985 -0.3906
  106OSM   H14A10718   2.904   0.319   6.409 -0.7220 -0.1872  1.1496
  106OSM   H14B10719   3.074   0.273   6.411 -1.7266 -2.0420  3.2224
  106OSM   H14C10720   3.029   0.421   6.327  1.3510 -0.0601  0.6210
  106OSM    C1310721   2.925   0.539   6.556 -0.0175 -0.0545  0.4891
  106OSM   H13A10722   2.940   0.607   6.474  0.7625  0.9447  1.4339
  106OSM   H13B10723   2.940   0.587   6.651 -0.2537  1.5867 -0.2713
  106OSM   H13C10724   2.834   0.484   6.535  0.4213 -1.4096  1.9291
  106OSM    C1210725   3.175   0.477   6.541 -0.2387 -1.0208  0.2485
  106OSM   H12A10726   3.239   0.391   6.527  0.5248 -0.2242 -1.3636
  106OSM   H12B10727   3.210   0.519   6.634 -0.0006  1.1686 -0.7592
  106OSM    C1110728   3.224   0.581   6.437 -0.7724 -0.5372  0.6071
  106OSM   H11A10729   3.316   0.636   6.469 -1.7175  1.8035 -0.4341
  106OSM   H11B10730   3.157   0.670   6.435 -2.0874 -1.3644  3.2137
  106OSM      P10731   3.379   0.449   6.277 -0.3189  0.2776  0.0810
  106OSM    O1310732   3.491   0.545   6.285 -0.6325 -0.3592 -1.3245
  106OSM    O1410733   3.375   0.331   6.367 -0.1688  0.2139 -0.5003
  106OSM    O1110734   3.370   0.402   6.120  0.1096  0.1744  0.1701
  106OSM    O1210735   3.242   0.524   6.313  0.1926  0.0464  0.4151
  106OSM    C1S10736   3.342   0.502   6.019 -0.4449  0.5572 -0.2855
  106OSM    H1S10737   3.428   0.570   6.006 -1.8187  2.0129 -2.2532
  106OSM    H1T10738   3.249   0.558   6.046  0.1847  0.7446  1.6614
  106OSM     NF10739   3.331   0.540   5.766  0.1174 -0.0297  0.2730
  106OSM    HNF10740   3.252   0.586   5.726  1.5826  1.4646 -1.0520
  106OSM    C2S10741   3.321   0.439   5.876 -1.1467 -0.3762  0.0705
  106OSM    H2S10742   3.401   0.366   5.856 -2.2404 -1.7209  0.4346
  106OSM    C3S10743   3.190   0.360   5.898 -0.2035 -0.5050  0.0398
  106OSM    H3S10744   3.115   0.423   5.950  2.5244  2.3296  0.8325
  106OSM     O310745   3.214   0.241   5.970  0.6923 -0.3521  0.1473
  106OSM    HO310746   3.289   0.268   6.023 -0.9995  2.6866  1.2522
  106OSM    C4S10747   3.137   0.322   5.759  0.3127 -0.0034 -0.5745
  106OSM    H4S10748   3.219   0.311   5.687  0.8185  0.6763 -0.1130
  106OSM    C5S10749   3.010   0.314   5.722  0.1279 -0.8867 -0.6599
  106OSM    H5S10750   2.927   0.319   5.794  1.0878 -0.8620  0.4681
  106OSM    C6S10751   2.964   0.311   5.575 -0.7137 -0.0318 -0.3443
  106OSM    H6S10752   2.904   0.400   5.547 -1.0427 -0.1519 -0.0208
  106OSM    H6T10753   2.905   0.218   5.560  2.3131 -2.2901  0.6474
  106OSM    C7S10754   3.074   0.295   5.475  0.3001 -0.7223  0.0777
  106OSM    H7S10755   3.116   0.193   5.494 -1.1267 -1.3648 -0.1035
  106OSM    H7T10756   3.155   0.371   5.481  0.3271 -0.4945 -2.2979
  106OSM    C8S10757   3.021   0.284   5.334 -0.1072 -0.1221  0.2079
  106OSM    H8S10758   2.945   0.360   5.309 -0.6738 -0.0763  1.8985
  106OSM    H8T10759   2.975   0.183   5.329 -3.4355  1.1852  1.6064
  106OSM    C9S10760   3.125   0.288   5.222 -0.1019  0.1734  0.2384
  106OSM    H9S10761   3.207   0.214   5.234 -0.2269 -0.6612 -3.1162
  106OSM    H9T10762   3.168   0.390   5.226 -1.3886  0.8385 -1.4128
  106OSM   C10S10763   3.070   0.270   5.075  0.3805 -0.0658  0.1202
  106OSM   H10S10764   2.979   0.334   5.067  1.9663  2.0318 -2.7769
  106OSM   H10T10765   3.035   0.165   5.065 -0.1252  0.1638 -0.5986
  106OSM   C11S10766   3.159   0.300   4.951 -0.4971 -0.4128  0.1132
  106OSM   H11S10767   3.251   0.240   4.968  1.0264  1.9820  0.8967
  106OSM   H11T10768   3.183   0.409   4.946 -1.0045 -0.3126 -0.3221
  106OSM   C12S10769   3.098   0.243   4.817  0.5956 -0.6733 -0.8567
  106OSM   H12S10770   3.064   0.139   4.833 -0.6569 -0.2897 -0.8645
  106OSM   H12T10771   3.182   0.242   4.744 -0.1060  2.3933 -1.8633
  106OSM   C13S10772   2.994   0.341   4.752 -0.7293  0.3100 -0.7940
  106OSM   H13S10773   3.036   0.443   4.752 -0.2753  0.1924  1.7883
  106OSM   H13T10774   2.904   0.348   4.817  0.4636  0.3665  0.9180
  106OSM   C14S10775   2.939   0.296   4.615  0.2498 -0.0243  0.1068
  106OSM   H14S10776   2.905   0.194   4.643 -0.4825  0.4765  1.1132
  106OSM   H14T10777   3.018   0.288   4.537 -0.1315  0.5997 -0.3543
  106OSM   C15S10778   2.815   0.371   4.564  0.5369  0.0641  0.4977
  106OSM   H15S10779   2.743   0.386   4.647 -0.0514 -0.9157  0.1728
  106OSM   H15T10780   2.757   0.323   4.482 -1.0892  1.7546  0.5974
  106OSM   C16S10781   2.855   0.514   4.528  0.6196  0.0112  0.8110
  106OSM   H16S10782   2.948   0.547   4.579  1.4445 -2.4505  1.0513
  106OSM   H16T10783   2.774   0.583   4.557 -0.5893 -1.0054 -0.0529
  106OSM   C17S10784   2.879   0.521   4.377  0.6253 -0.2126  0.7012
  106OSM   H17S10785   2.798   0.482   4.311  0.8438  0.0364  0.2763
  106OSM   H17T10786   2.967   0.455   4.363  1.2658  0.8745 -0.6597
  106OSM   C18S10787   2.909   0.665   4.328 -0.5299 -0.1679 -0.8995
  106OSM   H18S10788   3.009   0.694   4.368 -0.7118 -1.4679  0.6228
  106OSM   H18T10789   2.833   0.737   4.364 -0.6332 -1.2805  1.2725
  106OSM   H18U10790   2.903   0.670   4.218 -0.0656  3.0724 -0.8584
  106OSM    C1F10791   3.454   0.581   5.726 -0.6153  0.3217 -0.2647
  106OSM     OF10792   3.549   0.542   5.796 -0.5458  0.4553  0.6288
  106OSM    C2F10793   3.480   0.672   5.610  0.6406 -0.5933  0.0797
  106OSM    H2F10794   3.406   0.755   5.598  2.3055  1.0322  0.5599
  106OSM    H2G10795   3.486   0.607   5.520  0.0899 -1.5810  0.7440
  106OSM    C3F10796   3.621   0.739   5.624 -0.1162 -0.2676 -0.2256
  106OSM    H3F10797   3.700   0.663   5.640 -1.6464 -2.2449 -1.5569
  106OSM    H3G10798   3.610   0.813   5.706  1.9031  0.8892 -0.9285
  106OSM    C4F10799   3.658   0.823   5.504  0.3020  0.4633  0.1665
  106OSM    H4F10800   3.731   0.896   5.545  0.2881  0.0735  0.8991
  106OSM    H4G10801   3.567   0.879   5.473  1.2520  1.1409 -1.5765
  106OSM    C5F10802   3.696   0.743   5.376 -0.1883 -0.3954 -0.5013
  106OSM    H5F10803   3.614   0.677   5.341  1.4067 -2.5910 -0.2871
  106OSM    H5G10804   3.776   0.668   5.395 -1.9163 -2.5285 -1.2217
  106OSM    C6F10805   3.740   0.836   5.263 -0.5589 -0.7582  0.0292
  106OSM    H6F10806   3.821   0.904   5.297  2.5236 -2.5735 -2.9904
  106OSM    H6G10807   3.659   0.908   5.240 -1.7305 -1.9552  0.3196
  106OSM    C7F10808   3.805   0.774   5.139 -0.1988 -0.2628 -0.4996
  106OSM    H7F10809   3.889   0.711   5.176  0.1991  0.5097 -0.0540
  106OSM    H7G10810   3.858   0.864   5.100 -0.0637  0.2754  0.8660
  106OSM    C8F10811   3.711   0.705   5.045  0.3838  0.1711  0.2590
  106OSM    H8F10812   3.627   0.772   5.015  2.0504  3.7595  2.8179
  106OSM    H8G10813   3.664   0.629   5.111 -1.3378  0.6377 -0.3711
  106OSM    C9F10814   3.793   0.645   4.935 -0.0189  0.7908  0.6752
  106OSM    H9F10815   3.887   0.599   4.970 -0.9717 -0.1552  2.0848
  106OSM   C10F10816   3.757   0.661   4.802  0.1798  0.5859 -0.0584
  106OSM   H10F10817   3.829   0.628   4.725  0.2842  1.3517 -0.2978
  106OSM   C11F10818   3.635   0.731   4.748  0.1100  0.5492  0.9099
  106OSM   H11F10819   3.545   0.718   4.812 -1.4794  3.3005 -0.5584
  106OSM   H11G10820   3.601   0.692   4.650 -0.7291 -0.7276  1.6806
  106OSM   C12F10821   3.671   0.877   4.734 -0.5624 -0.3541  0.2120
  106OSM   H12F10822   3.696   0.910   4.837 -1.6711  0.2055  0.3171
  106OSM   H12G10823   3.580   0.934   4.707  0.9449  1.7197 -0.7245
  106OSM   C13F10824   3.787   0.916   4.651  0.0673 -0.1403  0.4031
  106OSM   H13F10825   3.884   0.877   4.690 -0.1145  0.1683  1.1843
  106OSM   H13G10826   3.785   1.027   4.650  1.4469 -0.0532  1.9658
  106OSM   C14F10827   3.767   0.878   4.503  0.6648 -0.2596 -0.6926
  106OSM   H14F10828   3.757   0.969   4.440 -1.0547  0.1628  0.1418
  106OSM   H14G10829   3.674   0.818   4.493  0.6972 -0.9356  2.2473
  106OSM   C15F10830   3.887   0.797   4.451 -0.4127  0.0683  0.4148
  106OSM   H15F10831   3.880   0.693   4.490  2.4637 -0.3749 -0.0217
  106OSM   H15G10832   3.985   0.838   4.483 -0.3368 -0.1665  0.4837
  106OSM   C16F10833   3.895   0.782   4.299 -0.1108  0.7324 -0.0869
  106OSM   H16F10834   3.920   0.882   4.257  1.2886  0.7866  0.8233
  106OSM   H16G10835   3.792   0.753   4.268 -0.5670 -0.1077  2.0521
  106OSM   C17F10836   3.999   0.670   4.257  0.4585  0.2735  0.9149
  106OSM   H17F10837   3.943   0.578   4.283  0.2451  0.3833  0.8452
  106OSM   H17G10838   4.094   0.675   4.315  1.6701  0.1645 -0.9998
  106OSM   C18F10839   4.025   0.658   4.107 -0.2291 -0.3916  0.7511
  106OSM   H18F10840   3.931   0.660   4.048 -0.3180  1.6717  0.8752
  106OSM   H18G10841   4.072   0.559   4.090 -0.0598 -0.3813  1.1428
  106OSM   H18H10842   4.087   0.741   4.067  0.0672 -0.9034  0.1377
  107OSM      N10843   3.155   4.725   6.591 -0.3976  0.3739 -0.1347
  107OSM    C1510844   3.263   4.833   6.584 -0.6373  0.4023 -0.4966
  107OSM   H15A10845   3.345   4.789   6.528 -1.1369 -2.5096  0.8668
  107OSM   H15B10846   3.296   4.875   6.677 -0.2499  3.1179 -1.7660
  107OSM   H15C10847   3.229   4.918   6.527 -0.4670  1.2390  0.6262
  107OSM    C1410848   3.202   4.604   6.656 -0.5632  0.0370  0.2519
  107OSM   H14A10849   3.260   4.637   6.741 -0.1489 -0.4285  0.1565
  107OSM   H14B10850   3.276   4.555   6.595  2.4647  3.0248  1.1746
  107OSM   H14C10851   3.124   4.540   6.693 -1.5025  1.1160  0.1781
  107OSM    C1310852   3.046   4.782   6.672 -0.0231 -0.5748  0.4494
  107OSM   H13A10853   3.080   4.796   6.774  0.2895  1.2355  0.1240
  107OSM   H13B10854   2.956   4.722   6.673 -0.4014 -0.0516  2.2836
  107OSM   H13C10855   3.014   4.870   6.619  0.1861 -0.6700  0.1609
  107OSM    C1210856   3.096   4.687   6.454 -0.2037 -0.4410 -0.2105
  107OSM   H12A10857   3.030   4.767   6.424  0.6972  0.2900 -0.2737
  107OSM   H12B10858   3.029   4.604   6.473 -1.3873  0.4473 -0.3814
  107OSM    C1110859   3.196   4.653   6.343 -0.6721 -0.0711 -0.3070
  107OSM   H11A10860   3.244   4.747   6.309  0.9399 -0.5047  0.6378
  107OSM   H11B10861   3.146   4.622   6.249 -0.0112 -0.6123 -0.4907
  107OSM      P10862   3.451   4.571   6.378 -0.1142 -0.2146 -0.5653
  107OSM    O1310863   3.494   4.708   6.331 -0.2697 -0.8914 -0.2781
  107OSM    O1410864   3.510   4.527   6.506  0.2804  1.0203 -0.0171
  107OSM    O1110865   3.485   4.457   6.278 -0.2696  0.8962  0.2184
  107OSM    O1210866   3.295   4.560   6.383 -0.1408 -0.3364  0.1290
  107OSM    C1S10867   3.435   4.462   6.140  0.4234 -0.3839 -0.0221
  107OSM    H1S10868   3.479   4.549   6.087 -0.2709 -0.1834 -0.2817
  107OSM    H1T10869   3.326   4.484   6.137  0.7744  1.4879 -1.9340
  107OSM     NF10870   3.467   4.393   5.915 -0.9148  0.2282 -0.0594
  107OSM    HNF10871   3.400   4.372   5.845  0.2281  0.4628 -1.2545
  107OSM    C2S10872   3.457   4.337   6.048  0.2524  0.6273 -0.6135
  107OSM    H2S10873   3.553   4.286   6.070 -0.1613 -1.2726 -2.7763
  107OSM    C3S10874   3.346   4.237   6.079  0.0015  0.2109 -0.3965
  107OSM    H3S10875   3.247   4.287   6.075 -1.3693 -2.0881  1.7010
  107OSM     O310876   3.354   4.190   6.213 -0.1299 -0.1272 -0.2543
  107OSM    HO310877   3.415   4.253   6.253  1.5492 -1.8297 -0.0100
  107OSM    C4S10878   3.350   4.125   5.989  0.1753  0.2182  0.0143
  107OSM    H4S10879   3.423   4.045   6.007 -2.0798 -2.7111 -2.6914
  107OSM    C5S10880   3.263   4.116   5.889  0.9302 -0.0607  0.4545
  107OSM    H5S10881   3.177   4.185   5.883 -0.8608 -2.3072 -1.4677
  107OSM    C6S10882   3.259   4.014   5.782  0.3563 -0.0996 -0.6407
  107OSM    H6S10883   3.154   3.979   5.774  0.1241 -0.0243  1.4792
  107OSM    H6T10884   3.319   3.922   5.796  1.5369  0.6555 -0.5930
  107OSM    C7S10885   3.292   4.077   5.639 -0.0601  0.4495  0.0757
  107OSM    H7S10886   3.223   4.163   5.622  1.8785  1.7387 -1.7647
  107OSM    H7T10887   3.260   4.001   5.565 -0.6367 -0.0900  0.8627
  107OSM    C8S10888   3.435   4.117   5.621  0.3536  0.5611 -0.4408
  107OSM    H8S10889   3.487   4.027   5.659  0.1920 -0.9660 -3.5112
  107OSM    H8T10890   3.457   4.203   5.688  1.7713 -1.2797  1.6056
  107OSM    C9S10891   3.481   4.160   5.482 -0.3374 -0.2181 -0.0847
  107OSM    H9S10892   3.413   4.247   5.463  0.9923  0.8106 -0.2959
  107OSM    H9T10893   3.458   4.085   5.404  2.9773 -0.2173 -1.1934
  107OSM   C10S10894   3.624   4.212   5.472 -0.1101  0.2770 -0.5845
  107OSM   H10S10895   3.696   4.132   5.499  1.2574  0.6540 -2.8291
  107OSM   H10T10896   3.644   4.295   5.543  2.1818 -0.9214  0.2687
  107OSM   C11S10897   3.656   4.274   5.334  0.2546 -0.3786  0.2406
  107OSM   H11S10898   3.734   4.353   5.337  0.9136 -0.8645 -2.1731
  107OSM   H11T10899   3.559   4.313   5.296 -0.5449 -1.3192  1.2395
  107OSM   C12S10900   3.711   4.168   5.245 -0.8818  0.3458 -0.2327
  107OSM   H12S10901   3.639   4.084   5.257 -0.9873  0.7331  2.5833
  107OSM   H12T10902   3.812   4.137   5.281 -0.9078  0.6914  0.1457
  107OSM   C13S10903   3.726   4.190   5.094  0.2870 -0.6817 -0.1749
  107OSM   H13S10904   3.628   4.162   5.050 -0.4733  1.1241  0.2489
  107OSM   H13T10905   3.805   4.123   5.056 -0.3712 -0.9567 -1.0774
  107OSM   C14S10906   3.751   4.332   5.044  0.4853 -0.7569 -0.0241
  107OSM   H14S10907   3.854   4.362   5.074  0.7180 -0.8515 -0.7204
  107OSM   H14T10908   3.684   4.396   5.106  0.9505 -0.8969  0.6384
  107OSM   C15S10909   3.733   4.345   4.891  0.4052 -0.0430 -0.4143
  107OSM   H15S10910   3.707   4.450   4.865 -2.5589 -0.6918 -0.4154
  107OSM   H15T10911   3.643   4.292   4.852 -0.2433  1.3761 -0.9212
  107OSM   C16S10912   3.861   4.308   4.820 -0.4964  0.1127 -0.0028
  107OSM   H16S10913   3.869   4.197   4.813 -1.7843 -0.0600  0.8461
  107OSM   H16T10914   3.942   4.343   4.888  0.2841 -0.9710 -0.3446
  107OSM   C17S10915   3.879   4.364   4.676 -0.3208 -0.1955  0.2410
  107OSM   H17S10916   3.783   4.358   4.620 -0.4183  0.1076  0.3718
  107OSM   H17T10917   3.943   4.294   4.619 -2.2203 -1.3853 -0.5283
  107OSM   C18S10918   3.932   4.508   4.669  0.4860  0.8000 -0.1979
  107OSM   H18S10919   3.867   4.572   4.732  1.7521  1.2233  0.7149
  107OSM   H18T10920   3.930   4.552   4.567  1.0699  1.9353  0.2724
  107OSM   H18U10921   4.037   4.526   4.701  0.3210  2.6291 -0.5963
  107OSM    C1F10922   3.572   4.469   5.876  0.0737  0.4980  0.3446
  107OSM     OF10923   3.672   4.481   5.944 -0.0806 -1.0090 -0.0714
  107OSM    C2F10924   3.564   4.540   5.739  0.1162  0.4263  0.0624
  107OSM    H2F10925   3.498   4.629   5.753  0.6366  0.3422  4.5877
  107OSM    H2G10926   3.514   4.470   5.670 -0.1540 -0.1171  0.7986
  107OSM    C3F10927   3.701   4.594   5.684 -0.6766 -0.2383 -0.7976
  107OSM    H3F10928   3.782   4.527   5.720 -0.8244 -0.0889 -0.1832
  107OSM    H3G10929   3.710   4.686   5.745 -2.8199 -0.4734 -0.0448
  107OSM    C4F10930   3.718   4.620   5.536  0.9649  0.5503 -0.0067
  107OSM    H4F10931   3.713   4.520   5.488  2.2007  1.3467 -1.8699
  107OSM    H4G10932   3.812   4.669   5.506  1.9983 -0.9944  0.5760
  107OSM    C5F10933   3.609   4.715   5.493  0.0666 -0.4858  0.3000
  107OSM    H5F10934   3.626   4.812   5.544  0.9368  0.1741 -1.1767
  107OSM    H5G10935   3.515   4.674   5.535  0.3310 -0.2520  1.1317
  107OSM    C6F10936   3.576   4.735   5.341 -0.4013  0.3823 -0.0158
  107OSM    H6F10937   3.514   4.827   5.337 -3.0577 -1.3243 -1.0043
  107OSM    H6G10938   3.516   4.647   5.311  0.9811 -0.9291  0.9277
  107OSM    C7F10939   3.705   4.749   5.245 -0.0093 -0.2009 -0.0214
  107OSM    H7F10940   3.766   4.657   5.248  1.7173  0.9064  0.2704
  107OSM    H7G10941   3.754   4.840   5.287  0.0786 -1.2369  2.2288
  107OSM    C8F10942   3.670   4.789   5.103 -0.3122  0.7104 -0.8090
  107OSM    H8F10943   3.770   4.808   5.058  1.1186  0.7103  2.1590
  107OSM    H8G10944   3.612   4.883   5.112 -0.0418  0.9644 -1.6358
  107OSM    C9F10945   3.604   4.678   5.032  0.6528  0.2320  0.3045
  107OSM    H9F10946   3.588   4.585   5.090  0.8239 -0.7142 -1.0991
  107OSM   C10F10947   3.560   4.680   4.906  0.3504 -0.0383 -0.2904
  107OSM   H10F10948   3.510   4.593   4.863 -1.7872  1.0266 -0.0845
  107OSM   C11F10949   3.591   4.796   4.813 -0.4656  0.7475  0.5529
  107OSM   H11F10950   3.686   4.844   4.846  0.0292 -1.0246  1.8100
  107OSM   H11G10951   3.509   4.871   4.812 -1.2142 -0.0408 -1.1949
  107OSM   C12F10952   3.608   4.758   4.663 -0.1537  0.1454 -0.5223
  107OSM   H12F10953   3.512   4.723   4.619  0.5272 -0.5478 -1.4826
  107OSM   H12G10954   3.689   4.686   4.641 -0.5151  0.1650 -2.0557
  107OSM   C13F10955   3.647   4.886   4.576 -0.2445 -0.0507  0.0326
  107OSM   H13F10956   3.734   4.937   4.622  0.6249 -0.1052 -1.4614
  107OSM   H13G10957   3.562   4.957   4.575  0.8028  1.2504  0.4857
  107OSM   C14F10958   3.687   4.862   4.430  0.3061  0.4008 -0.1057
  107OSM   H14F10959   3.681   4.957   4.373  1.4370 -0.7055 -2.1778
  107OSM   H14G10960   3.615   4.790   4.385  1.5385 -0.8320 -0.1726
  107OSM   C15F10961   3.834   4.808   4.416 -0.1665 -0.2434 -0.2330
  107OSM   H15F10962   3.840   4.717   4.480  2.6038 -0.2235 -0.3374
  107OSM   H15G10963   3.907   4.882   4.455  0.3027 -1.8100  2.1381
  107OSM   C16F10964   3.859   4.766   4.270 -0.5529  0.0542  0.0572
  107OSM   H16F10965   3.857   4.848   4.195 -0.9940 -0.8019 -0.8856
  107OSM   H16G10966   3.790   4.690   4.229  0.1524 -0.2018 -0.6855
  107OSM   C17F10967   3.998   4.696   4.253  0.1074 -0.5091  0.6444
  107OSM   H17F10968   4.001   4.655   4.150  2.3229 -0.3507  0.5938
  107OSM   H17G10969   4.006   4.599   4.305  0.3990 -1.0658 -0.4103
  107OSM   C18F10970   4.111   4.786   4.289 -0.3811 -0.4596  0.4212
  107OSM   H18F10971   4.127   4.790   4.399  3.6829 -1.8336  0.0680
  107OSM   H18G10972   4.110   4.886   4.241  0.3404 -0.6462 -0.0057
  107OSM   H18H10973   4.205   4.736   4.257 -2.7665 -3.3544 -2.8538
  108OSM      N10974   0.539   5.077   6.289 -0.1924 -0.2534 -0.8157
  108OSM    C1510975   0.655   4.977   6.292 -0.0485  0.3818 -0.4428
  108OSM   H15A10976   0.665   4.915   6.205 -0.2148  0.1729 -0.3138
  108OSM   H15B10977   0.657   4.916   6.381  0.9143  0.4891 -0.3843
  108OSM   H15C10978   0.747   5.033   6.300 -0.3542  0.9035 -0.5429
  108OSM    C1410979   0.415   5.007   6.336 -0.0779  1.3639 -0.0239
  108OSM   H14A10980   0.347   5.080   6.378  0.1305  0.5950  1.7193
  108OSM   H14B10981   0.442   4.931   6.407 -0.9927 -0.5544 -1.6366
  108OSM   H14C10982   0.382   4.962   6.244  1.2530  0.9480 -0.3183
  108OSM    C1310983   0.577   5.184   6.390 -0.5849  0.3600  0.2733
  108OSM   H13A10984   0.683   5.206   6.389 -0.9957  2.5997  0.0464
  108OSM   H13B10985   0.561   5.139   6.486 -1.9100 -0.3034 -0.2322
  108OSM   H13C10986   0.523   5.277   6.381  0.2057  0.8131  0.0842
  108OSM    C1210987   0.523   5.133   6.150  0.0982 -0.1836 -0.6784
  108OSM   H12A10988   0.612   5.189   6.126 -0.5053  0.1122 -2.2823
  108OSM   H12B10989   0.446   5.209   6.155 -0.3873 -0.7268  1.3644
  108OSM    C1110990   0.484   5.058   6.024  0.3211  0.4488  0.2815
  108OSM   H11A10991   0.563   4.985   5.997  1.4452  1.9781 -0.6841
  108OSM   H11B10992   0.479   5.132   5.941  0.4021  0.2220  0.0728
  108OSM      P10993   0.234   5.026   5.939  0.8114 -0.2530 -0.1445
  108OSM    O1310994   0.119   4.945   5.987  0.1242 -0.2779 -0.0769
  108OSM    O1410995   0.215   5.172   5.935  0.1885  0.3993 -0.5979
  108OSM    O1110996   0.283   4.967   5.801 -0.3902 -0.3998 -0.6326
  108OSM    O1210997   0.359   4.984   6.030  0.3545 -0.4824 -0.3028
  108OSM    C1S10998   0.336   5.049   5.693 -0.3749  0.5089 -0.1691
  108OSM    H1S10999   0.427   5.107   5.720  0.3263 -1.3209  1.6235
  108OSM    H1T11000   0.253   5.108   5.649 -1.7639  1.4382  3.3177
  108OSM     NF11001   0.464   5.067   5.481 -0.1124 -0.4371  0.1245
  108OSM    HNF11002   0.413   5.107   5.405 -1.8352 -1.3850  0.7247
  108OSM    C2S11003   0.399   4.976   5.573  0.1279  0.5345 -0.3262
  108OSM    H2S11004   0.464   4.897   5.616  0.1757  2.1041  2.7825
  108OSM    C3S11005   0.276   4.896   5.507 -0.0074  0.0621  0.0714
  108OSM    H3S11006   0.204   4.971   5.468  0.5813 -0.3563 -1.9587
  108OSM     O311007   0.188   4.825   5.599  0.2801 -0.4832  0.7453
  108OSM    HO311008   0.221   4.860   5.683 -1.1160  1.4004  0.5773
  108OSM    C4S11009   0.319   4.824   5.387  0.1927  0.2380  0.4420
  108OSM    H4S11010   0.307   4.889   5.300  2.2938  1.2389  0.8417
  108OSM    C5S11011   0.362   4.701   5.390  0.2216  0.0078  0.2557
  108OSM    H5S11012   0.374   4.650   5.486 -1.0915 -0.7580  0.0325
  108OSM    C6S11013   0.411   4.631   5.270 -0.2966  0.2925  0.0836
  108OSM    H6S11014   0.329   4.558   5.249 -1.6712  1.5817  0.7691
  108OSM    H6T11015   0.512   4.588   5.290 -0.1655  0.2711 -0.6113
  108OSM    C7S11016   0.429   4.700   5.134 -0.4879 -0.3291 -0.3263
  108OSM    H7S11017   0.500   4.783   5.158  0.1939 -0.2243 -2.4946
  108OSM    H7T11018   0.329   4.737   5.103 -0.9704 -1.3181  0.0114
  108OSM    C8S11019   0.476   4.605   5.021 -0.5098  0.8923  0.0610
  108OSM    H8S11020   0.511   4.660   4.932  3.0739  0.3292  0.9557
  108OSM    H8T11021   0.385   4.549   4.990  1.7813 -3.3279  0.1159
  108OSM    C9S11022   0.606   4.521   5.039 -0.3478  0.0543  0.1644
  108OSM    H9S11023   0.597   4.446   5.120  1.5444 -0.4948 -0.1057
  108OSM    H9T11024   0.681   4.583   5.093  0.1218  0.2010 -0.6411
  108OSM   C10S11025   0.665   4.466   4.909  0.1570 -0.1881  0.5872
  108OSM   H10S11026   0.690   4.558   4.851  4.0774 -1.3162  0.2391
  108OSM   H10T11027   0.581   4.406   4.868 -0.5574  0.9862  0.2718
  108OSM   C11S11028   0.790   4.377   4.922 -0.3266  0.0819  0.0901
  108OSM   H11S11029   0.775   4.294   4.994  2.5319 -0.4600  0.1941
  108OSM   H11T11030   0.879   4.429   4.963 -1.0545 -0.1268  2.0511
  108OSM   C12S11031   0.822   4.323   4.773 -0.0134 -0.0379 -0.1287
  108OSM   H12S11032   0.855   4.419   4.728 -0.5972 -0.0369 -0.5642
  108OSM   H12T11033   0.729   4.299   4.717 -0.8036  1.8903  0.2702
  108OSM   C13S11034   0.930   4.217   4.770 -0.9712 -0.2933 -0.1854
  108OSM   H13S11035   0.884   4.121   4.800 -0.2090 -2.0168 -3.9269
  108OSM   H13T11036   1.015   4.242   4.836  0.4964 -0.5929 -1.8992
  108OSM   C14S11037   0.979   4.192   4.623 -0.3555  0.0631  0.0262
  108OSM   H14S11038   1.051   4.270   4.592  0.1795  0.0236  1.1266
  108OSM   H14T11039   0.892   4.203   4.555 -1.2178  0.2308  1.1197
  108OSM   C15S11040   1.050   4.054   4.594  0.6200  0.5267  0.0806
  108OSM   H15S11041   0.970   3.978   4.585  1.0863  0.2678 -2.9983
  108OSM   H15T11042   1.116   4.031   4.680 -0.3554 -1.1039  0.4324
  108OSM   C16S11043   1.129   4.056   4.458 -0.2133  0.6540  0.0555
  108OSM   H16S11044   1.062   4.068   4.370 -0.9065 -0.7937  0.3569
  108OSM   H16T11045   1.166   3.952   4.441 -0.3587  0.5905  0.1269
  108OSM   C17S11046   1.262   4.139   4.462  0.5450 -0.0271 -0.8754
  108OSM   H17S11047   1.315   4.099   4.551 -0.0546 -1.4739 -1.1358
  108OSM   H17T11048   1.235   4.244   4.486  3.3929  0.3684  1.0922
  108OSM   C18S11049   1.360   4.117   4.348  0.3100  0.3985 -0.4031
  108OSM   H18S11050   1.291   4.122   4.262 -0.4528  3.5917  0.2690
  108OSM   H18T11051   1.408   4.016   4.342 -1.2894 -0.3534 -1.0054
  108OSM   H18U11052   1.436   4.197   4.334  0.6507 -0.0523 -1.2058
  108OSM    C1F11053   0.593   5.091   5.497  0.2208  0.0383  0.1399
  108OSM     OF11054   0.650   5.034   5.586  0.4874 -0.1140 -0.0907
  108OSM    C2F11055   0.645   5.202   5.405 -0.4072  0.0231  0.1297
  108OSM    H2F11056   0.635   5.305   5.446  2.5546  0.3893  0.1379
  108OSM    H2G11057   0.585   5.207   5.312  0.4231 -0.6465 -0.4547
  108OSM    C3F11058   0.789   5.179   5.363  0.4194  0.4532 -0.2901
  108OSM    H3F11059   0.859   5.177   5.449  1.7965  2.8628 -1.2526
  108OSM    H3G11060   0.821   5.259   5.293 -2.2615  2.0160  0.1642
  108OSM    C4F11061   0.817   5.045   5.287 -0.2393 -0.1111 -0.3728
  108OSM    H4F11062   0.779   4.958   5.345 -1.2228 -0.0558 -0.9247
  108OSM    H4G11063   0.928   5.037   5.288 -0.3621 -4.1918  1.3310
  108OSM    C5F11064   0.756   5.044   5.150  0.1341  0.1158 -0.1877
  108OSM    H5F11065   0.783   5.133   5.090  0.7583  0.2372  0.2592
  108OSM    H5G11066   0.650   5.022   5.175  0.4462 -1.2511  0.0255
  108OSM    C6F11067   0.812   4.926   5.070  0.2298 -0.6684  0.2481
  108OSM    H6F11068   0.773   4.830   5.110 -1.3398  0.4298  1.4701
  108OSM    H6G11069   0.921   4.940   5.085  0.2849 -1.0195  0.1832
  108OSM    C7F11070   0.769   4.948   4.924 -0.0240  0.2871  0.6003
  108OSM    H7F11071   0.814   5.039   4.879  0.9439 -0.0734  0.7915
  108OSM    H7G11072   0.660   4.962   4.914  0.2428  1.4136 -1.1402
  108OSM    C8F11073   0.826   4.827   4.849 -0.8311  0.5885  0.6553
  108OSM    H8F11074   0.790   4.728   4.886 -0.8236  0.3327 -0.0150
  108OSM    H8G11075   0.935   4.823   4.867 -1.0774  1.3576  2.5890
  108OSM    C9F11076   0.790   4.838   4.704  0.2368 -0.4247 -0.4477
  108OSM    H9F11077   0.700   4.782   4.676 -0.5837  0.9360 -0.6708
  108OSM   C10F11078   0.853   4.918   4.611 -0.3588  0.1698  0.1017
  108OSM   H10F11079   0.840   4.878   4.509  1.4308  0.7047 -0.3779
  108OSM   C11F11080   0.965   5.012   4.616 -0.1574  0.3744  0.6975
  108OSM   H11F11081   0.998   5.049   4.716 -1.9202  1.5506  0.8900
  108OSM   H11G11082   0.943   5.110   4.567 -2.9127 -0.3092  0.4593
  108OSM   C12F11083   1.083   4.941   4.551  0.1638 -0.3650 -0.3033
  108OSM   H12F11084   1.119   4.857   4.615  1.7691  0.4367 -0.0899
  108OSM   H12G11085   1.168   5.012   4.549 -0.1146  0.0247 -3.7780
  108OSM   C13F11086   1.060   4.891   4.407 -0.1518  0.4619  0.1478
  108OSM   H13F11087   0.995   4.955   4.345  3.3315  3.1297 -1.0970
  108OSM   H13G11088   1.019   4.788   4.419 -0.2087  0.3614 -0.8249
  108OSM   C14F11089   1.190   4.887   4.331 -0.3583  0.8446  0.0844
  108OSM   H14F11090   1.167   4.817   4.248  1.5232  0.2226  0.0239
  108OSM   H14G11091   1.265   4.840   4.400  0.3317  1.2243 -0.3913
  108OSM   C15F11092   1.245   5.019   4.271 -0.0409  0.5033  0.2594
  108OSM   H15F11093   1.267   5.095   4.348 -1.5758  2.4920 -1.1660
  108OSM   H15G11094   1.164   5.057   4.205 -0.9564  0.1289  1.1399
  108OSM   C16F11095   1.361   4.995   4.177  0.1152  0.1220  0.2666
  108OSM   H16F11096   1.328   4.920   4.103  0.4383  0.1310  0.1130
  108OSM   H16G11097   1.438   4.956   4.247  2.1677 -0.8351 -2.3610
  108OSM   C17F11098   1.434   5.121   4.119 -0.3525  0.3518  0.4629
  108OSM   H17F11099   1.361   5.159   4.045  0.1994 -2.2719 -1.6055
  108OSM   H17G11100   1.523   5.082   4.064 -0.7821 -0.3154  0.2265
  108OSM   C18F11101   1.470   5.216   4.225 -0.1147 -0.4125 -0.0632
  108OSM   H18F11102   1.546   5.174   4.293  1.6629  0.4268 -1.4276
  108OSM   H18G11103   1.389   5.254   4.291 -0.5062 -2.3887  0.6347
  108OSM   H18H11104   1.515   5.309   4.184 -0.6213  0.0743  0.4635
  109OSM      N11105   3.520   0.968   6.391 -0.3895 -0.5404  0.3886
  109OSM    C1511106   3.482   1.107   6.348  0.0354  0.3498 -0.1419
  109OSM   H15A11107   3.502   1.123   6.243  0.5215 -1.5541 -0.3729
  109OSM   H15B11108   3.541   1.177   6.406 -1.5581  2.1117 -0.5706
  109OSM   H15C11109   3.379   1.105   6.379  0.2108 -4.5944  0.9957
  109OSM    C1411110   3.673   0.960   6.402  0.2744 -0.3198 -0.8093
  109OSM   H14A11111   3.696   0.856   6.418 -0.9968 -0.3501  1.0988
  109OSM   H14B11112   3.701   1.018   6.489  0.9619 -0.1452 -1.1408
  109OSM   H14C11113   3.708   1.009   6.312 -1.3220 -0.3639 -1.4840
  109OSM    C1311114   3.477   0.933   6.523  0.8083  1.0119 -0.2532
  109OSM   H13A11115   3.518   0.837   6.551  2.2615  1.7262  0.1850
  109OSM   H13B11116   3.369   0.935   6.529  0.7875 -0.5321  0.3288
  109OSM   H13C11117   3.512   1.003   6.597 -0.6693  1.8058 -0.2653
  109OSM    C1211118   3.468   0.867   6.292 -0.2246 -0.5280 -0.0907
  109OSM   H12A11119   3.501   0.767   6.314  0.0364 -1.0131 -2.3917
  109OSM   H12B11120   3.497   0.887   6.190  1.1387  2.2342  0.7404
  109OSM    C1111121   3.315   0.862   6.272  1.1569  0.3926 -0.0792
  109OSM   H11A11122   3.264   0.841   6.368 -0.9762  0.0999 -1.2014
  109OSM   H11B11123   3.296   0.777   6.203  0.5090  0.0574  0.5004
  109OSM      P11124   3.124   1.054   6.265 -0.5359  0.0908  0.1083
  109OSM    O1311125   3.065   0.974   6.375  0.9447 -0.3583  0.1258
  109OSM    O1411126   3.166   1.195   6.296  0.1256 -0.5803  0.0239
  109OSM    O1111127   3.028   1.050   6.140  0.4478  0.6234 -0.0111
  109OSM    O1211128   3.251   0.977   6.208 -0.4358  0.6159 -0.4531
  109OSM    C1S11129   3.078   1.099   6.018  0.2612 -0.3495 -0.4056
  109OSM    H1S11130   3.168   1.045   5.983 -1.5108 -2.2894 -2.2790
  109OSM    H1T11131   3.094   1.209   6.029 -1.2690 -0.2244  0.7631
  109OSM     NF11132   3.028   1.107   5.775 -0.2641 -0.4588 -0.1901
  109OSM    HNF11133   2.993   1.186   5.726  3.5037  1.9768  0.6128
  109OSM    C2S11134   2.974   1.086   5.908  0.0915 -0.9005  0.0438
  109OSM    H2S11135   2.940   0.980   5.904 -1.0417 -0.5103 -2.6339
  109OSM    C3S11136   2.849   1.172   5.935 -0.3999 -0.2018 -0.0070
  109OSM    H3S11137   2.873   1.278   5.911  1.9389 -0.6085  0.2780
  109OSM     O311138   2.811   1.185   6.072  0.2860  0.0498  0.0452
  109OSM    HO311139   2.885   1.141   6.116  1.2560  0.8149 -0.7825
  109OSM    C4S11140   2.733   1.128   5.854 -0.0729  0.2123 -0.2340
  109OSM    H4S11141   2.728   1.187   5.761  0.1497 -0.0160 -0.3910
  109OSM    C5S11142   2.637   1.027   5.874 -0.9819  0.2133  0.7994
  109OSM    H5S11143   2.657   0.950   5.951  1.9423 -2.5712 -2.4171
  109OSM    C6S11144   2.516   0.985   5.792 -0.1310 -0.1510  0.3013
  109OSM    H6S11145   2.428   1.004   5.857 -0.6976 -1.8688  0.0842
  109OSM    H6T11146   2.509   0.877   5.768 -0.2179  0.5638 -3.5617
  109OSM    C7S11147   2.504   1.058   5.659  0.9133  0.3756 -0.3968
  109OSM    H7S11148   2.510   1.168   5.674 -1.8154  0.4815  0.3460
  109OSM    H7T11149   2.413   1.031   5.602 -1.6237  2.7763  2.1973
  109OSM    C8S11150   2.611   1.021   5.547  0.4619 -0.1440  0.2379
  109OSM    H8S11151   2.608   0.910   5.547 -0.3364 -0.2021  2.7304
  109OSM    H8T11152   2.706   1.052   5.596  0.9737 -0.5001 -0.5147
  109OSM    C9S11153   2.608   1.094   5.411 -0.2997  0.7639 -0.2140
  109OSM    H9S11154   2.697   1.055   5.356  1.5917 -1.7832  4.1236
  109OSM    H9T11155   2.628   1.199   5.440  0.6728  0.2159  1.1769
  109OSM   C10S11156   2.476   1.094   5.337 -0.6211 -0.2142  0.3849
  109OSM   H10S11157   2.400   1.161   5.382 -0.5551 -0.2146  0.4968
  109OSM   H10T11158   2.438   0.990   5.341 -2.1618  0.1955 -1.9068
  109OSM   C11S11159   2.495   1.117   5.184  0.2707  0.2797 -0.1544
  109OSM   H11S11160   2.571   1.045   5.149  0.4916 -0.0633  1.0127
  109OSM   H11T11161   2.537   1.220   5.181  1.5939 -0.2645 -1.9215
  109OSM   C12S11162   2.354   1.110   5.115  0.5960  0.1324 -1.1036
  109OSM   H12S11163   2.285   1.191   5.146 -1.0111 -1.0452 -1.4843
  109OSM   H12T11164   2.318   1.013   5.155  4.0435 -0.6643  0.4581
  109OSM   C13S11165   2.345   1.114   4.962  0.3606 -0.2712 -0.3136
  109OSM   H13S11166   2.389   1.023   4.917  0.9394  0.5445 -1.4519
  109OSM   H13T11167   2.402   1.198   4.916 -1.8502  1.4005 -0.1825
  109OSM   C14S11168   2.199   1.123   4.908  0.1838 -0.1568  0.0239
  109OSM   H14S11169   2.151   1.220   4.928 -2.8147 -1.0804 -1.9798
  109OSM   H14T11170   2.134   1.041   4.945  0.1029 -1.2283 -2.3028
  109OSM   C15S11171   2.208   1.110   4.758 -0.6199  0.8987  0.1709
  109OSM   H15S11172   2.245   1.006   4.750  1.1100  1.5859 -2.4006
  109OSM   H15T11173   2.283   1.174   4.706 -1.2036  2.3314  1.0154
  109OSM   C16S11174   2.069   1.114   4.692 -0.1345 -0.3475 -0.1279
  109OSM   H16S11175   2.001   1.093   4.778 -0.9105 -1.8129 -1.0584
  109OSM   H16T11176   2.056   1.033   4.618  1.9094 -1.3247  0.5240
  109OSM   C17S11177   2.041   1.252   4.642 -0.2145  0.4160  0.4368
  109OSM   H17S11178   2.135   1.309   4.625  0.0776 -0.5199 -1.2380
  109OSM   H17T11179   1.979   1.308   4.716 -1.6584 -0.3996 -0.1055
  109OSM   C18S11180   1.970   1.257   4.507 -0.1694  0.5073  0.3258
  109OSM   H18S11181   2.033   1.214   4.426 -1.0911 -0.7724  0.2552
  109OSM   H18T11182   1.949   1.356   4.463 -1.3229 -0.6731 -1.9430
  109OSM   H18U11183   1.883   1.189   4.503  0.5721 -0.4348 -2.8781
  109OSM    C1F11184   3.127   1.038   5.722  0.0053 -0.5313 -0.2118
  109OSM     OF11185   3.185   0.945   5.779  0.7550 -0.6645  0.3286
  109OSM    C2F11186   3.156   1.074   5.582 -1.0032  0.1337  0.4405
  109OSM    H2F11187   3.102   1.168   5.558  0.6128  0.4452 -2.3267
  109OSM    H2G11188   3.116   1.005   5.505  2.1065 -1.0158 -0.2887
  109OSM    C3F11189   3.310   1.098   5.552 -0.0239  0.2175 -0.3757
  109OSM    H3F11190   3.359   1.001   5.574 -0.1761 -0.3806 -2.4643
  109OSM    H3G11191   3.350   1.186   5.607 -1.7762  1.1843 -0.5870
  109OSM    C4F11192   3.353   1.119   5.400 -0.2943 -0.4182 -0.4883
  109OSM    H4F11193   3.456   1.156   5.383 -0.4957  0.5768  0.3586
  109OSM    H4G11194   3.286   1.201   5.369 -0.1821 -0.3895 -0.6519
  109OSM    C5F11195   3.328   0.998   5.309  0.0837 -0.3243  0.4792
  109OSM    H5F11196   3.226   0.955   5.316  0.1455 -0.8465 -1.3812
  109OSM    H5G11197   3.389   0.911   5.342 -0.8982 -0.6500  1.5268
  109OSM    C6F11198   3.359   1.035   5.160  0.6037  0.6332 -0.2771
  109OSM    H6F11199   3.467   1.037   5.135  0.2608  0.4370 -1.8713
  109OSM    H6G11200   3.330   1.142   5.152  0.4811  0.6205 -0.0201
  109OSM    C7F11201   3.273   0.957   5.058  0.2532 -0.1306 -0.8504
  109OSM    H7F11202   3.168   0.977   5.086  0.4691 -0.8203  0.5540
  109OSM    H7G11203   3.296   0.849   5.073 -2.4206 -1.1554 -3.3543
  109OSM    C8F11204   3.315   1.002   4.917 -0.1362  0.0858  0.8550
  109OSM    H8F11205   3.423   0.977   4.906 -0.5547 -1.0203 -1.1292
  109OSM    H8G11206   3.306   1.113   4.916  3.0488  0.4580  1.8198
  109OSM    C9F11207   3.237   0.924   4.815  0.3312  0.0322 -0.8184
  109OSM    H9F11208   3.239   0.814   4.816  2.0037  0.0085 -2.5952
  109OSM   C10F11209   3.184   0.976   4.710 -0.6946 -0.2728  0.0949
  109OSM   H10F11210   3.140   0.905   4.640 -1.0699  0.4232 -0.3891
  109OSM   C11F11211   3.202   1.117   4.655 -0.2936 -0.6337 -0.1177
  109OSM   H11F11212   3.199   1.200   4.729 -1.5167 -0.7705  0.0148
  109OSM   H11G11213   3.108   1.150   4.605  0.9051  3.1268 -0.1987
  109OSM   C12F11214   3.328   1.144   4.567  0.4514  0.4090  0.6351
  109OSM   H12F11215   3.420   1.135   4.627  0.7237  0.3750  0.2147
  109OSM   H12G11216   3.322   1.249   4.531  0.7604  1.7063  3.9812
  109OSM   C13F11217   3.323   1.060   4.434  0.5292  0.3378 -1.1306
  109OSM   H13F11218   3.232   1.074   4.371 -0.2787  0.0657 -0.0673
  109OSM   H13G11219   3.321   0.952   4.463  0.1894  1.0656  1.9660
  109OSM   C14F11220   3.450   1.082   4.356  0.2627 -0.2730  0.0223
  109OSM   H14F11221   3.541   1.060   4.415 -0.1580  1.0748  1.2540
  109OSM   H14G11222   3.446   1.190   4.329  2.3279  0.1359  1.1945
  109OSM   C15F11223   3.460   0.994   4.222 -0.2579  0.2468  0.1332
  109OSM   H15F11224   3.359   0.991   4.174  0.2089 -1.6729 -0.8257
  109OSM   H15G11225   3.486   0.891   4.253 -1.7968 -0.5176 -0.9673
  109OSM   C16F11226   3.576   1.042   4.134  0.2337  0.2821  0.2329
  109OSM   H16F11227   3.681   1.036   4.170  1.2739  1.7061 -2.3356
  109OSM   H16G11228   3.551   1.145   4.104  1.8149  0.9643  1.1221
  109OSM   C17F11229   3.583   0.964   4.002  0.1774 -0.6966 -0.2501
  109OSM   H17F11230   3.647   1.026   3.936  0.9022  0.5883  1.5837
  109OSM   H17G11231   3.478   0.957   3.964 -0.1046  0.2774  0.3174
  109OSM   C18F11232   3.638   0.821   4.014  0.2526 -0.6818 -0.2073
  109OSM   H18F11233   3.634   0.761   3.920 -1.4831  1.5644 -1.6721
  109OSM   H18G11234   3.587   0.771   4.099 -0.4042 -0.7869 -0.6588
  109OSM   H18H11235   3.744   0.818   4.047 -0.2742  1.9300  2.0082
  110OSM      N11236   5.437   4.364   6.529  0.7368 -0.5211 -0.4918
  110OSM    C1511237   5.331   4.293   6.442 -0.3202  1.0209  0.1447
  110OSM   H15A11238   5.361   4.313   6.340  3.0201 -0.6517  0.6524
  110OSM   H15B11239   5.232   4.330   6.466  0.0523  0.5535  2.6973
  110OSM   H15C11240   5.348   4.188   6.463 -0.2847  1.1253  0.6372
  110OSM    C1411241   5.428   4.511   6.505 -0.1207 -0.1281  0.7313
  110OSM   H14A11242   5.488   4.568   6.575 -0.3272 -0.0801  0.8695
  110OSM   H14B11243   5.323   4.534   6.511  0.0376  0.5382  0.9723
  110OSM   H14C11244   5.457   4.534   6.404 -1.4016 -2.7159 -0.3327
  110OSM    C1311245   5.407   4.336   6.673 -0.5425  0.5901 -0.1848
  110OSM   H13A11246   5.400   4.229   6.689 -0.4284  0.1820 -2.5638
  110OSM   H13B11247   5.310   4.377   6.698 -1.9482 -1.0544 -2.6005
  110OSM   H13C11248   5.482   4.382   6.735 -0.5028  1.4095 -0.8209
  110OSM    C1211249   5.576   4.315   6.497  0.5830 -0.1660 -0.3608
  110OSM   H12A11250   5.582   4.219   6.545  0.2017 -0.6240 -1.2077
  110OSM   H12B11251   5.635   4.381   6.559  0.9089 -0.3265 -0.4979
  110OSM    C1111252   5.612   4.316   6.352  0.3352 -0.2990 -0.1858
  110OSM   H11A11253   5.561   4.245   6.283  0.4579  1.4633 -2.1814
  110OSM   H11B11254   5.711   4.266   6.345 -0.2773 -1.7214  0.8578
  110OSM      P11255   5.728   4.528   6.248  0.4276 -0.0096 -0.2023
  110OSM    O1311256   5.679   4.649   6.174  0.4398  0.1056 -0.2124
  110OSM    O1411257   5.814   4.558   6.367 -0.0753 -0.6887 -0.4294
  110OSM    O1111258   5.820   4.437   6.159  0.4492 -0.3378 -0.9187
  110OSM    O1211259   5.601   4.445   6.288  0.3010  0.1514 -0.2492
  110OSM    C1S11260   5.781   4.368   6.045 -0.9211 -0.3587 -0.0814
  110OSM    H1S11261   5.672   4.346   6.041 -0.7501 -1.0587 -2.9237
  110OSM    H1T11262   5.836   4.271   6.046  0.8930  0.6094 -0.9784
  110OSM     NF11263   5.752   4.413   5.802 -0.1791  0.4449  0.3558
  110OSM    HNF11264   5.802   4.348   5.746  0.5394  0.7213  0.6626
  110OSM    C2S11265   5.829   4.454   5.920 -0.5241 -0.8425  0.3576
  110OSM    H2S11266   5.807   4.561   5.939  0.5543 -0.7241  1.0175
  110OSM    C3S11267   5.979   4.444   5.908 -0.2636  0.2269 -0.4951
  110OSM    H3S11268   5.999   4.339   5.880 -2.6922 -0.9908  1.8589
  110OSM     O311269   6.051   4.476   6.028 -0.2186 -0.1640 -0.3913
  110OSM    HO311270   5.985   4.474   6.097  0.4481  1.5280  0.3537
  110OSM    C4S11271   6.022   4.545   5.801 -0.7841 -0.2548  0.4072
  110OSM    H4S11272   6.019   4.653   5.821 -0.2485 -0.0418 -0.5927
  110OSM    C5S11273   6.070   4.513   5.681  0.0193 -0.1327  0.7616
  110OSM    H5S11274   6.078   4.405   5.660 -0.1623 -0.7354  3.4309
  110OSM    C6S11275   6.112   4.604   5.568 -0.2337  0.1332  0.1530
  110OSM    H6S11276   6.219   4.597   5.538 -0.1241 -1.3424  0.8418
  110OSM    H6T11277   6.104   4.712   5.596  3.3101  0.1987  1.4774
  110OSM    C7S11278   6.027   4.586   5.439  0.4085  0.0421 -0.1881
  110OSM    H7S11279   5.921   4.604   5.468  1.0814 -0.0682  2.6713
  110OSM    H7T11280   6.040   4.482   5.403 -0.7002 -0.9861  2.1683
  110OSM    C8S11281   6.064   4.675   5.320  0.0183  0.5554 -0.5600
  110OSM    H8S11282   6.038   4.781   5.339 -0.0811  0.4176  0.0990
  110OSM    H8T11283   5.990   4.644   5.244 -1.9612 -0.9694  1.8276
  110OSM    C9S11284   6.210   4.670   5.273  0.0734  0.3506  0.5578
  110OSM    H9S11285   6.230   4.563   5.252  2.2403  1.0778 -1.4992
  110OSM    H9T11286   6.272   4.704   5.359  1.5057 -0.2038 -0.2414
  110OSM   C10S11287   6.230   4.747   5.138 -0.3035 -0.4367 -0.5976
  110OSM   H10S11288   6.163   4.715   5.055 -1.0498  1.5145 -0.8227
  110OSM   H10T11289   6.334   4.737   5.100  0.4965  2.1716  0.6577
  110OSM   C11S11290   6.212   4.896   5.150 -0.4248 -0.6063  0.2381
  110OSM   H11S11291   6.271   4.936   5.236 -0.6967 -0.2193  0.2495
  110OSM   H11T11292   6.106   4.918   5.178 -0.7350 -1.3086 -0.3659
  110OSM   C12S11293   6.248   4.973   5.029 -0.0570  0.2029 -0.5442
  110OSM   H12S11294   6.179   4.941   4.948  2.5637 -1.3701 -2.2871
  110OSM   H12T11295   6.350   4.947   4.994  0.0077  0.2876 -0.4168
  110OSM   C13S11296   6.239   5.126   5.045 -0.6145  0.2046  0.9335
  110OSM   H13S11297   6.288   5.156   5.139  1.5473 -1.7449  0.5250
  110OSM   H13T11298   6.128   5.138   5.041 -0.8458 -1.7779  0.0557
  110OSM   C14S11299   6.316   5.187   4.920  0.0711  0.0515 -0.8711
  110OSM   H14S11300   6.414   5.137   4.905 -0.0380 -0.0475 -1.2622
  110OSM   H14T11301   6.336   5.292   4.950 -1.5798 -0.1096  1.0028
  110OSM   C15S11302   6.241   5.182   4.781 -0.5409 -0.1684 -0.4736
  110OSM   H15S11303   6.143   5.229   4.804 -0.5661 -0.5328  0.1761
  110OSM   H15T11304   6.248   5.076   4.750 -1.6438 -0.6950  0.9872
  110OSM   C16S11305   6.318   5.267   4.676 -0.0392 -0.3344 -0.4549
  110OSM   H16S11306   6.337   5.373   4.706 -2.0830 -0.4028  1.3485
  110OSM   H16T11307   6.261   5.262   4.581  1.1203 -2.1514 -1.0936
  110OSM   C17S11308   6.456   5.212   4.641  0.1191  0.0841 -0.0733
  110OSM   H17S11309   6.448   5.102   4.633 -3.0810  0.2090  0.2913
  110OSM   H17T11310   6.516   5.237   4.732 -0.4063 -2.5523  1.0805
  110OSM   C18S11311   6.506   5.270   4.512  0.1898 -0.4178 -0.0364
  110OSM   H18S11312   6.608   5.234   4.488  0.3500 -1.1214  1.5717
  110OSM   H18T11313   6.509   5.381   4.510  1.2118 -0.4128 -2.8096
  110OSM   H18U11314   6.429   5.238   4.438 -1.3165  0.6464  1.0318
  110OSM    C1F11315   5.626   4.453   5.784 -0.4024  0.6067 -0.3233
  110OSM     OF11316   5.575   4.506   5.881  0.2565  0.1469 -0.1407
  110OSM    C2F11317   5.545   4.436   5.656  0.1490  0.2755  0.3143
  110OSM    H2F11318   5.513   4.536   5.621  0.1613  0.0640 -0.2992
  110OSM    H2G11319   5.460   4.373   5.689  1.7465 -1.4785  1.2544
  110OSM    C3F11320   5.622   4.356   5.548 -0.3903 -0.8290 -0.3574
  110OSM    H3F11321   5.623   4.255   5.592  1.0108 -0.9655 -0.6562
  110OSM    H3G11322   5.728   4.386   5.534 -0.3390 -0.8910 -0.1031
  110OSM    C4F11323   5.546   4.357   5.419  0.5306 -0.9478  0.1954
  110OSM    H4F11324   5.526   4.461   5.386  0.7854 -1.0140 -0.1654
  110OSM    H4G11325   5.453   4.301   5.441  2.1880 -4.2227 -0.6100
  110OSM    C5F11326   5.619   4.280   5.306  0.3171 -0.5193 -0.2824
  110OSM    H5F11327   5.623   4.170   5.321 -1.9340 -0.5960  0.1464
  110OSM    H5G11328   5.721   4.324   5.302  0.5928 -1.0890  0.4266
  110OSM    C6F11329   5.544   4.296   5.168  0.1982 -0.2130  0.2394
  110OSM    H6F11330   5.436   4.277   5.185  0.0053 -0.3306 -1.0389
  110OSM    H6G11331   5.574   4.217   5.096 -3.6982 -1.0322 -0.7265
  110OSM    C7F11332   5.576   4.437   5.107 -0.2455 -0.5500  0.0169
  110OSM    H7F11333   5.686   4.457   5.109 -0.1918 -0.6513 -1.1447
  110OSM    H7G11334   5.519   4.515   5.161 -2.4759 -2.9622  1.3201
  110OSM    C8F11335   5.548   4.447   4.952 -0.9109  0.3433 -0.3960
  110OSM    H8F11336   5.619   4.372   4.912  0.2816  0.2756  1.7078
  110OSM    H8G11337   5.590   4.547   4.927 -0.1369  0.1316  0.0333
  110OSM    C9F11338   5.399   4.448   4.927  0.2806 -0.6524 -0.7423
  110OSM    H9F11339   5.333   4.464   5.013  1.0964 -1.9876  0.1782
  110OSM   C10F11340   5.354   4.436   4.807  0.7467 -0.3233  0.2624
  110OSM   H10F11341   5.246   4.430   4.788  0.4842  0.7461  1.2486
  110OSM   C11F11342   5.425   4.438   4.673  0.1753 -0.9139 -0.2403
  110OSM   H11F11343   5.405   4.346   4.615 -0.0521 -1.0324  0.0201
  110OSM   H11G11344   5.532   4.458   4.697 -0.2102  0.5889  0.3589
  110OSM   C12F11345   5.388   4.547   4.567  0.1688 -0.5919  0.3563
  110OSM   H12F11346   5.405   4.649   4.607  0.6772 -1.5465  2.7445
  110OSM   H12G11347   5.278   4.545   4.554  0.1806  1.6498 -0.4578
  110OSM   C13F11348   5.451   4.527   4.430  0.6078 -0.0082  0.0811
  110OSM   H13F11349   5.383   4.577   4.358 -0.2806  0.2862  1.0828
  110OSM   H13G11350   5.455   4.418   4.408 -1.7738 -0.3009  0.7745
  110OSM   C14F11351   5.585   4.588   4.410  0.4398  0.2034 -0.3555
  110OSM   H14F11352   5.666   4.531   4.460 -0.6296 -0.0431  1.1585
  110OSM   H14G11353   5.585   4.693   4.448 -0.2409 -0.3295  1.1824
  110OSM   C15F11354   5.618   4.607   4.256  0.3199 -0.8847  0.1727
  110OSM   H15F11355   5.524   4.642   4.209  0.0649  2.9837  2.9826
  110OSM   H15G11356   5.643   4.506   4.218  0.6194 -0.9851  0.6199
  110OSM   C16F11357   5.730   4.707   4.228  0.7246  0.0083 -0.2247
  110OSM   H16F11358   5.830   4.676   4.265  0.9366  0.5413 -0.3429
  110OSM   H16G11359   5.700   4.811   4.252 -0.8950  0.0543 -2.1646
  110OSM   C17F11360   5.750   4.710   4.071 -0.2165 -0.4204  0.4727
  110OSM   H17F11361   5.652   4.738   4.025 -0.8467 -0.1369  1.9185
  110OSM   H17G11362   5.770   4.609   4.031 -0.6713  0.0517 -1.0212
  110OSM   C18F11363   5.872   4.797   4.034  0.2919  0.3017 -0.0656
  110OSM   H18F11364   5.835   4.891   3.988  1.3784  0.7062 -0.1570
  110OSM   H18G11365   5.938   4.750   3.958  0.2244  0.4231 -0.1996
  110OSM   H18H11366   5.937   4.810   4.124 -1.6822 -2.6567  1.9551
  111OSM      N11367   0.672   2.989   6.365 -0.3671 -0.0368  0.1901
  111OSM    C1511368   0.727   3.096   6.451  0.7445 -0.5511 -0.3973
  111OSM   H15A11369   0.755   3.183   6.394  0.0042 -0.0061  0.0457
  111OSM   H15B11370   0.815   3.063   6.504  0.6027  0.4149  0.4654
  111OSM   H15C11371   0.652   3.136   6.518  0.5031 -2.2213  0.3842
  111OSM    C1411372   0.778   2.940   6.269  0.3507  0.6422  0.0908
  111OSM   H14A11373   0.744   2.846   6.227 -0.2691  1.2274 -0.7381
  111OSM   H14B11374   0.872   2.917   6.317  0.7479 -0.3584 -1.1035
  111OSM   H14C11375   0.800   3.000   6.182 -0.8264 -3.7479 -3.6746
  111OSM    C1311376   0.628   2.876   6.458  0.0736  0.3664 -0.0304
  111OSM   H13A11377   0.701   2.801   6.487  0.4303  0.7991  0.1909
  111OSM   H13B11378   0.550   2.809   6.424  1.7152 -2.2691  1.0566
  111OSM   H13C11379   0.589   2.928   6.545 -0.5703  0.8163 -0.5792
  111OSM    C1211380   0.558   3.045   6.287  0.9987 -0.1363 -0.0997
  111OSM   H12A11381   0.484   3.065   6.363  0.3007 -0.4723 -0.6828
  111OSM   H12B11382   0.522   2.968   6.221  0.4399 -0.4148  0.5203
  111OSM    C1111383   0.576   3.183   6.213  0.2655 -0.7125 -0.4948
  111OSM   H11A11384   0.577   3.264   6.290 -1.8483 -0.8183 -0.3080
  111OSM   H11B11385   0.486   3.196   6.149  0.7290 -0.3188 -1.0809
  111OSM      P11386   0.797   3.289   6.128  0.2395  0.4205  0.0086
  111OSM    O1311387   0.819   3.335   6.264 -0.5484 -0.2268  0.2809
  111OSM    O1411388   0.907   3.231   6.045 -0.3521 -0.1112  0.0911
  111OSM    O1111389   0.717   3.401   6.044  0.0699  0.6609  0.3320
  111OSM    O1211390   0.687   3.182   6.122  0.4756 -0.2910  0.3698
  111OSM    C1S11391   0.790   3.524   6.029 -0.2270 -0.1186  0.5657
  111OSM    H1S11392   0.839   3.561   6.122 -0.8950  0.2663  0.7710
  111OSM    H1T11393   0.708   3.595   6.007  1.8343  2.6127  1.1216
  111OSM     NF11394   0.959   3.654   5.911 -0.5819  0.0371  0.2631
  111OSM    HNF11395   0.939   3.715   5.835  1.3616 -0.8403 -1.0217
  111OSM    C2S11396   0.888   3.523   5.906  0.1128 -0.3453 -0.2613
  111OSM    H2S11397   0.971   3.450   5.920  0.5843  0.6121  2.5467
  111OSM    C3S11398   0.809   3.497   5.773  0.8355  0.4935 -0.0633
  111OSM    H3S11399   0.730   3.576   5.770  1.1547  0.8172 -0.0051
  111OSM     O311400   0.736   3.373   5.770 -0.1481  0.3840 -0.0429
  111OSM    HO311401   0.728   3.351   5.864 -2.9073 -0.1884 -0.3285
  111OSM    C4S11402   0.889   3.495   5.650 -0.6667  0.9009  0.1096
  111OSM    H4S11403   0.960   3.410   5.654 -0.0672  1.2768 -1.5813
  111OSM    C5S11404   0.893   3.592   5.559 -0.1221 -0.5875  0.6953
  111OSM    H5S11405   0.822   3.674   5.576  1.1613  1.0726 -1.4127
  111OSM    C6S11406   0.986   3.614   5.446  0.5674 -0.4709 -0.4456
  111OSM    H6S11407   1.049   3.700   5.476  0.6874 -0.4411 -0.7820
  111OSM    H6T11408   0.929   3.638   5.354 -3.2927 -0.2498  1.7728
  111OSM    C7S11409   1.080   3.504   5.424 -0.3604 -0.1205  1.0636
  111OSM    H7S11410   1.034   3.408   5.392  0.7971 -0.7663  1.2559
  111OSM    H7T11411   1.145   3.493   5.514  0.7743 -0.2608  0.2449
  111OSM    C8S11412   1.176   3.529   5.311 -0.2598 -0.5699 -0.9628
  111OSM    H8S11413   1.238   3.438   5.296 -0.4169 -0.9304  0.4532
  111OSM    H8T11414   1.246   3.611   5.338 -1.0042  0.1449 -1.1469
  111OSM    C9S11415   1.104   3.551   5.173 -0.2444  0.3147 -0.5178
  111OSM    H9S11416   1.051   3.649   5.171  0.7148  0.9118  1.5409
  111OSM    H9T11417   1.012   3.489   5.174  0.8303 -1.3270 -0.2900
  111OSM   C10S11418   1.195   3.515   5.052 -0.3309  0.1225 -0.5334
  111OSM   H10S11419   1.223   3.411   5.076 -2.7351 -0.4090  0.2041
  111OSM   H10T11420   1.285   3.580   5.051  0.1305 -0.4482  1.3083
  111OSM   C11S11421   1.126   3.535   4.917 -0.6039 -0.7133  1.0002
  111OSM   H11S11422   1.094   3.641   4.922  1.9822  0.1838  0.3632
  111OSM   H11T11423   1.031   3.477   4.917 -1.4403  0.6309  0.3344
  111OSM   C12S11424   1.212   3.519   4.785 -0.5507  0.1039 -0.1730
  111OSM   H12S11425   1.139   3.501   4.703 -0.4506 -1.9441  0.1442
  111OSM   H12T11426   1.286   3.437   4.781  0.8201  1.3414 -1.0275
  111OSM   C13S11427   1.288   3.648   4.753 -0.1310 -0.3632 -0.2851
  111OSM   H13S11428   1.369   3.647   4.829 -0.6322  0.0709  0.2594
  111OSM   H13T11429   1.217   3.732   4.763 -2.2095 -2.1870  1.3385
  111OSM   C14S11430   1.350   3.651   4.618  0.1189  0.2739  0.6044
  111OSM   H14S11431   1.272   3.626   4.544  0.1635  1.9264 -0.0503
  111OSM   H14T11432   1.408   3.558   4.604  1.0886  0.8170  0.8381
  111OSM   C15S11433   1.427   3.781   4.592 -0.3240  0.0075  0.1256
  111OSM   H15S11434   1.500   3.805   4.672 -0.8034  1.7402  0.0847
  111OSM   H15T11435   1.350   3.861   4.588 -0.4337 -0.0058  1.4869
  111OSM   C16S11436   1.510   3.784   4.457 -0.1361 -0.7458  1.0600
  111OSM   H16S11437   1.585   3.703   4.473  1.3039  0.6138  1.4022
  111OSM   H16T11438   1.556   3.882   4.434 -0.9933 -0.6119 -0.1798
  111OSM   C17S11439   1.423   3.748   4.341  0.0668  0.1656 -0.0072
  111OSM   H17S11440   1.338   3.817   4.327  0.0641  0.4962  1.5389
  111OSM   H17T11441   1.381   3.649   4.367 -0.2330  0.8599  2.3070
  111OSM   C18S11442   1.500   3.743   4.212  0.1305  0.2770  0.0974
  111OSM   H18S11443   1.434   3.710   4.130 -0.0710 -0.8874  0.7091
  111OSM   H18T11444   1.583   3.670   4.224 -0.4107 -0.7612 -2.1367
  111OSM   H18U11445   1.543   3.839   4.175 -0.2716  0.7201  0.7553
  111OSM    C1F11446   1.055   3.677   5.998 -0.0734  0.4188  0.0932
  111OSM     OF11447   1.100   3.585   6.065 -0.2023 -0.3905 -0.3617
  111OSM    C2F11448   1.113   3.816   6.004 -0.2617  1.0961 -0.0047
  111OSM    H2F11449   1.087   3.861   6.102  1.8652  0.1461  1.0709
  111OSM    H2G11450   1.077   3.866   5.912  1.0209  2.3000  0.1115
  111OSM    C3F11451   1.270   3.809   6.004 -0.9291 -0.6995 -0.3003
  111OSM    H3F11452   1.302   3.754   6.095 -1.8908 -1.2471 -0.2795
  111OSM    H3G11453   1.304   3.914   6.005 -0.6747 -0.7738  0.9758
  111OSM    C4F11454   1.325   3.742   5.876 -0.6769 -0.0714  0.8233
  111OSM    H4F11455   1.276   3.797   5.793  1.3445 -2.1899 -1.9182
  111OSM    H4G11456   1.297   3.636   5.860  0.7982 -0.5955  1.5580
  111OSM    C5F11457   1.479   3.767   5.860 -1.5031  0.4654 -0.0817
  111OSM    H5F11458   1.513   3.689   5.789 -1.6101  1.4865 -1.2899
  111OSM    H5G11459   1.530   3.740   5.955  3.1148  0.7181 -2.2154
  111OSM    C6F11460   1.523   3.897   5.795  0.2469 -0.2901  0.2770
  111OSM    H6F11461   1.557   3.967   5.874  0.8665 -0.3872  0.1065
  111OSM    H6G11462   1.436   3.944   5.744 -0.5049 -1.5162  0.3778
  111OSM    C7F11463   1.636   3.883   5.692  0.6559  0.2129  0.1888
  111OSM    H7F11464   1.608   3.811   5.613 -3.1346  1.3202  0.3009
  111OSM    H7G11465   1.732   3.856   5.741  0.4004  0.4621  0.8491
  111OSM    C8F11466   1.661   4.020   5.625  0.2313  1.3826 -0.1321
  111OSM    H8F11467   1.566   4.067   5.593 -0.3295 -0.3724 -1.2244
  111OSM    H8G11468   1.698   3.993   5.524  1.1795 -1.4269  0.8639
  111OSM    C9F11469   1.746   4.109   5.706 -0.5775  0.2014 -0.7804
  111OSM    H9F11470   1.722   4.152   5.804  1.2531 -0.4970  0.0278
  111OSM   C10F11471   1.861   4.157   5.668 -0.3657  0.3909  0.1697
  111OSM   H10F11472   1.917   4.221   5.737 -0.0506 -0.1057  0.3739
  111OSM   C11F11473   1.940   4.110   5.544 -0.4921  0.2822  0.2899
  111OSM   H11F11474   1.879   4.131   5.454 -0.9620  0.3623  0.6277
  111OSM   H11G11475   1.949   3.999   5.542  1.5310  0.3838  0.7515
  111OSM   C12F11476   2.075   4.179   5.545 -0.7607  0.0599 -0.3273
  111OSM   H12F11477   2.140   4.141   5.626 -1.4480  1.9060  1.1799
  111OSM   H12G11478   2.078   4.289   5.560 -1.9795  0.3822 -2.0831
  111OSM   C13F11479   2.152   4.158   5.413 -0.2696  0.1322  0.0500
  111OSM   H13F11480   2.154   4.050   5.387  0.7980  0.4819 -1.4211
  111OSM   H13G11481   2.256   4.190   5.436 -0.6380  0.4439  1.3510
  111OSM   C14F11482   2.114   4.248   5.296 -0.3165 -0.3105 -0.1445
  111OSM   H14F11483   2.174   4.341   5.305  1.7075 -1.6752  0.9999
  111OSM   H14G11484   2.010   4.283   5.315 -0.0367  0.3971  0.1276
  111OSM   C15F11485   2.134   4.182   5.157 -0.4033 -0.7441  1.2859
  111OSM   H15F11486   2.051   4.110   5.141 -1.0636  0.5150 -1.5445
  111OSM   H15G11487   2.228   4.124   5.148 -0.7410 -0.9470 -2.8837
  111OSM   C16F11488   2.136   4.285   5.039 -0.4994  0.4931  0.0649
  111OSM   H16F11489   2.036   4.334   5.034 -0.8781 -0.3853 -1.4765
  111OSM   H16G11490   2.141   4.217   4.951 -2.4195 -0.3058  0.5053
  111OSM   C17F11491   2.254   4.378   5.058 -0.4238  0.3771 -0.8416
  111OSM   H17F11492   2.221   4.450   5.135 -1.4902  0.7300 -1.5981
  111OSM   H17G11493   2.259   4.440   4.966 -1.3555 -0.3799 -1.4227
  111OSM   C18F11494   2.388   4.303   5.105  0.6635 -0.2435  0.1764
  111OSM   H18F11495   2.379   4.257   5.206  1.8935  0.3979  0.6073
  111OSM   H18G11496   2.464   4.383   5.117  0.2019  0.2574 -0.2157
  111OSM   H18H11497   2.409   4.224   5.030  1.5041 -0.6479  0.8168
  112OSM      N11498   4.879   0.109   7.005  0.1948 -0.2439  0.3500
  112OSM    C1511499   4.785   0.140   7.114  0.3855 -0.4784 -0.2885
  112OSM   H15A11500   4.826   0.123   7.212 -0.6299  1.7049  0.5728
  112OSM   H15B11501   4.693   0.084   7.105 -1.4512  2.4867 -1.3598
  112OSM   H15C11502   4.761   0.245   7.116  0.4760 -0.3701  3.9512
  112OSM    C1411503   4.816   0.144   6.872  0.0907  0.5730  0.0103
  112OSM   H14A11504   4.886   0.167   6.793 -0.1445  1.4469  0.0452
  112OSM   H14B11505   4.749   0.229   6.877 -0.7402  0.0163 -1.0772
  112OSM   H14C11506   4.752   0.061   6.843  1.7899 -1.1560  1.0188
  112OSM    C1311507   4.992   0.196   7.028  0.0135  0.1852 -0.0456
  112OSM   H13A11508   4.961   0.290   7.072 -1.6954 -1.4312  2.4586
  112OSM   H13B11509   5.045   0.207   6.934 -1.8957  1.4219 -1.0403
  112OSM   H13C11510   5.056   0.157   7.106  0.1490  1.7972  0.6897
  112OSM    C1211511   4.915  -0.041   7.013 -1.1235 -0.4639  0.0181
  112OSM   H12A11512   4.927  -0.073   7.115 -0.0317 -2.2099 -0.6103
  112OSM   H12B11513   5.008  -0.067   6.966  0.2751  0.9253  1.9098
  112OSM    C1111514   4.813  -0.134   6.947  0.7583  0.3877  0.2676
  112OSM   H11A11515   4.717  -0.097   6.987 -0.5290 -2.4880  0.0957
  112OSM   H11B11516   4.831  -0.240   6.977  2.6612  0.1798 -1.3306
  112OSM      P11517   4.924  -0.181   6.723 -0.3498  0.4586  0.1563
  112OSM    O1311518   5.030  -0.083   6.714 -0.5412  0.0368 -0.3505
  112OSM    O1411519   4.964  -0.312   6.777 -0.3742  0.2126 -0.5452
  112OSM    O1111520   4.872  -0.209   6.579  0.8520  0.8250 -0.6124
  112OSM    O1211521   4.806  -0.120   6.800  0.2776  0.6582 -0.4167
  112OSM    C1S11522   4.789  -0.120   6.508  0.1638 -0.4877 -0.2008
  112OSM    H1S11523   4.815  -0.013   6.523 -1.7822 -0.1387  1.0061
  112OSM    H1T11524   4.685  -0.117   6.546  0.3989  2.4599  0.4459
  112OSM     NF11525   4.753  -0.034   6.275  0.2360 -0.1313  0.5590
  112OSM    HNF11526   4.658  -0.032   6.244  0.5063  1.0026 -0.2695
  112OSM    C2S11527   4.792  -0.150   6.354 -0.7538  0.8488  0.1565
  112OSM    H2S11528   4.896  -0.184   6.330 -1.0436 -1.6740  2.0113
  112OSM    C3S11529   4.699  -0.270   6.338  0.2930 -0.5254  0.1175
  112OSM    H3S11530   4.599  -0.226   6.355  1.6436  3.7625 -1.8094
  112OSM     O311531   4.716  -0.372   6.438  0.2578 -0.0671 -0.2277
  112OSM    HO311532   4.786  -0.340   6.495  1.5926 -1.3388 -1.0810
  112OSM    C4S11533   4.703  -0.336   6.207  0.3766 -0.6979 -0.1877
  112OSM    H4S11534   4.806  -0.364   6.178  0.0293 -1.4242 -0.7614
  112OSM    C5S11535   4.599  -0.387   6.136 -0.4930  0.4533  0.4602
  112OSM    H5S11536   4.496  -0.387   6.175 -0.8317  1.3854 -0.3775
  112OSM    C6S11537   4.640  -0.473   6.011  0.3398 -0.5950 -0.8366
  112OSM    H6S11538   4.632  -0.578   6.048 -0.6040  0.9174  3.7788
  112OSM    H6T11539   4.747  -0.458   5.987  0.8118  0.9505  1.8425
  112OSM    C7S11540   4.549  -0.441   5.894 -0.2346  0.7076 -0.5965
  112OSM    H7S11541   4.539  -0.335   5.863  0.3107  1.3864  1.3898
  112OSM    H7T11542   4.451  -0.493   5.909  2.3603 -4.0418  2.4536
  112OSM    C8S11543   4.612  -0.505   5.762 -0.0151 -0.0559 -0.4673
  112OSM    H8S11544   4.622  -0.614   5.778 -2.0789 -0.2957 -0.5305
  112OSM    H8T11545   4.716  -0.467   5.750  0.6579 -2.3905 -2.9602
  112OSM    C9S11546   4.533  -0.466   5.633 -0.1528 -0.4289 -0.6372
  112OSM    H9S11547   4.524  -0.355   5.633  0.3062 -0.3852 -1.1935
  112OSM    H9T11548   4.430  -0.508   5.638 -0.4528  0.3940  2.4410
  112OSM   C10S11549   4.602  -0.526   5.511  0.2665 -0.2842 -0.4851
  112OSM   H10S11550   4.557  -0.626   5.497 -2.4798  0.6324  0.9970
  112OSM   H10T11551   4.710  -0.526   5.536 -0.3764  1.1005  2.9278
  112OSM   C11S11552   4.572  -0.437   5.384  0.2400  0.4295  0.0756
  112OSM   H11S11553   4.632  -0.344   5.387  2.9045 -1.1513 -0.7589
  112OSM   H11T11554   4.466  -0.408   5.393 -0.1598 -0.5606 -1.0917
  112OSM   C12S11555   4.583  -0.503   5.245 -0.3901 -0.0590 -1.1414
  112OSM   H12S11556   4.516  -0.591   5.234  1.5640 -1.3833 -3.3179
  112OSM   H12T11557   4.684  -0.549   5.236  0.0009  1.0287 -2.5830
  112OSM   C13S11558   4.559  -0.399   5.137  0.2290 -0.2877 -0.7810
  112OSM   H13S11559   4.623  -0.311   5.158 -1.1236  0.4162  0.5888
  112OSM   H13T11560   4.454  -0.362   5.137  1.7622  4.7436 -0.5373
  112OSM   C14S11561   4.593  -0.440   4.992  0.3859 -0.0868 -0.0135
  112OSM   H14S11562   4.509  -0.501   4.952  1.3272 -2.1379  0.9315
  112OSM   H14T11563   4.689  -0.496   4.992 -0.6333 -1.9541  1.1973
  112OSM   C15S11564   4.602  -0.314   4.906  0.2425 -0.0195  0.3353
  112OSM   H15S11565   4.681  -0.250   4.951  0.5843  0.4185 -0.8601
  112OSM   H15T11566   4.504  -0.260   4.914  0.2967 -0.0409  1.3605
  112OSM   C16S11567   4.641  -0.331   4.759 -0.6129 -0.9030 -0.3056
  112OSM   H16S11568   4.663  -0.224   4.736  2.6529 -1.3469  0.2335
  112OSM   H16T11569   4.552  -0.363   4.702 -0.7288 -2.2053  0.5635
  112OSM   C17S11570   4.761  -0.424   4.729  0.1619 -1.0927 -0.3886
  112OSM   H17S11571   4.740  -0.533   4.738  0.9178 -1.0576  2.7989
  112OSM   H17T11572   4.854  -0.410   4.787  1.1464 -0.9555 -1.9346
  112OSM   C18S11573   4.819  -0.392   4.594 -0.3200  0.6381 -1.0089
  112OSM   H18S11574   4.886  -0.306   4.615 -2.1753  2.1443 -0.9087
  112OSM   H18T11575   4.736  -0.354   4.530 -0.3359  1.8264 -0.3258
  112OSM   H18U11576   4.878  -0.475   4.550  0.9654  1.4612 -0.8889
  112OSM    C1F11577   4.831   0.075   6.252 -0.4378  0.1946 -0.5560
  112OSM     OF11578   4.950   0.080   6.296 -0.3174 -0.9088  0.1221
  112OSM    C2F11579   4.773   0.183   6.164 -1.0806 -0.9048  0.2626
  112OSM    H2F11580   4.726   0.252   6.237 -2.7055 -4.2863  2.6717
  112OSM    H2G11581   4.705   0.131   6.092 -1.8051  3.9638 -3.0300
  112OSM    C3F11582   4.887   0.255   6.089 -0.4567  0.8213 -0.0121
  112OSM    H3F11583   4.936   0.182   6.021  0.1696 -0.9582  2.2133
  112OSM    H3G11584   4.954   0.288   6.171 -0.3170 -0.3563  0.3637
  112OSM    C4F11585   4.845   0.384   6.019  0.5163  0.1934  0.0305
  112OSM    H4F11586   4.934   0.448   6.000 -0.0252  1.1580  0.6506
  112OSM    H4G11587   4.787   0.440   6.096  2.1581 -1.4665  2.6413
  112OSM    C5F11588   4.760   0.360   5.898  0.2671  0.3643  0.6218
  112OSM    H5F11589   4.654   0.341   5.926 -0.5359 -0.1174 -2.3828
  112OSM    H5G11590   4.804   0.272   5.847 -0.3451  1.1062 -1.2928
  112OSM    C6F11591   4.765   0.483   5.796  0.2331  0.2899 -0.0493
  112OSM    H6F11592   4.705   0.449   5.709 -0.0943 -0.9624  0.6337
  112OSM    H6G11593   4.871   0.497   5.765 -0.7530  0.9782 -3.5341
  112OSM    C7F11594   4.695   0.602   5.859  0.4258  0.1737 -0.0207
  112OSM    H7F11595   4.737   0.637   5.955 -0.2451  0.2485  0.2446
  112OSM    H7G11596   4.594   0.560   5.880 -0.6439  1.6313 -1.9426
  112OSM    C8F11597   4.674   0.733   5.767 -0.5549 -0.9645 -1.1171
  112OSM    H8F11598   4.767   0.792   5.749 -0.6833 -0.3646  0.1290
  112OSM    H8G11599   4.612   0.790   5.840  0.7216 -1.2319  0.2186
  112OSM    C9F11600   4.596   0.697   5.641  0.1255  0.0166 -0.1225
  112OSM    H9F11601   4.489   0.679   5.662  0.6289 -2.8483  0.3046
  112OSM   C10F11602   4.639   0.691   5.513 -0.3209 -0.3414 -0.3100
  112OSM   H10F11603   4.563   0.673   5.436  0.5665 -0.6170 -1.1496
  112OSM   C11F11604   4.781   0.712   5.458  0.3046 -0.2611  0.2700
  112OSM   H11F11605   4.849   0.771   5.523 -0.0309  0.0343  0.3603
  112OSM   H11G11606   4.766   0.772   5.365  0.3193  0.2862  0.6134
  112OSM   C12F11607   4.852   0.586   5.415  0.0959  0.2377  0.0024
  112OSM   H12F11608   4.877   0.518   5.499  1.7047  0.9561  0.1359
  112OSM   H12G11609   4.944   0.622   5.365  0.4841 -1.9086 -0.9339
  112OSM   C13F11610   4.777   0.496   5.314  0.1550  0.4915 -1.1227
  112OSM   H13F11611   4.682   0.471   5.365  0.5318  2.5547  0.7892
  112OSM   H13G11612   4.842   0.407   5.300  1.6625  1.6923 -2.0800
  112OSM   C14F11613   4.752   0.562   5.176  0.0456 -0.4360  0.1022
  112OSM   H14F11614   4.844   0.622   5.160 -0.4921  0.6472  0.8726
  112OSM   H14G11615   4.660   0.624   5.178 -0.8071 -1.6370 -0.6589
  112OSM   C15F11616   4.736   0.466   5.059 -0.2168  0.1445  0.3351
  112OSM   H15F11617   4.667   0.384   5.089 -0.6776  0.9040  1.3743
  112OSM   H15G11618   4.833   0.412   5.046 -0.1081  0.2433  0.7224
  112OSM   C16F11619   4.691   0.525   4.926 -0.2982 -0.4453 -0.0318
  112OSM   H16F11620   4.755   0.608   4.890 -0.2694 -0.9516 -1.1970
  112OSM   H16G11621   4.584   0.549   4.945 -0.8924 -1.9997 -1.1956
  112OSM   C17F11622   4.699   0.417   4.813  0.1242  0.7931 -0.8035
  112OSM   H17F11623   4.617   0.342   4.818 -0.8268  1.8587  0.3010
  112OSM   H17G11624   4.790   0.353   4.820  1.1909  2.2688 -0.5143
  112OSM   C18F11625   4.706   0.484   4.676 -0.4296 -0.1266  0.3219
  112OSM   H18F11626   4.666   0.416   4.598 -0.4466  1.2934 -0.9503
  112OSM   H18G11627   4.812   0.508   4.654 -0.4607 -0.4280 -0.1733
  112OSM   H18H11628   4.635   0.569   4.666  1.0275  1.1064  0.0831
  113OSM      N11629   2.083   1.595   6.617 -0.0562  0.3718 -0.2853
  113OSM    C1511630   2.024   1.482   6.539  0.6795 -0.0505  0.4491
  113OSM   H15A11631   1.997   1.509   6.438  1.2232  0.5212  0.4555
  113OSM   H15B11632   1.933   1.446   6.586  0.1694  0.6714  0.0174
  113OSM   H15C11633   2.101   1.407   6.530  0.5313  0.0479 -2.4212
  113OSM    C1411634   2.116   1.543   6.755 -0.0389 -0.0552  0.4384
  113OSM   H14A11635   2.137   1.626   6.821 -2.0489 -0.0726  1.1611
  113OSM   H14B11636   2.195   1.470   6.758  0.9691  0.8952 -1.2532
  113OSM   H14C11637   2.037   1.491   6.807  0.7401 -0.3700  1.3081
  113OSM    C1311638   2.189   1.657   6.535  0.4350  0.2514 -0.4646
  113OSM   H13A11639   2.268   1.588   6.511  0.3464 -0.5091  1.3050
  113OSM   H13B11640   2.227   1.743   6.589 -1.1870 -1.2181  3.3390
  113OSM   H13C11641   2.148   1.697   6.443 -2.5782 -2.0070 -0.2473
  113OSM    C1211642   1.970   1.694   6.645 -0.3375 -0.4122  0.2389
  113OSM   H12A11643   1.896   1.637   6.698 -0.6777  0.2104  0.4478
  113OSM   H12B11644   1.926   1.721   6.550  0.7295  3.0733  0.5893
  113OSM    C1111645   1.997   1.824   6.723 -0.3801  0.2620 -0.3144
  113OSM   H11A11646   2.044   1.811   6.822 -1.6735 -1.7164  0.1022
  113OSM   H11B11647   1.904   1.880   6.746 -0.9297 -0.1544 -1.4181
  113OSM      P11648   2.045   2.020   6.556 -0.0118 -0.3756 -0.5472
  113OSM    O1311649   1.983   2.122   6.644 -0.1654 -0.5225  0.2089
  113OSM    O1411650   2.159   2.065   6.473  0.1206  0.0388 -0.8538
  113OSM    O1111651   1.927   1.954   6.464 -0.0184 -0.2649 -0.3344
  113OSM    O1211652   2.089   1.903   6.649 -0.1113  0.1629 -0.2656
  113OSM    C1S11653   1.888   2.027   6.343 -0.0150  0.5168  0.0743
  113OSM    H1S11654   1.916   2.135   6.345  2.3998 -0.0314 -0.5880
  113OSM    H1T11655   1.779   2.010   6.336  0.1837 -1.0617  0.4671
  113OSM     NF11656   1.857   2.025   6.105 -0.6153 -0.3664  0.2822
  113OSM    HNF11657   1.780   1.975   6.066 -0.8417  1.3241 -1.5500
  113OSM    C2S11658   1.942   1.964   6.208 -0.2228  0.3435  0.4408
  113OSM    H2S11659   2.047   2.000   6.202 -0.7918  2.0108 -0.1880
  113OSM    C3S11660   1.940   1.812   6.196 -0.2236  0.1680 -0.5548
  113OSM    H3S11661   1.832   1.795   6.178 -0.6064 -0.3449  1.8890
  113OSM     O311662   1.950   1.750   6.321 -0.4232 -0.2001 -0.0764
  113OSM    HO311663   1.950   1.826   6.379 -0.7798  0.1618 -0.5525
  113OSM    C4S11664   2.008   1.750   6.071 -0.7529 -0.0974 -0.1883
  113OSM    H4S11665   2.118   1.757   6.072 -0.5507 -1.6769  3.5403
  113OSM    C5S11666   1.946   1.688   5.970 -0.5772 -0.5577 -0.9790
  113OSM    H5S11667   1.837   1.676   5.967 -0.5800 -0.4780 -1.1656
  113OSM    C6S11668   2.029   1.637   5.850  0.2883  0.6158 -0.6559
  113OSM    H6S11669   2.044   1.528   5.868 -1.7577  0.6065  1.4394
  113OSM    H6T11670   2.128   1.688   5.856  0.3454  0.3747  0.7190
  113OSM    C7S11671   1.952   1.663   5.717 -1.2576  0.1104  0.3920
  113OSM    H7S11672   1.941   1.774   5.726  1.1514  0.3246  1.5646
  113OSM    H7T11673   1.858   1.604   5.716 -0.5802 -0.9965 -0.6981
  113OSM    C8S11674   2.028   1.643   5.585 -0.2582  0.8658  0.2205
  113OSM    H8S11675   2.046   1.534   5.569  0.8228  1.1359 -0.5034
  113OSM    H8T11676   2.126   1.693   5.597 -0.2959  1.2702 -1.0736
  113OSM    C9S11677   1.958   1.704   5.467  0.2238  0.4845  0.6438
  113OSM    H9S11678   1.944   1.812   5.490 -0.6599  0.1416  1.8596
  113OSM    H9T11679   1.854   1.664   5.463  0.5247 -0.1702 -0.9361
  113OSM   C10S11680   2.027   1.693   5.331 -0.2543  0.0633 -0.2230
  113OSM   H10S11681   2.044   1.583   5.326 -0.7648 -0.1277  1.6017
  113OSM   H10T11682   2.127   1.742   5.329  0.0827 -0.5921 -2.6569
  113OSM   C11S11683   1.940   1.742   5.215  0.1333 -0.2440  0.0809
  113OSM   H11S11684   1.903   1.847   5.225  1.3875  0.3406 -1.1793
  113OSM   H11T11685   1.849   1.679   5.217 -0.4035  0.5165  2.0807
  113OSM   C12S11686   2.005   1.708   5.083 -0.2907 -0.0993  0.7557
  113OSM   H12S11687   2.038   1.602   5.095 -0.5959 -0.7453 -2.9239
  113OSM   H12T11688   2.093   1.775   5.068 -0.9132  0.4498 -0.7143
  113OSM   C13S11689   1.903   1.722   4.966  0.5549  0.1559 -0.4833
  113OSM   H13S11690   1.859   1.823   4.955  1.0435  0.1936 -2.4154
  113OSM   H13T11691   1.821   1.647   4.965  0.2481  0.4841 -0.0409
  113OSM   C14S11692   1.980   1.695   4.837 -0.3627 -1.0798  0.5499
  113OSM   H14S11693   2.024   1.594   4.852  1.6974 -0.5598 -1.4135
  113OSM   H14T11694   2.056   1.773   4.816 -1.6273 -0.1244 -0.6696
  113OSM   C15S11695   1.888   1.689   4.714  0.5859  0.1591 -0.7029
  113OSM   H15S11696   1.838   1.787   4.694 -0.2627 -0.6065 -2.5925
  113OSM   H15T11697   1.800   1.628   4.743  0.8722  0.2473  0.3979
  113OSM   C16S11698   1.955   1.648   4.589 -0.1969  0.2292 -0.1647
  113OSM   H16S11699   2.004   1.548   4.587  0.7338  0.6710 -1.7250
  113OSM   H16T11700   2.035   1.724   4.577 -2.2205  2.3536 -0.9477
  113OSM   C17S11701   1.861   1.660   4.467  0.4744  0.2454 -0.1041
  113OSM   H17S11702   1.806   1.756   4.477  0.5544  0.3683 -0.8021
  113OSM   H17T11703   1.784   1.580   4.465  0.7969 -0.0580 -0.5029
  113OSM   C18S11704   1.942   1.651   4.337 -0.0369  0.1899  0.1991
  113OSM   H18S11705   2.013   1.566   4.337 -0.9384 -0.5897 -0.6783
  113OSM   H18T11706   1.992   1.745   4.304  3.1410 -1.0499  1.0771
  113OSM   H18U11707   1.867   1.624   4.260  1.3988 -2.6335 -0.3179
  113OSM    C1F11708   1.874   2.155   6.061 -0.7907  0.4789 -0.1568
  113OSM     OF11709   1.958   2.231   6.113  0.8851 -0.5074  0.1480
  113OSM    C2F11710   1.794   2.201   5.950 -0.6761  0.2501  0.9896
  113OSM    H2F11711   1.814   2.307   5.927  0.3911 -0.0980  0.2299
  113OSM    H2G11712   1.690   2.175   5.979 -0.5841  0.5916  1.6307
  113OSM    C3F11713   1.824   2.122   5.811 -0.2725 -1.1329 -0.4220
  113OSM    H3F11714   1.742   2.140   5.739 -0.9998 -1.0406  0.4053
  113OSM    H3G11715   1.818   2.012   5.827 -0.6226 -0.9092  1.2124
  113OSM    C4F11716   1.955   2.179   5.741  0.6771 -0.0207  0.1812
  113OSM    H4F11717   2.042   2.155   5.806  0.0750  0.8779  1.3701
  113OSM    H4G11718   1.956   2.288   5.718  0.7445  0.1504  0.9580
  113OSM    C5F11719   1.992   2.107   5.602 -0.5795 -0.1695  0.3857
  113OSM    H5F11720   2.007   1.997   5.616  3.1202  0.3443  1.5540
  113OSM    H5G11721   2.093   2.147   5.581 -0.2441 -0.3636  1.5341
  113OSM    C6F11722   1.902   2.136   5.484  0.1985 -0.2998  0.3807
  113OSM    H6F11723   1.869   2.240   5.503  0.8882 -0.0918  0.4854
  113OSM    H6G11724   1.814   2.070   5.475 -1.2243  1.6802 -1.2447
  113OSM    C7F11725   1.978   2.132   5.346 -0.2320 -0.2476  0.9097
  113OSM    H7F11726   2.004   2.026   5.324 -2.2332 -0.2304 -2.2838
  113OSM    H7G11727   2.065   2.199   5.360 -0.1883  0.1119 -0.8309
  113OSM    C8F11728   1.889   2.193   5.235  0.1721 -0.3040  0.3592
  113OSM    H8F11729   1.955   2.189   5.146  0.4539  0.7916  0.5021
  113OSM    H8G11730   1.868   2.298   5.264 -2.6353 -0.1444 -1.7135
  113OSM    C9F11731   1.752   2.121   5.217 -0.5553 -0.4571 -0.0100
  113OSM    H9F11732   1.697   2.089   5.308 -0.1179  0.4972  0.6040
  113OSM   C10F11733   1.711   2.082   5.098  0.8682  0.0427 -0.0588
  113OSM   H10F11734   1.610   2.041   5.087  0.8923  0.1723 -0.8182
  113OSM   C11F11735   1.774   2.106   4.963  0.1257 -0.2360  0.2746
  113OSM   H11F11736   1.740   2.030   4.890 -1.5193  1.8862 -1.2980
  113OSM   H11G11737   1.884   2.113   4.956 -0.0087  0.4423 -1.8952
  113OSM   C12F11738   1.713   2.231   4.896  0.7903 -0.1490 -0.3369
  113OSM   H12F11739   1.786   2.311   4.920  2.1973 -1.5710  0.3364
  113OSM   H12G11740   1.615   2.257   4.941  1.0753 -0.2617  0.3671
  113OSM   C13F11741   1.708   2.225   4.740  0.3851  0.2015  0.3394
  113OSM   H13F11742   1.627   2.154   4.713  0.8238 -0.8165  1.6116
  113OSM   H13G11743   1.803   2.185   4.697  0.1345 -0.5413  0.4579
  113OSM   C14F11744   1.696   2.365   4.676  0.6071  0.1320  0.5890
  113OSM   H14F11745   1.778   2.435   4.701 -0.5051  1.9899 -0.7464
  113OSM   H14G11746   1.602   2.421   4.695  0.2189  0.0696 -1.0389
  113OSM   C15F11747   1.710   2.340   4.525 -0.0712 -0.0370 -0.0971
  113OSM   H15F11748   1.624   2.275   4.498 -1.9572  1.1930  2.5831
  113OSM   H15G11749   1.810   2.291   4.515 -0.5152 -0.9747 -0.0790
  113OSM   C16F11750   1.697   2.479   4.461  0.1728 -0.6493  0.2494
  113OSM   H16F11751   1.779   2.538   4.507  0.9122 -2.1166  0.8844
  113OSM   H16G11752   1.601   2.521   4.495  1.3420  0.8430  1.8936
  113OSM   C17F11753   1.713   2.489   4.306 -0.0938  0.4675 -0.3390
  113OSM   H17F11754   1.690   2.590   4.267 -1.6485  0.0616 -0.5142
  113OSM   H17G11755   1.633   2.422   4.267  0.3284 -0.2852  0.0585
  113OSM   C18F11756   1.843   2.448   4.244  0.4532 -1.2971  0.5893
  113OSM   H18F11757   1.841   2.473   4.136 -0.6324  3.0155  1.4163
  113OSM   H18G11758   1.843   2.338   4.258 -0.1607 -1.1991  1.4557
  113OSM   H18H11759   1.938   2.492   4.283 -0.7796  2.6543 -0.4034
  114OSM      N11760   0.981   6.562   6.595 -0.3489 -0.5834  0.7473
  114OSM    C1511761   1.114   6.515   6.656  0.2160  1.4100  0.2087
  114OSM   H15A11762   1.195   6.527   6.585 -2.4046  1.5928 -2.9828
  114OSM   H15B11763   1.098   6.409   6.661 -0.4336  1.4386 -0.8594
  114OSM   H15C11764   1.142   6.560   6.750  2.0152  0.9393 -0.0711
  114OSM    C1411765   0.872   6.591   6.691  0.1232 -0.0778 -0.0575
  114OSM   H14A11766   0.779   6.622   6.647  0.4294  2.0516  0.6798
  114OSM   H14B11767   0.899   6.679   6.748 -0.8173 -0.3714  0.8543
  114OSM   H14C11768   0.845   6.517   6.764  1.0475  0.0222  0.3970
  114OSM    C1311769   1.020   6.695   6.527 -0.2400 -0.2143 -0.3139
  114OSM   H13A11770   1.076   6.678   6.436 -0.8518  0.5916 -0.8517
  114OSM   H13B11771   1.079   6.751   6.598 -2.4337  0.0364  1.3935
  114OSM   H13C11772   0.935   6.758   6.509  0.0471  1.8017  4.1749
  114OSM    C1211773   0.943   6.465   6.485  1.2318  0.5052  0.8844
  114OSM   H12A11774   0.920   6.370   6.530 -0.4521  1.4198  2.0845
  114OSM   H12B11775   1.030   6.432   6.431  1.2615  0.4472  0.9681
  114OSM    C1111776   0.843   6.508   6.378  0.7462  0.4339  0.0798
  114OSM   H11A11777   0.886   6.582   6.307  0.7929  1.3776  1.0781
  114OSM   H11B11778   0.764   6.545   6.446 -0.6372  0.1702 -1.3263
  114OSM      P11779   0.670   6.359   6.247 -0.4967 -0.2664  0.5985
  114OSM    O1311780   0.670   6.231   6.169  0.1086  0.0527 -0.0379
  114OSM    O1411781   0.562   6.363   6.351 -0.0193 -0.2867  0.1533
  114OSM    O1111782   0.646   6.482   6.153 -0.2923 -0.0949 -0.5540
  114OSM    O1211783   0.816   6.391   6.301 -0.2563 -0.9861  0.1766
  114OSM    C1S11784   0.740   6.550   6.069  0.3499 -0.1267  0.2621
  114OSM    H1S11785   0.841   6.505   6.077 -0.2421 -1.5396  0.0789
  114OSM    H1T11786   0.746   6.659   6.089 -0.7780  0.3906 -1.9109
  114OSM     NF11787   0.817   6.555   5.833  0.3498 -0.1661 -0.3846
  114OSM    HNF11788   0.829   6.649   5.802  1.0479  1.3067  3.6750
  114OSM    C2S11789   0.701   6.530   5.925  0.1555 -0.3648  0.6735
  114OSM    H2S11790   0.669   6.425   5.910 -1.3452 -0.0336  1.3609
  114OSM    C3S11791   0.570   6.617   5.896 -0.2282 -1.2337  0.1097
  114OSM    H3S11792   0.604   6.722   5.900  2.4518 -1.9181 -1.8721
  114OSM     O311793   0.472   6.599   5.998 -0.2433  0.2873  0.8646
  114OSM    HO311794   0.516   6.551   6.069  2.3844 -0.3570 -1.0377
  114OSM    C4S11795   0.514   6.596   5.751 -0.3617 -0.5859 -0.4378
  114OSM    H4S11796   0.580   6.646   5.679  0.4596 -2.4575 -1.0573
  114OSM    C5S11797   0.402   6.526   5.709 -0.1595  0.1293  0.9276
  114OSM    H5S11798   0.344   6.479   5.790  0.6168  1.4604  2.3187
  114OSM    C6S11799   0.345   6.505   5.573  0.9127 -0.2449 -0.1143
  114OSM    H6S11800   0.256   6.564   5.543  0.3927 -1.1725 -0.4065
  114OSM    H6T11801   0.321   6.397   5.575 -1.2434  0.1931 -0.5403
  114OSM    C7S11802   0.445   6.513   5.453  0.2730  0.5958 -0.7575
  114OSM    H7S11803   0.516   6.428   5.458 -0.5801 -0.1628 -1.2262
  114OSM    H7T11804   0.496   6.612   5.451  0.4957  0.4799 -2.5092
  114OSM    C8S11805   0.362   6.502   5.321 -0.6881 -0.4238  0.4879
  114OSM    H8S11806   0.289   6.586   5.319 -2.3074 -1.5802  3.2890
  114OSM    H8T11807   0.301   6.409   5.330 -0.3982 -1.0295 -2.8132
  114OSM    C9S11808   0.455   6.487   5.204 -0.8186  0.6591  0.5911
  114OSM    H9S11809   0.489   6.382   5.197  0.3923  1.1005 -0.7108
  114OSM    H9T11810   0.542   6.555   5.218  0.6916 -0.4091 -2.5776
  114OSM   C10S11811   0.391   6.520   5.070  0.1412 -0.4794  0.2387
  114OSM   H10S11812   0.331   6.613   5.078  1.4763  0.4808 -0.3539
  114OSM   H10T11813   0.320   6.438   5.048  1.1598 -0.9821 -1.4113
  114OSM   C11S11814   0.476   6.530   4.947 -0.4389  0.3526  0.2562
  114OSM   H11S11815   0.551   6.449   4.937 -0.0330  0.3795  2.6415
  114OSM   H11T11816   0.533   6.625   4.953  1.4926 -0.7959  0.9422
  114OSM   C12S11817   0.397   6.530   4.815  0.6791  0.4109  0.0131
  114OSM   H12S11818   0.472   6.506   4.738  1.3536 -2.1661  1.3453
  114OSM   H12T11819   0.351   6.630   4.802 -1.4950 -0.6563 -1.1779
  114OSM   C13S11820   0.275   6.430   4.795 -0.2436  0.3425 -0.3076
  114OSM   H13S11821   0.185   6.468   4.848 -0.1382 -0.3416  0.3728
  114OSM   H13T11822   0.306   6.334   4.842  0.3861  0.6527 -0.0691
  114OSM   C14S11823   0.231   6.421   4.650  0.1605  0.2481  0.4728
  114OSM   H14S11824   0.127   6.384   4.663  0.8174 -2.0719 -0.3729
  114OSM   H14T11825   0.286   6.342   4.594  0.5834  0.8072  0.0846
  114OSM   C15S11826   0.227   6.549   4.574  0.0219 -0.8682  0.4911
  114OSM   H15S11827   0.329   6.582   4.547 -0.6435  0.8375 -0.1002
  114OSM   H15T11828   0.191   6.621   4.650  3.2268 -0.9794  2.2656
  114OSM   C16S11829   0.131   6.548   4.453 -0.3926  0.7926  0.3821
  114OSM   H16S11830   0.044   6.487   4.485 -0.8811 -0.4517 -2.8884
  114OSM   H16T11831   0.172   6.496   4.364 -3.7574 -0.7396 -0.4591
  114OSM   C17S11832   0.090   6.689   4.402 -0.3266  0.2330  0.5700
  114OSM   H17S11833   0.065   6.747   4.492 -2.7944 -2.0758  1.5209
  114OSM   H17T11834   0.003   6.686   4.333 -0.2141  1.3950  0.3726
  114OSM   C18S11835   0.205   6.760   4.320  0.3907 -0.3427 -0.4879
  114OSM   H18S11836   0.174   6.858   4.278 -1.7389 -0.5626  0.4567
  114OSM   H18T11837   0.235   6.704   4.230 -2.1446 -1.0226 -0.9659
  114OSM   H18U11838   0.301   6.772   4.376  0.5595 -0.5108 -0.7441
  114OSM    C1F11839   0.928   6.472   5.830  0.2627  0.4579  0.0859
  114OSM     OF11840   0.920   6.362   5.878  0.4110  0.7585 -0.2821
  114OSM    C2F11841   1.050   6.520   5.750 -0.0828 -0.5271  0.3433
  114OSM    H2F11842   1.134   6.500   5.821 -0.5395  1.5521  1.5765
  114OSM    H2G11843   1.057   6.631   5.746  0.3730 -0.3721  3.0372
  114OSM    C3F11844   1.066   6.449   5.616  0.3156 -0.6587 -0.0599
  114OSM    H3F11845   1.047   6.341   5.634 -1.3404 -0.2918  0.5629
  114OSM    H3G11846   1.171   6.459   5.580  0.9338  1.9193  2.1318
  114OSM    C4F11847   0.967   6.502   5.505  0.2453 -0.1660 -0.2842
  114OSM    H4F11848   0.983   6.612   5.510 -0.1207 -0.0413 -1.6813
  114OSM    H4G11849   0.863   6.478   5.534  0.0773 -1.1533 -1.6345
  114OSM    C5F11850   0.980   6.438   5.365  0.5606 -0.5503 -0.0102
  114OSM    H5F11851   0.924   6.343   5.377  1.0709 -0.8821 -0.2516
  114OSM    H5G11852   1.088   6.420   5.351  0.3675  0.1016 -2.9724
  114OSM    C6F11853   0.913   6.518   5.252  0.2716  1.1124  0.2268
  114OSM    H6F11854   0.935   6.626   5.267  2.5631  0.6794  0.3880
  114OSM    H6G11855   0.804   6.497   5.252  0.8168 -2.2416  0.4530
  114OSM    C7F11856   0.964   6.478   5.112  0.1895  1.1557  0.0035
  114OSM    H7F11857   0.977   6.368   5.111  1.6828  1.3099 -0.7380
  114OSM    H7G11858   1.070   6.508   5.096  0.9501 -2.2130 -2.3583
  114OSM    C8F11859   0.869   6.525   5.000  0.4026 -0.4981  0.0177
  114OSM    H8F11860   0.838   6.629   5.025 -1.5487 -0.9171 -0.4569
  114OSM    H8G11861   0.774   6.467   5.004 -0.7092  1.2858  0.6013
  114OSM    C9F11862   0.930   6.517   4.864  0.2209  0.0706  0.5819
  114OSM    H9F11863   0.968   6.416   4.843  0.4534  0.7443 -2.9797
  114OSM   C10F11864   0.952   6.619   4.775 -0.1516  0.1209  0.3779
  114OSM   H10F11865   0.995   6.597   4.677 -0.4088  1.9376 -0.1827
  114OSM   C11F11866   0.928   6.763   4.783  0.1901  0.2534  0.3901
  114OSM   H11F11867   0.996   6.801   4.863 -0.3653 -0.1977  1.0866
  114OSM   H11G11868   0.826   6.785   4.819  1.1753  1.4943  2.6304
  114OSM   C12F11869   0.959   6.831   4.645  0.5814 -0.1254  0.6513
  114OSM   H12F11870   1.069   6.834   4.626  0.2522 -0.8574 -1.6835
  114OSM   H12G11871   0.939   6.940   4.653 -0.4795 -0.2572  0.0520
  114OSM   C13F11872   0.887   6.769   4.530  1.0341 -0.1698 -0.4046
  114OSM   H13F11873   0.777   6.776   4.540  1.1559  1.2951  0.2602
  114OSM   H13G11874   0.918   6.664   4.511  0.5122 -0.5921  1.0057
  114OSM   C14F11875   0.893   6.857   4.399  0.3176  0.0653  0.2662
  114OSM   H14F11876   1.001   6.865   4.374  0.7966  0.7972  2.4090
  114OSM   H14G11877   0.855   6.958   4.423 -0.5133 -0.4847  1.3218
  114OSM   C15F11878   0.818   6.794   4.277  0.8675 -0.4036 -0.0412
  114OSM   H15F11879   0.868   6.703   4.237 -0.2773 -2.2405  2.4386
  114OSM   H15G11880   0.815   6.870   4.196 -2.7949  0.4962  0.7454
  114OSM   C16F11881   0.670   6.758   4.323 -0.1629 -0.3814  0.0272
  114OSM   H16F11882   0.632   6.848   4.376  2.8930  0.4843  0.9607
  114OSM   H16G11883   0.665   6.673   4.395 -0.3164 -0.3707  0.0289
  114OSM   C17F11884   0.574   6.721   4.209  0.3799  0.4632  0.6217
  114OSM   H17F11885   0.578   6.789   4.121 -3.2733 -0.8613 -0.7757
  114OSM   H17G11886   0.468   6.716   4.244  0.7979 -1.6157  1.6893
  114OSM   C18F11887   0.617   6.591   4.142 -0.0632  0.3285  0.3488
  114OSM   H18F11888   0.546   6.556   4.063  0.0501 -2.3999  1.3684
  114OSM   H18G11889   0.619   6.502   4.208 -1.3549  1.1565  1.5525
  114OSM   H18H11890   0.710   6.609   4.084 -1.2771  0.3288 -1.7078
  115OSM      N11891   6.830   1.795   6.344  0.2529  0.0402 -0.4219
  115OSM    C1511892   6.830   1.678   6.440 -0.4214 -0.1501  0.2403
  115OSM   H15A11893   6.739   1.673   6.499 -2.2600 -3.0684 -2.5315
  115OSM   H15B11894   6.916   1.685   6.505  1.0002  0.1856 -1.5909
  115OSM   H15C11895   6.840   1.582   6.393  1.6709 -0.2475  0.8049
  115OSM    C1411896   6.966   1.802   6.281 -0.1085  0.0477  0.7575
  115OSM   H14A11897   6.964   1.878   6.204  3.2719 -0.5127 -0.0610
  115OSM   H14B11898   6.987   1.712   6.225  1.1117  0.5327  0.4060
  115OSM   H14C11899   7.044   1.835   6.349 -0.5347  2.1890  0.2949
  115OSM    C1311900   6.736   1.787   6.226  0.1022 -0.0774  0.4632
  115OSM   H13A11901   6.632   1.802   6.250 -0.8750 -0.2286 -3.0988
  115OSM   H13B11902   6.741   1.693   6.173 -0.3024 -0.0606  0.3910
  115OSM   H13C11903   6.760   1.864   6.155  2.1295 -1.5403 -0.5389
  115OSM    C1211904   6.809   1.917   6.431 -0.1456  0.4504  0.2416
  115OSM   H12A11905   6.885   1.931   6.507  2.5631  2.0306 -2.5141
  115OSM   H12B11906   6.713   1.896   6.475 -0.0787 -0.7663 -0.1853
  115OSM    C1111907   6.793   2.055   6.361 -1.1540 -0.4583  0.2854
  115OSM   H11A11908   6.805   2.119   6.451  0.7417  0.9213 -0.8764
  115OSM   H11B11909   6.693   2.060   6.313 -0.2226  1.8118 -1.6121
  115OSM      P11910   6.868   2.137   6.130  0.1226 -0.1775  0.2463
  115OSM    O1311911   6.808   2.036   6.044  0.1260 -1.2785 -0.3150
  115OSM    O1411912   6.784   2.254   6.164 -0.5081 -0.3431  0.6500
  115OSM    O1111913   7.008   2.190   6.073 -0.6404  0.1250 -0.3900
  115OSM    O1211914   6.906   2.074   6.271  0.0406 -0.3233  0.2025
  115OSM    C1S11915   7.117   2.099   6.061 -0.0127  1.4013  0.3880
  115OSM    H1S11916   7.102   2.009   6.125 -1.9917  1.8603  0.6216
  115OSM    H1T11917   7.217   2.132   6.096  1.2378 -1.4377 -0.1887
  115OSM     NF11918   7.208   1.931   5.917 -0.3576  0.3539 -0.2768
  115OSM    HNF11919   7.306   1.928   5.901  0.0417 -0.6365  1.9441
  115OSM    C2S11920   7.144   2.060   5.916  0.2022  0.3823  0.7023
  115OSM    H2S11921   7.047   2.050   5.863  0.1244  2.8957  0.2596
  115OSM    C3S11922   7.224   2.182   5.847  0.4148 -0.2167 -0.4263
  115OSM    H3S11923   7.320   2.176   5.901 -0.1209 -0.4464  0.5172
  115OSM     O311924   7.177   2.318   5.877  0.1361 -0.2033 -0.0619
  115OSM    HO311925   7.114   2.306   5.948 -0.5801  0.5592 -0.5533
  115OSM    C4S11926   7.245   2.153   5.705 -0.2307  0.5697 -0.4036
  115OSM    H4S11927   7.338   2.099   5.683 -0.1131 -0.0593  1.4518
  115OSM    C5S11928   7.166   2.187   5.605  0.4427  0.7434 -0.2158
  115OSM    H5S11929   7.067   2.228   5.628 -1.0697 -2.4723 -0.3530
  115OSM    C6S11930   7.184   2.162   5.458  0.2577 -0.6913  0.8522
  115OSM    H6S11931   7.123   2.243   5.414 -0.3579 -2.2578 -1.2918
  115OSM    H6T11932   7.131   2.071   5.423 -0.6178  0.6757 -1.6050
  115OSM    C7S11933   7.328   2.161   5.396 -0.3318 -0.0159  0.2998
  115OSM    H7S11934   7.384   2.075   5.438 -0.7273  0.3386  1.5961
  115OSM    H7T11935   7.384   2.254   5.415  2.2475 -1.0885 -1.5687
  115OSM    C8S11936   7.315   2.131   5.245 -0.0060 -0.3269  0.4634
  115OSM    H8S11937   7.264   2.217   5.198  2.2254  0.2832 -1.0342
  115OSM    H8T11938   7.250   2.042   5.231 -0.5726  0.0692  0.5601
  115OSM    C9S11939   7.446   2.112   5.166  0.4211 -0.8781  0.1838
  115OSM    H9S11940   7.512   2.029   5.197  4.1390  1.2763 -1.3189
  115OSM    H9T11941   7.515   2.199   5.168  0.3782 -0.7074 -2.3133
  115OSM   C10S11942   7.416   2.083   5.017  0.5179 -0.8799 -0.2944
  115OSM   H10S11943   7.367   2.172   4.972  1.6848 -0.7737 -1.4311
  115OSM   H10T11944   7.362   1.987   5.001  0.7219 -1.0274 -0.1017
  115OSM   C11S11945   7.549   2.070   4.939 -0.0490  0.0862 -0.1636
  115OSM   H11S11946   7.601   1.975   4.965  0.0525  0.1066 -0.2900
  115OSM   H11T11947   7.623   2.146   4.972 -1.0550  0.5119  1.1934
  115OSM   C12S11948   7.524   2.086   4.794  0.1799 -0.6666 -0.0821
  115OSM   H12S11949   7.624   2.078   4.745  0.1532 -0.3584 -0.1971
  115OSM   H12T11950   7.490   2.192   4.790 -0.1487 -0.5865  2.9413
  115OSM   C13S11951   7.422   1.989   4.732  0.5194 -0.5703  0.1680
  115OSM   H13S11952   7.321   1.997   4.778  0.2683  1.0736 -0.5982
  115OSM   H13T11953   7.451   1.882   4.737 -1.5149 -1.2332 -0.9181
  115OSM   C14S11954   7.397   2.026   4.585  0.4280  0.0397  0.9225
  115OSM   H14S11955   7.485   2.007   4.520 -0.6522  0.4926 -0.7270
  115OSM   H14T11956   7.378   2.135   4.589  0.4287  0.1004  5.6072
  115OSM   C15S11957   7.291   1.937   4.519  0.3967 -0.0902 -0.4107
  115OSM   H15S11958   7.195   1.933   4.574  1.1667 -2.6328  0.9135
  115OSM   H15T11959   7.327   1.832   4.527  0.3199 -0.0906 -0.0579
  115OSM   C16S11960   7.263   1.980   4.372  0.4129 -0.2467 -0.5787
  115OSM   H16S11961   7.211   2.079   4.380 -0.2954 -0.6385 -0.1877
  115OSM   H16T11962   7.183   1.914   4.331 -0.0243 -3.0012  4.0349
  115OSM   C17S11963   7.374   1.986   4.270  1.6034 -0.1244 -0.0322
  115OSM   H17S11964   7.466   2.038   4.306  0.5687  0.0207  2.6879
  115OSM   H17T11965   7.339   2.038   4.179 -1.7739  1.8944  2.2186
  115OSM   C18S11966   7.422   1.843   4.238 -0.7919  0.6597 -0.7620
  115OSM   H18S11967   7.499   1.810   4.311 -0.1210  1.0189 -1.2875
  115OSM   H18T11968   7.474   1.842   4.140 -1.2508  0.2254 -1.0031
  115OSM   H18U11969   7.342   1.767   4.235 -0.4821  0.3615 -2.1096
  115OSM    C1F11970   7.147   1.804   5.924 -0.5850 -0.1563 -0.1297
  115OSM     OF11971   7.034   1.797   5.966 -0.3944 -0.2158 -0.1849
  115OSM    C2F11972   7.238   1.695   5.875 -0.7748 -0.0853 -0.2599
  115OSM    H2F11973   7.270   1.636   5.964  0.8005  0.1812 -0.6317
  115OSM    H2G11974   7.324   1.742   5.823 -0.3634 -1.1308 -0.5482
  115OSM    C3F11975   7.172   1.586   5.783 -0.5480  0.3008 -0.5220
  115OSM    H3F11976   7.101   1.537   5.854  0.0166  1.2049  0.7109
  115OSM    H3G11977   7.247   1.509   5.755 -1.5599 -0.2203 -1.9145
  115OSM    C4F11978   7.109   1.637   5.653 -0.3129  0.4993  0.4881
  115OSM    H4F11979   7.018   1.699   5.670  0.0439  1.2923 -0.4007
  115OSM    H4G11980   7.085   1.552   5.586  0.6639 -0.7088  1.6164
  115OSM    C5F11981   7.208   1.729   5.576  0.1697 -0.5386  0.6087
  115OSM    H5F11982   7.295   1.662   5.563 -0.3127 -1.8750  3.5512
  115OSM    H5G11983   7.226   1.816   5.643  4.3860 -1.8941  1.4823
  115OSM    C6F11984   7.153   1.784   5.441  0.3283  0.2133  0.2607
  115OSM    H6F11985   7.220   1.856   5.388  0.5240 -1.2559 -1.5986
  115OSM    H6G11986   7.062   1.847   5.450  1.0845  1.4757 -0.6919
  115OSM    C7F11987   7.130   1.676   5.327 -0.1334  0.1683 -0.3971
  115OSM    H7F11988   7.076   1.590   5.372 -1.5846 -0.1756 -2.6093
  115OSM    H7G11989   7.230   1.641   5.293  0.0950 -0.7133  1.0892
  115OSM    C8F11990   7.057   1.726   5.201  0.6826  0.1224  0.1871
  115OSM    H8F11991   7.065   1.659   5.113  0.7610  0.5126 -0.1115
  115OSM    H8G11992   7.107   1.822   5.175 -2.0492  1.4647 -0.4663
  115OSM    C9F11993   6.914   1.762   5.233 -0.1039 -0.0522 -0.2324
  115OSM    H9F11994   6.910   1.821   5.326  0.0684 -0.1994 -0.1298
  115OSM   C10F11995   6.806   1.722   5.174  0.3411  0.2682  0.0651
  115OSM   H10F11996   6.712   1.770   5.207  0.0864 -1.2467  1.7044
  115OSM   C11F11997   6.789   1.623   5.056  0.0550  0.3780 -0.1281
  115OSM   H11F11998   6.693   1.570   5.073 -0.1824  1.1061  0.8932
  115OSM   H11G11999   6.870   1.547   5.050 -1.7446 -1.5034 -3.1707
  115OSM   C12F12000   6.776   1.691   4.911 -0.0349 -0.3555 -0.8775
  115OSM   H12F12001   6.698   1.768   4.930  0.9294  0.1866  1.2546
  115OSM   H12G12002   6.737   1.615   4.840 -0.1146  0.2979 -1.5447
  115OSM   C13F12003   6.911   1.734   4.869 -0.3827 -0.9207  0.2053
  115OSM   H13F12004   6.977   1.645   4.869  1.2071  0.2103  0.0558
  115OSM   H13G12005   6.951   1.814   4.936  0.1463 -1.2484  0.2901
  115OSM   C14F12006   6.929   1.790   4.729  0.5029 -0.1153 -1.4736
  115OSM   H14F12007   7.028   1.838   4.715 -0.2764  2.2887  0.4490
  115OSM   H14G12008   6.864   1.881   4.723  0.5734 -0.1718 -3.4664
  115OSM   C15F12009   6.880   1.695   4.623 -0.2811 -0.2532  0.1853
  115OSM   H15F12010   6.773   1.668   4.641 -0.4890  0.5869  0.2470
  115OSM   H15G12011   6.939   1.603   4.605 -1.0710 -0.9676  1.1117
  115OSM   C16F12012   6.887   1.759   4.486 -0.6682  0.3159 -0.2656
  115OSM   H16F12013   6.876   1.687   4.402 -0.7718  0.9639 -0.8196
  115OSM   H16G12014   6.986   1.805   4.461 -0.4518 -0.4796 -0.9157
  115OSM   C17F12015   6.784   1.870   4.461  0.9828  0.1220 -0.5388
  115OSM   H17F12016   6.698   1.848   4.527  0.2187  0.0739 -1.5166
  115OSM   H17G12017   6.748   1.857   4.356 -0.5273  1.4002 -0.2246
  115OSM   C18F12018   6.830   2.014   4.488  0.0403  0.1051  0.4455
  115OSM   H18F12019   6.846   2.034   4.597  0.3696  1.0038  0.2470
  115OSM   H18G12020   6.750   2.078   4.444 -0.7925  1.7260  3.9585
  115OSM   H18H12021   6.924   2.041   4.434  0.0270 -0.6580  0.0278
  116OSM      N12022   2.328   0.369   6.397  0.6731 -0.4611  0.2185
  116OSM    C1512023   2.383   0.500   6.354  0.1637  0.2692  0.9212
  116OSM   H15A12024   2.303   0.567   6.326 -0.5198 -0.6433  0.6230
  116OSM   H15B12025   2.424   0.484   6.255 -2.7981 -0.1935 -0.3555
  116OSM   H15C12026   2.449   0.548   6.424  1.6081 -1.7498  1.0179
  116OSM    C1412027   2.236   0.317   6.291 -0.0140 -0.6349 -0.2411
  116OSM   H14A12028   2.144   0.372   6.289 -0.4216 -1.3149 -0.7812
  116OSM   H14B12029   2.216   0.211   6.302  2.7425 -1.0593  2.0352
  116OSM   H14C12030   2.279   0.311   6.192  1.2364 -1.1309  0.3043
  116OSM    C1312031   2.442   0.265   6.425  0.2731  0.1014  0.1087
  116OSM   H13A12032   2.404   0.165   6.439  0.1858  0.2793  1.2839
  116OSM   H13B12033   2.491   0.296   6.517  1.3442  0.4057 -0.5507
  116OSM   H13C12034   2.518   0.268   6.349 -1.1186 -1.6524 -1.4334
  116OSM    C1212035   2.251   0.387   6.531 -0.2675 -0.3685 -0.2419
  116OSM   H12A12036   2.321   0.407   6.611 -1.2497  1.6519  0.1782
  116OSM   H12B12037   2.200   0.298   6.566 -0.0285  1.0503  4.4597
  116OSM    C1112038   2.154   0.496   6.554  0.1368  0.7315 -1.3042
  116OSM   H11A12039   2.191   0.600   6.549 -0.5658  1.1438  0.9734
  116OSM   H11B12040   2.104   0.475   6.651  1.0890  0.1554 -0.9224
  116OSM      P12041   1.939   0.582   6.434 -0.0932  0.5953 -0.0907
  116OSM    O1312042   1.823   0.534   6.506 -0.0752 -0.1843  0.6469
  116OSM    O1412043   1.990   0.714   6.458  0.6524  0.9751 -0.9762
  116OSM    O1112044   1.928   0.574   6.278 -0.1160 -0.5746  0.3964
  116OSM    O1212045   2.052   0.482   6.446 -0.0520 -0.2189  0.3085
  116OSM    C1S12046   1.882   0.454   6.210 -0.5513  0.5308 -0.1700
  116OSM    H1S12047   1.777   0.426   6.232 -0.8458  1.9029  0.2221
  116OSM    H1T12048   1.937   0.362   6.238 -3.4676 -1.2775  0.0879
  116OSM     NF12049   1.848   0.352   5.978  0.0926  0.9482  0.2898
  116OSM    HNF12050   1.908   0.273   5.968 -0.1268  0.9027 -0.8191
  116OSM    C2S12051   1.898   0.465   6.050  0.0010 -1.0087 -0.2744
  116OSM    H2S12052   1.855   0.563   6.020  3.4797  0.9405  0.6255
  116OSM    C3S12053   2.050   0.490   6.017  0.4149  0.3413  0.1401
  116OSM    H3S12054   2.096   0.412   6.081 -0.1721  1.7051  2.3583
  116OSM     O312055   2.102   0.613   6.071  0.2197 -0.1440 -0.2153
  116OSM    HO312056   2.037   0.633   6.138 -3.5242 -1.2236 -3.1703
  116OSM    C4S12057   2.086   0.472   5.874  0.1610  0.6505  0.0608
  116OSM    H4S12058   2.152   0.388   5.848 -0.4563  0.0155  0.5308
  116OSM    C5S12059   2.057   0.546   5.769  0.2447  0.6411 -0.4008
  116OSM    H5S12060   2.021   0.650   5.779  2.1249  1.2749  0.0257
  116OSM    C6S12061   2.110   0.519   5.631 -0.0962  0.1267  0.6117
  116OSM    H6S12062   2.209   0.472   5.647 -0.4963  0.1224  3.6183
  116OSM    H6T12063   2.120   0.611   5.570 -0.2648 -1.5765 -2.1249
  116OSM    C7S12064   2.028   0.417   5.552  0.5592  0.9451 -0.3974
  116OSM    H7S12065   1.921   0.446   5.538  0.5086 -0.0994 -2.5817
  116OSM    H7T12066   2.016   0.321   5.606  0.7859  0.9064 -0.4144
  116OSM    C8S12067   2.095   0.397   5.416  0.3306 -0.3264  0.1996
  116OSM    H8S12068   2.196   0.358   5.441  0.6972  0.4879  0.0204
  116OSM    H8T12069   2.093   0.497   5.367  1.7377 -0.2257  0.3075
  116OSM    C9S12070   2.015   0.310   5.324  0.2127  0.1536  0.1519
  116OSM    H9S12071   1.922   0.369   5.309  0.0440 -0.2334 -0.3696
  116OSM    H9T12072   1.993   0.212   5.372  1.3310 -0.9726 -1.4987
  116OSM   C10S12073   2.091   0.268   5.189  1.0580 -0.3257  0.1684
  116OSM   H10S12074   2.175   0.200   5.212  1.1675 -0.3168 -0.1967
  116OSM   H10T12075   2.133   0.360   5.143 -0.3031  0.4357  0.3849
  116OSM   C11S12076   1.982   0.214   5.087  0.7770  0.2335 -0.3184
  116OSM   H11S12077   1.905   0.289   5.060  0.4370 -0.8590 -2.5602
  116OSM   H11T12078   1.936   0.129   5.143  1.3733 -0.6082 -1.0713
  116OSM   C12S12079   2.052   0.162   4.955 -0.4510  0.1208 -0.3139
  116OSM   H12S12080   2.142   0.103   4.981 -1.2330 -0.4622  1.1996
  116OSM   H12T12081   2.076   0.249   4.890 -2.0583  1.9041  1.3483
  116OSM   C13S12082   1.964   0.069   4.878 -0.8197 -0.4682  0.0356
  116OSM   H13S12083   1.951  -0.027   4.933  0.0793 -0.7280 -0.1869
  116OSM   H13T12084   2.013   0.031   4.786 -0.1539  1.6620 -0.5374
  116OSM   C14S12085   1.830   0.116   4.832  0.4473 -0.2206 -0.3090
  116OSM   H14S12086   1.785   0.144   4.930  4.2510  0.3058  1.4868
  116OSM   H14T12087   1.775   0.029   4.791 -0.2951 -0.5740  1.3369
  116OSM   C15S12088   1.842   0.235   4.738  0.6042 -0.4954 -0.0305
  116OSM   H15S12089   1.907   0.211   4.650 -0.6346  0.4177 -1.2288
  116OSM   H15T12090   1.891   0.315   4.798 -0.0387 -0.5708  0.6083
  116OSM   C16S12091   1.702   0.283   4.689  0.7900 -0.3760 -0.2848
  116OSM   H16S12092   1.716   0.380   4.638 -1.5977 -1.1380 -2.6060
  116OSM   H16T12093   1.633   0.303   4.774 -1.1943 -1.0294 -1.6702
  116OSM   C17S12094   1.635   0.185   4.590 -0.5430  0.3679 -0.0261
  116OSM   H17S12095   1.635   0.084   4.636 -1.2750 -0.9299 -2.6490
  116OSM   H17T12096   1.687   0.182   4.492 -2.6661  1.1391 -1.2643
  116OSM   C18S12097   1.494   0.229   4.561  0.4902 -0.1189  0.7769
  116OSM   H18S12098   1.486   0.328   4.511 -1.5972 -0.2714  0.7098
  116OSM   H18T12099   1.423   0.223   4.646 -0.1899  2.5709  0.5041
  116OSM   H18U12100   1.465   0.165   4.475 -0.0297  0.2360  0.6830
  116OSM    C1F12101   1.717   0.324   5.946 -0.4112  0.8474  0.2011
  116OSM     OF12102   1.630   0.402   5.984 -0.4164 -0.3734  0.3507
  116OSM    C2F12103   1.687   0.199   5.871 -0.6519 -0.4194  0.2168
  116OSM    H2F12104   1.584   0.166   5.894 -0.2992 -1.4088  0.4288
  116OSM    H2G12105   1.755   0.116   5.901  0.9412  1.4455  2.0333
  116OSM    C3F12106   1.722   0.210   5.722  0.4276 -0.4918  0.3183
  116OSM    H3F12107   1.827   0.246   5.717  0.2094  0.0726 -0.3273
  116OSM    H3G12108   1.661   0.293   5.682  0.2859 -1.2834 -1.1736
  116OSM    C4F12109   1.711   0.084   5.645  1.0230  0.5571  0.2104
  116OSM    H4F12110   1.625   0.030   5.691  2.0201 -0.2595  1.1648
  116OSM    H4G12111   1.810   0.034   5.652  0.8123  0.2717  1.3331
  116OSM    C5F12112   1.679   0.106   5.498  0.1843  0.1751 -0.1042
  116OSM    H5F12113   1.750   0.183   5.461  2.1328 -0.3518  2.2529
  116OSM    H5G12114   1.574   0.139   5.487  0.8044  1.5463 -2.7037
  116OSM    C6F12115   1.714  -0.021   5.407 -0.0679  0.0582 -0.0646
  116OSM    H6F12116   1.655  -0.103   5.454  1.3368 -1.4667 -0.8835
  116OSM    H6G12117   1.824  -0.031   5.418 -0.0254  0.7848  0.2302
  116OSM    C7F12118   1.655   0.004   5.268  0.3812 -0.0441  0.4878
  116OSM    H7F12119   1.707   0.082   5.207  1.9395  0.8141  2.7950
  116OSM    H7G12120   1.550   0.038   5.282  1.0812  2.1758  0.8102
  116OSM    C8F12121   1.667  -0.117   5.170 -0.8118 -0.0461  0.4215
  116OSM    H8F12122   1.771  -0.153   5.187 -0.5956  0.0643 -0.5951
  116OSM    H8G12123   1.650  -0.081   5.066 -2.7481 -0.7006  0.4608
  116OSM    C9F12124   1.565  -0.218   5.210 -0.1246  0.7187  0.3009
  116OSM    H9F12125   1.539  -0.235   5.316  3.3904 -1.7590  0.9506
  116OSM   C10F12126   1.496  -0.290   5.116  0.6105 -0.0238 -0.1605
  116OSM   H10F12127   1.413  -0.349   5.158  1.2614 -0.9965 -0.1888
  116OSM   C11F12128   1.499  -0.307   4.963  0.0948 -0.5606  0.0028
  116OSM   H11F12129   1.603  -0.302   4.925 -0.1017  0.4111 -0.4634
  116OSM   H11G12130   1.439  -0.232   4.906  1.9697  1.0182  0.0109
  116OSM   C12F12131   1.455  -0.447   4.916  0.3574 -0.4368 -0.9074
  116OSM   H12F12132   1.357  -0.482   4.955 -0.3180 -0.9767 -2.9550
  116OSM   H12G12133   1.524  -0.526   4.955  1.0209  0.0391 -1.1088
  116OSM   C13F12134   1.437  -0.469   4.764  0.6056 -0.2274  0.1249
  116OSM   H13F12135   1.370  -0.390   4.726  1.5552  1.1477  1.2067
  116OSM   H13G12136   1.389  -0.568   4.747  0.5254 -0.4819  1.6721
  116OSM   C14F12137   1.564  -0.448   4.675 -0.1945  0.4282 -0.1422
  116OSM   H14F12138   1.646  -0.515   4.708 -1.3123 -1.4304 -1.0364
  116OSM   H14G12139   1.602  -0.347   4.703  0.4093  0.1706 -0.0155
  116OSM   C15F12140   1.548  -0.463   4.527 -0.5266  0.1737  0.3474
  116OSM   H15F12141   1.471  -0.392   4.491 -0.7426 -0.1732  0.1113
  116OSM   H15G12142   1.524  -0.569   4.503 -1.8519  0.8252 -1.4034
  116OSM   C16F12143   1.675  -0.429   4.453  0.2913  0.2552 -0.5451
  116OSM   H16F12144   1.658  -0.457   4.347  1.0472 -1.5174 -0.2261
  116OSM   H16G12145   1.758  -0.493   4.488  0.7368  1.5851  0.9546
  116OSM   C17F12146   1.721  -0.281   4.465 -0.9062  0.4764  0.9279
  116OSM   H17F12147   1.724  -0.246   4.570 -1.4424 -0.9329  1.4354
  116OSM   H17G12148   1.643  -0.227   4.406  0.4568  0.1857 -1.2459
  116OSM   C18F12149   1.851  -0.250   4.387  0.2443  0.1275 -0.0016
  116OSM   H18F12150   1.836  -0.233   4.278 -0.5570 -4.0427 -0.7237
  116OSM   H18G12151   1.928  -0.329   4.393 -0.4937 -0.5183  1.5471
  116OSM   H18H12152   1.897  -0.159   4.431  0.2044  0.5384 -0.7910
  117OSM      N12153   0.934   3.976   6.441  0.6343 -0.1277 -0.0005
  117OSM    C1512154   1.028   3.972   6.553  0.1879  0.7154 -0.0941
  117OSM   H15A12155   1.050   4.067   6.599 -1.0389  0.9917 -0.0495
  117OSM   H15B12156   1.121   3.924   6.525 -0.4934 -0.5598 -0.2666
  117OSM   H15C12157   0.981   3.919   6.635  0.0770 -0.9139 -1.1690
  117OSM    C1412158   1.002   4.066   6.333 -0.3334  0.4190 -0.6049
  117OSM   H14A12159   0.928   4.077   6.255 -1.6253 -0.8534  0.3710
  117OSM   H14B12160   1.095   4.026   6.295 -0.0420  1.0082 -0.5203
  117OSM   H14C12161   1.032   4.163   6.369 -0.1140  0.0599  0.1999
  117OSM    C1312162   0.908   3.840   6.387  0.3879  0.5968  0.9856
  117OSM   H13A12163   0.861   3.769   6.453  1.0658 -1.2248 -0.4041
  117OSM   H13B12164   0.995   3.795   6.343  0.6632  0.1105  1.9932
  117OSM   H13C12165   0.836   3.856   6.308  0.7938  2.1009  0.8938
  117OSM    C1212166   0.798   4.045   6.482 -0.4334  0.3852 -0.2815
  117OSM   H12A12167   0.832   4.145   6.500 -0.0621  0.3062 -0.5396
  117OSM   H12B12168   0.762   4.008   6.577  2.9411 -0.0539  0.9365
  117OSM    C1112169   0.686   4.052   6.381 -0.3105  0.2846 -0.7518
  117OSM   H11A12170   0.725   4.103   6.291 -0.2044  0.3648 -0.6618
  117OSM   H11B12171   0.604   4.118   6.416  0.4943  1.0933 -0.3363
  117OSM      P12172   0.554   3.839   6.440  0.1702  0.0194  0.2429
  117OSM    O1312173   0.650   3.751   6.512 -0.3409 -0.4141 -0.3010
  117OSM    O1412174   0.478   3.930   6.530 -0.0226  0.0025 -0.2316
  117OSM    O1112175   0.453   3.753   6.353 -0.0378 -0.1081 -0.4176
  117OSM    O1212176   0.635   3.924   6.336 -0.1525 -0.4837 -0.5082
  117OSM    C1S12177   0.393   3.803   6.233 -0.4750 -0.9846  0.0471
  117OSM    H1S12178   0.463   3.876   6.187 -0.0445 -1.8208 -0.6417
  117OSM    H1T12179   0.293   3.845   6.256  0.1371 -0.7887  2.6560
  117OSM     NF12180   0.310   3.733   6.021  0.1198 -0.1509  0.1465
  117OSM    HNF12181   0.220   3.699   5.997  0.3115  1.3622 -3.2229
  117OSM    C2S12182   0.381   3.685   6.131  0.3003 -0.4834 -0.0860
  117OSM    H2S12183   0.481   3.661   6.089  1.0326  1.4983  0.4202
  117OSM    C3S12184   0.344   3.546   6.196  0.2689 -0.2282  0.1337
  117OSM    H3S12185   0.249   3.565   6.250  0.9302  0.5464  1.0429
  117OSM     O312186   0.433   3.486   6.298 -0.1806 -0.7408  0.7494
  117OSM    HO312187   0.486   3.563   6.319  0.3830 -0.6191 -0.9511
  117OSM    C4S12188   0.321   3.444   6.093  0.2050  0.1475  0.1600
  117OSM    H4S12189   0.409   3.416   6.033 -0.5271  0.7470 -1.2276
  117OSM    C5S12190   0.208   3.371   6.077 -0.4989 -0.5135  0.3431
  117OSM    H5S12191   0.116   3.392   6.134 -0.4657 -2.5598  1.2413
  117OSM    C6S12192   0.204   3.261   5.966 -0.6334 -0.3356 -1.1001
  117OSM    H6S12193   0.221   3.160   6.011  5.8812  0.3303 -1.0781
  117OSM    H6T12194   0.287   3.272   5.893 -0.9191 -0.9502 -1.5292
  117OSM    C7S12195   0.069   3.265   5.893  0.6347 -0.4480  0.2627
  117OSM    H7S12196  -0.019   3.261   5.961 -0.3223  0.8628 -0.8262
  117OSM    H7T12197   0.063   3.174   5.831  0.2537 -1.3142  1.5214
  117OSM    C8S12198   0.036   3.394   5.825  0.1129  0.0365 -0.5963
  117OSM    H8S12199   0.013   3.476   5.896  0.1817 -0.3625 -0.1048
  117OSM    H8T12200  -0.048   3.362   5.760  0.0955 -3.0336  0.7640
  117OSM    C9S12201   0.141   3.432   5.727  0.5553 -0.2459 -0.1058
  117OSM    H9S12202   0.172   3.337   5.678 -0.3801 -1.2366  1.1595
  117OSM    H9T12203   0.235   3.471   5.773  1.5728  0.0188 -2.2557
  117OSM   C10S12204   0.094   3.534   5.626 -0.4042 -0.5433  0.0466
  117OSM   H10S12205   0.049   3.622   5.678 -0.3421  0.3682 -1.3802
  117OSM   H10T12206   0.011   3.497   5.562 -0.1795  1.4322 -1.4813
  117OSM   C11S12207   0.204   3.583   5.520 -0.2661 -0.9913  1.1920
  117OSM   H11S12208   0.250   3.493   5.474 -2.5885 -2.5174  1.6703
  117OSM   H11T12209   0.283   3.634   5.580 -1.7898  0.7615  1.8155
  117OSM   C12S12210   0.147   3.682   5.427  0.1387 -0.6998 -0.1264
  117OSM   H12S12211   0.091   3.760   5.483  0.2776 -0.0380 -0.8872
  117OSM   H12T12212   0.080   3.630   5.356  1.4039 -0.7468 -1.3247
  117OSM   C13S12213   0.257   3.752   5.340 -0.2004 -0.0475 -0.6749
  117OSM   H13S12214   0.322   3.674   5.293 -1.0292 -1.6557  0.7167
  117OSM   H13T12215   0.317   3.804   5.418 -1.5108  1.4311 -0.6143
  117OSM   C14S12216   0.209   3.847   5.231  0.4304 -0.3878  0.0780
  117OSM   H14S12217   0.295   3.902   5.187 -0.5850  1.4968  0.3471
  117OSM   H14T12218   0.140   3.923   5.273  1.0283  0.1039  0.1825
  117OSM   C15S12219   0.148   3.772   5.108  0.3278  0.2434  0.1556
  117OSM   H15S12220   0.066   3.703   5.135  0.5054  0.2262  0.6772
  117OSM   H15T12221   0.229   3.707   5.069  0.6505 -0.0980  1.3536
  117OSM   C16S12222   0.095   3.854   4.995 -0.0577 -0.2926 -0.0811
  117OSM   H16S12223   0.167   3.935   4.972  0.8289 -0.6357  1.3542
  117OSM   H16T12224  -0.004   3.894   5.028  0.5296  1.1645 -0.0014
  117OSM   C17S12225   0.078   3.772   4.867  0.4048  0.1904 -0.2454
  117OSM   H17S12226   0.010   3.830   4.801 -0.4021  0.9949  1.2436
  117OSM   H17T12227   0.026   3.677   4.893  1.1935 -0.2867 -0.3811
  117OSM   C18S12228   0.206   3.732   4.795  0.0334 -0.4275  0.1379
  117OSM   H18S12229   0.285   3.684   4.857  3.2420  3.1233 -0.8388
  117OSM   H18T12230   0.260   3.818   4.750  0.7041 -1.6540 -1.5284
  117OSM   H18U12231   0.174   3.666   4.712 -1.0406 -1.0748  1.0368
  117OSM    C1F12232   0.351   3.834   5.938 -0.5663 -0.8448 -0.2615
  117OSM     OF12233   0.466   3.865   5.941 -0.8062 -0.0553 -0.1091
  117OSM    C2F12234   0.254   3.892   5.845 -0.1532 -0.4450 -0.0321
  117OSM    H2F12235   0.170   3.939   5.901  1.2713  1.0674  0.9305
  117OSM    H2G12236   0.207   3.804   5.796 -1.0566  0.1969 -0.3504
  117OSM    C3F12237   0.315   3.988   5.739 -0.8992 -0.2957  0.5147
  117OSM    H3F12238   0.391   3.929   5.683 -1.6539 -0.9199  0.1173
  117OSM    H3G12239   0.364   4.075   5.788 -0.3019 -0.4840  0.2666
  117OSM    C4F12240   0.214   4.041   5.628 -0.8817  0.1373 -0.4231
  117OSM    H4F12241   0.209   3.949   5.566  2.3708 -0.3654 -0.1287
  117OSM    H4G12242   0.266   4.104   5.553  2.4090 -1.9830 -0.1545
  117OSM    C5F12243   0.093   4.116   5.686 -0.0160 -0.2489 -0.5901
  117OSM    H5F12244   0.117   4.199   5.755  2.1834 -0.8242 -0.5859
  117OSM    H5G12245   0.041   4.036   5.742  1.5592 -1.2715 -0.5311
  117OSM    C6F12246   0.003   4.164   5.568  0.3861 -0.1288  0.3648
  117OSM    H6F12247  -0.089   4.195   5.623 -0.1934 -0.3502 -0.4666
  117OSM    H6G12248  -0.030   4.084   5.498 -0.5350  1.6105 -1.2749
  117OSM    C7F12249   0.059   4.278   5.485 -0.0321 -0.0321  0.0812
  117OSM    H7F12250   0.155   4.240   5.443  0.9130 -2.1759  3.7049
  117OSM    H7G12251   0.071   4.369   5.548 -1.8328  1.0158 -0.9938
  117OSM    C8F12252  -0.042   4.324   5.376  0.6288 -0.0349  0.2668
  117OSM    H8F12253   0.006   4.412   5.328  2.0017 -0.6237  0.4889
  117OSM    H8G12254  -0.128   4.362   5.434  0.2167  0.0244 -0.3730
  117OSM    C9F12255  -0.094   4.223   5.276  0.5792 -0.0131  0.1904
  117OSM    H9F12256  -0.192   4.177   5.298  1.2142 -1.6082 -0.2323
  117OSM   C10F12257  -0.027   4.177   5.171 -0.1634 -0.6317  0.3246
  117OSM   H10F12258  -0.077   4.114   5.097 -0.2143  0.5253 -0.6532
  117OSM   C11F12259   0.109   4.236   5.126  0.5649 -0.0649 -0.0356
  117OSM   H11F12260   0.159   4.151   5.075  1.8571  1.0380 -0.6674
  117OSM   H11G12261   0.170   4.275   5.210 -0.2730 -1.1439  1.1070
  117OSM   C12F12262   0.090   4.350   5.019  1.0152 -0.3157  0.1867
  117OSM   H12F12263   0.185   4.399   4.987  0.0453  1.4442 -0.1163
  117OSM   H12G12264   0.028   4.432   5.061 -0.2229  0.4172 -2.8200
  117OSM   C13F12265   0.026   4.286   4.893  0.0410  0.3036 -0.3362
  117OSM   H13F12266  -0.009   4.374   4.834  2.3592  1.2473 -0.4385
  117OSM   H13G12267  -0.063   4.221   4.898 -1.5918  2.4253 -0.3363
  117OSM   C14F12268   0.132   4.221   4.800  0.4535 -0.1989 -0.0136
  117OSM   H14F12269   0.088   4.166   4.713 -0.1178  0.4832 -0.1596
  117OSM   H14G12270   0.189   4.133   4.838  1.3063  0.5813  0.5346
  117OSM   C15F12271   0.209   4.331   4.724 -0.1580 -0.5504  0.7023
  117OSM   H15F12272   0.257   4.407   4.790  0.1515 -0.3514  0.2564
  117OSM   H15G12273   0.139   4.395   4.665 -0.9116 -1.4950  0.5506
  117OSM   C16F12274   0.315   4.277   4.630 -0.8857 -0.0797  0.1952
  117OSM   H16F12275   0.264   4.229   4.543 -0.5886 -0.7143  0.3700
  117OSM   H16G12276   0.373   4.199   4.683  0.1346  0.6601  0.2035
  117OSM   C17F12277   0.419   4.384   4.581  0.4039 -0.0971  0.0898
  117OSM   H17F12278   0.486   4.406   4.667 -0.3222  1.4193  0.2903
  117OSM   H17G12279   0.359   4.473   4.556  1.8294  0.0968 -3.0214
  117OSM   C18F12280   0.518   4.340   4.470  0.6937 -0.0955 -1.5097
  117OSM   H18F12281   0.466   4.292   4.384  0.3224 -2.4570 -0.0743
  117OSM   H18G12282   0.589   4.266   4.514 -2.2724 -1.4356  1.4723
  117OSM   H18H12283   0.578   4.426   4.433  0.9631 -0.6192 -2.3275
  118OSM      N12284   0.262   1.462   6.427  0.2793  0.9141 -0.0288
  118OSM    C1512285   0.363   1.508   6.521 -0.5315 -1.3271  0.6433
  118OSM   H15A12286   0.325   1.548   6.614  0.1861 -1.6461  1.0843
  118OSM   H15B12287   0.428   1.571   6.462 -0.1343 -1.3183  1.0809
  118OSM   H15C12288   0.427   1.428   6.555  0.8775 -0.3377  0.3937
  118OSM    C1412289   0.331   1.372   6.316  0.9669 -0.5109  1.1481
  118OSM   H14A12290   0.427   1.416   6.293 -0.3169  1.7486 -0.1993
  118OSM   H14B12291   0.268   1.370   6.228  1.4634  0.4952  0.7655
  118OSM   H14C12292   0.347   1.269   6.347 -0.2363 -2.0666 -2.7466
  118OSM    C1312293   0.163   1.379   6.506 -0.0546 -0.2126  0.8301
  118OSM   H13A12294   0.223   1.312   6.565 -0.9075 -1.2589  0.5413
  118OSM   H13B12295   0.101   1.312   6.448 -0.3236  1.0243 -0.3572
  118OSM   H13C12296   0.097   1.443   6.563 -0.6705  0.9144 -1.0395
  118OSM    C1212297   0.192   1.575   6.360 -0.1361  0.4470 -0.5395
  118OSM   H12A12298   0.157   1.641   6.438 -0.6450 -0.1947 -0.2059
  118OSM   H12B12299   0.099   1.536   6.320 -0.1188 -1.4395  1.0739
  118OSM    C1112300   0.270   1.666   6.256  0.0886  0.2793 -0.1190
  118OSM   H11A12301   0.204   1.739   6.202 -1.8650 -1.0203  0.3999
  118OSM   H11B12302   0.304   1.596   6.177 -0.8219  1.6339 -1.7904
  118OSM      P12303   0.369   1.878   6.383 -0.2135 -0.0173 -0.4470
  118OSM    O1312304   0.229   1.907   6.429 -0.1199 -0.0538 -0.4983
  118OSM    O1412305   0.484   1.908   6.472  0.5277  0.1960  0.7375
  118OSM    O1112306   0.380   1.973   6.256  0.0275 -0.6376 -0.8385
  118OSM    O1212307   0.378   1.731   6.325 -0.0343  1.0057  0.5086
  118OSM    C1S12308   0.498   1.945   6.177 -0.0740 -0.0788  1.3106
  118OSM    H1S12309   0.481   1.855   6.115  2.5678  1.9142 -2.7768
  118OSM    H1T12310   0.586   1.934   6.244  1.4437  2.4877 -0.0848
  118OSM     NF12311   0.633   2.035   5.982 -0.6914  0.6810 -0.0253
  118OSM    HNF12312   0.726   2.056   6.009 -0.8641 -1.5481  2.7278
  118OSM    C2S12313   0.525   2.065   6.075  0.6549  0.4521 -0.2349
  118OSM    H2S12314   0.433   2.078   6.014  0.7497  2.0342 -0.0887
  118OSM    C3S12315   0.537   2.197   6.166 -0.5549 -0.2927  0.2777
  118OSM    H3S12316   0.613   2.178   6.245  0.2730  0.9109 -0.2060
  118OSM     O312317   0.415   2.231   6.233 -0.9053  0.0238  0.2721
  118OSM    HO312318   0.362   2.151   6.239 -1.4732  0.1756 -1.8544
  118OSM    C4S12319   0.577   2.306   6.073  0.6500 -0.2224 -0.7627
  118OSM    H4S12320   0.685   2.323   6.063  0.2726  3.4594 -0.0014
  118OSM    C5S12321   0.496   2.385   6.005 -0.2395 -0.9842 -0.5953
  118OSM    H5S12322   0.390   2.360   6.014 -0.0682 -1.1273  1.9321
  118OSM    C6S12323   0.541   2.510   5.917  0.2637  0.5741 -0.1808
  118OSM    H6S12324   0.652   2.514   5.913  0.2734  1.4869  0.7079
  118OSM    H6T12325   0.513   2.612   5.951 -1.1857  0.8199 -1.9566
  118OSM    C7S12326   0.475   2.490   5.781  0.4543 -0.1414  0.2074
  118OSM    H7S12327   0.498   2.586   5.731 -0.5133 -1.0183 -2.0377
  118OSM    H7T12328   0.366   2.484   5.800  0.7128 -1.6486  1.3839
  118OSM    C8S12329   0.515   2.371   5.694 -0.5156  0.0879  0.5599
  118OSM    H8S12330   0.461   2.367   5.597  2.6250  0.3445 -1.3282
  118OSM    H8T12331   0.477   2.289   5.759 -0.5401  0.2032  0.6911
  118OSM    C9S12332   0.667   2.347   5.683  0.0885  0.4576 -0.1709
  118OSM    H9S12333   0.685   2.240   5.664 -0.6104  0.3053 -0.0149
  118OSM    H9T12334   0.725   2.363   5.776  0.7225  0.3941 -0.5529
  118OSM   C10S12335   0.728   2.437   5.570  0.5009  0.1844  0.2967
  118OSM   H10S12336   0.839   2.441   5.568  0.6618  6.4465  1.5502
  118OSM   H10T12337   0.703   2.541   5.600  1.6198 -0.1956  2.7730
  118OSM   C11S12338   0.658   2.430   5.434 -0.1594 -0.0215 -0.2721
  118OSM   H11S12339   0.552   2.461   5.438 -0.5596 -1.3810 -0.0732
  118OSM   H11T12340   0.661   2.329   5.388  3.5912 -0.0809 -0.2223
  118OSM   C12S12341   0.729   2.510   5.314  0.2564 -0.1731 -0.2920
  118OSM   H12S12342   0.829   2.464   5.298  0.3385 -0.2158  0.2903
  118OSM   H12T12343   0.735   2.618   5.339 -3.0112  0.2259 -0.7844
  118OSM   C13S12344   0.647   2.507   5.183  0.8013 -0.5709 -0.2956
  118OSM   H13S12345   0.557   2.571   5.187  0.4139 -1.1260  0.0330
  118OSM   H13T12346   0.617   2.401   5.165  0.9262 -0.4872 -1.0032
  118OSM   C14S12347   0.728   2.541   5.061 -0.5621 -0.5816  0.2590
  118OSM   H14S12348   0.828   2.494   5.061 -1.2542 -2.1824 -1.1415
  118OSM   H14T12349   0.736   2.651   5.052 -2.3281 -0.5206 -1.3690
  118OSM   C15S12350   0.677   2.487   4.921 -0.1673 -0.2858  0.8482
  118OSM   H15S12351   0.582   2.538   4.897  0.4011  0.0235 -0.9000
  118OSM   H15T12352   0.658   2.377   4.925  1.0778 -0.5746 -0.2562
  118OSM   C16S12353   0.774   2.507   4.807 -0.2556 -0.2316  0.9330
  118OSM   H16S12354   0.730   2.456   4.719 -2.4887  0.8318  1.3652
  118OSM   H16T12355   0.878   2.478   4.834 -0.3957 -0.0507  1.7004
  118OSM   C17S12356   0.796   2.654   4.750 -0.1987 -0.2958  0.1918
  118OSM   H17S12357   0.845   2.723   4.823  0.0673 -0.5649  0.2690
  118OSM   H17T12358   0.693   2.691   4.729  0.5597  0.4275 -2.5878
  118OSM   C18S12359   0.874   2.653   4.617  0.1510  0.2994 -0.2613
  118OSM   H18S12360   0.816   2.596   4.541 -0.6696 -0.0589  0.6097
  118OSM   H18T12361   0.970   2.600   4.637 -0.3968 -0.2385  1.0258
  118OSM   H18U12362   0.907   2.756   4.590 -1.4926  0.7739 -0.5556
  118OSM    C1F12363   0.600   1.961   5.872 -0.4590 -0.1958  0.5093
  118OSM     OF12364   0.486   1.916   5.857 -0.1602 -0.4839 -0.1336
  118OSM    C2F12365   0.713   1.950   5.769  0.2690 -0.5342  0.0912
  118OSM    H2F12366   0.798   1.882   5.793  0.4959 -0.1723  0.3238
  118OSM    H2G12367   0.741   2.055   5.746 -2.5294  0.9148  2.6390
  118OSM    C3F12368   0.661   1.896   5.633  0.4625 -0.1848 -0.6605
  118OSM    H3F12369   0.566   1.943   5.601 -1.0616 -1.4036  1.7192
  118OSM    H3G12370   0.626   1.791   5.645  0.3917  0.0443  1.7523
  118OSM    C4F12371   0.767   1.913   5.526 -0.7329 -0.3268 -0.3756
  118OSM    H4F12372   0.770   1.828   5.455  0.0040  0.5047 -1.3606
  118OSM    H4G12373   0.871   1.929   5.562 -1.3549  2.4057  0.4801
  118OSM    C5F12374   0.740   2.038   5.434  0.9925  0.4098 -0.1101
  118OSM    H5F12375   0.769   2.132   5.484  0.5862  0.1914  0.5417
  118OSM    H5G12376   0.636   2.037   5.396  0.6841  1.2683  0.6949
  118OSM    C6F12377   0.820   2.030   5.301 -0.6759 -0.4971 -0.3859
  118OSM    H6F12378   0.777   2.114   5.242  1.1419 -1.0375 -2.6211
  118OSM    H6G12379   0.789   1.942   5.241 -2.2541  0.4148 -0.9822
  118OSM    C7F12380   0.970   2.059   5.316 -0.9165 -0.1105  0.2528
  118OSM    H7F12381   1.037   1.978   5.280 -2.6450 -0.5189 -2.3759
  118OSM    H7G12382   1.012   2.069   5.418  1.2137 -0.3726 -0.5509
  118OSM    C8F12383   1.010   2.188   5.235 -0.5105 -0.2234  0.0862
  118OSM    H8F12384   1.113   2.210   5.272 -0.5955 -2.9273  2.2390
  118OSM    H8G12385   0.950   2.278   5.260  0.5652  0.8776 -1.1157
  118OSM    C9F12386   1.000   2.155   5.089 -0.3550 -0.6627 -0.3935
  118OSM    H9F12387   0.899   2.128   5.057 -1.4459  1.1282  1.3132
  118OSM   C10F12388   1.097   2.147   4.996 -0.3374 -0.1377  1.0067
  118OSM   H10F12389   1.071   2.129   4.891  2.3320  0.0051  0.2391
  118OSM   C11F12390   1.251   2.164   5.025  0.1906 -0.5099  0.3255
  118OSM   H11F12391   1.310   2.097   4.960 -1.4993 -2.0776  0.3298
  118OSM   H11G12392   1.291   2.146   5.127  2.7517 -1.7756 -0.8203
  118OSM   C12F12393   1.295   2.302   4.974 -0.4594 -0.2403 -0.5684
  118OSM   H12F12394   1.405   2.312   4.971 -0.4645  0.4686  0.8200
  118OSM   H12G12395   1.263   2.376   5.051 -0.2387  0.3174 -1.0088
  118OSM   C13F12396   1.246   2.337   4.830 -0.0575 -0.0856 -0.2524
  118OSM   H13F12397   1.285   2.440   4.815  0.3316 -0.1330  0.3768
  118OSM   H13G12398   1.135   2.335   4.829 -0.1594  2.3854  0.3547
  118OSM   C14F12399   1.289   2.260   4.710  0.4255 -0.0147 -0.4951
  118OSM   H14F12400   1.220   2.174   4.697  0.9258 -0.4137 -0.5319
  118OSM   H14G12401   1.395   2.230   4.727  1.1149  1.9592 -1.0347
  118OSM   C15F12402   1.307   2.346   4.580  0.1087  0.2134  0.0823
  118OSM   H15F12403   1.378   2.424   4.615 -0.2012  0.1445  0.8974
  118OSM   H15G12404   1.212   2.400   4.561  1.1851  1.6664 -1.3716
  118OSM   C16F12405   1.321   2.263   4.455 -0.3292  0.7765  0.4083
  118OSM   H16F12406   1.256   2.173   4.456 -0.2377  0.7067  1.9113
  118OSM   H16G12407   1.423   2.227   4.431 -0.6763  0.4461 -0.6343
  118OSM   C17F12408   1.284   2.353   4.334  0.0328  0.0294 -0.3767
  118OSM   H17F12409   1.325   2.456   4.344  1.3702 -0.3112 -1.8871
  118OSM   H17G12410   1.173   2.350   4.333  0.0412 -2.7930 -0.2556
  118OSM   C18F12411   1.340   2.292   4.197  0.1990  0.2395 -0.2152
  118OSM   H18F12412   1.448   2.312   4.187 -0.0425  1.9482  0.2834
  118OSM   H18G12413   1.302   2.343   4.106 -0.8897 -0.5112 -0.2102
  118OSM   H18H12414   1.303   2.188   4.184 -0.1192  0.0341  1.9567
  119OSM      N12415   4.189   4.431   6.723  0.2533 -1.1621  0.0303
  119OSM    C1512416   4.185   4.286   6.724 -0.8209 -0.0520 -0.0756
  119OSM   H15A12417   4.093   4.248   6.681 -0.3930 -0.6617 -0.4730
  119OSM   H15B12418   4.183   4.246   6.824 -1.4055 -1.9652 -0.7932
  119OSM   H15C12419   4.271   4.232   6.687 -1.7767 -1.2760 -0.5800
  119OSM    C1412420   4.074   4.485   6.808  0.4282  0.2945 -0.3789
  119OSM   H14A12421   3.980   4.452   6.768  0.3748  2.0273 -1.8022
  119OSM   H14B12422   4.078   4.592   6.816  0.1712  0.1909  1.8721
  119OSM   H14C12423   4.078   4.443   6.908 -0.0253  1.9012  0.3357
  119OSM    C1312424   4.315   4.465   6.798  0.2613 -0.3922 -0.3927
  119OSM   H13A12425   4.301   4.440   6.902 -0.9096 -0.0560 -0.4581
  119OSM   H13B12426   4.327   4.573   6.792 -2.2081  0.0348  0.8751
  119OSM   H13C12427   4.398   4.414   6.753 -0.6960 -2.1594 -0.2383
  119OSM    C1212428   4.181   4.492   6.584  0.1162  0.4462  0.0034
  119OSM   H12A12429   4.094   4.455   6.532 -0.4238 -1.3527  2.0301
  119OSM   H12B12430   4.278   4.476   6.539  0.7322  2.1107  0.6411
  119OSM    C1112431   4.186   4.648   6.582  0.1889  0.1633 -0.4362
  119OSM   H11A12432   4.193   4.681   6.476  1.6463  1.5388  0.0628
  119OSM   H11B12433   4.276   4.680   6.637 -0.3514 -0.6588  0.9712
  119OSM      P12434   3.940   4.739   6.554  0.7729  0.1757  0.4257
  119OSM    O1312435   3.821   4.727   6.640  0.0651  0.1930 -0.3468
  119OSM    O1412436   3.956   4.867   6.486  0.0171 -0.1818 -0.5670
  119OSM    O1112437   3.945   4.620   6.451 -0.0432  0.0355  0.2519
  119OSM    O1212438   4.073   4.708   6.643  0.0695  0.7397  0.6109
  119OSM    C1S12439   3.838   4.615   6.352  0.6110 -0.1813  0.5869
  119OSM    H1S12440   3.766   4.699   6.362  2.1698  1.6804 -2.2557
  119OSM    H1T12441   3.789   4.516   6.360 -2.2743  0.9169 -1.7380
  119OSM     NF12442   3.793   4.673   6.100 -0.3568 -1.2811 -0.7044
  119OSM    HNF12443   3.738   4.601   6.059 -3.0969  0.1016  0.3086
  119OSM    C2S12444   3.892   4.624   6.203 -0.2807  0.5690 -0.3473
  119OSM    H2S12445   3.978   4.694   6.217  0.2519 -0.1460  0.0144
  119OSM    C3S12446   3.950   4.479   6.164  0.2635 -0.6244 -0.1099
  119OSM    H3S12447   3.873   4.401   6.177  1.8253 -1.8741  2.3915
  119OSM     O312448   4.054   4.450   6.254 -0.2017  0.1574 -0.4735
  119OSM    HO312449   4.067   4.530   6.306 -1.3134  1.6818 -2.3885
  119OSM    C4S12450   4.006   4.477   6.030 -0.2284 -0.1982 -0.3852
  119OSM    H4S12451   4.072   4.564   6.014  0.3737 -0.5075  0.3056
  119OSM    C5S12452   4.005   4.376   5.939  0.1304 -0.1625 -0.3891
  119OSM    H5S12453   3.945   4.290   5.972  1.9347 -1.2469  0.1570
  119OSM    C6S12454   4.068   4.384   5.802  0.2896 -0.2743  0.5745
  119OSM    H6S12455   3.989   4.397   5.725 -2.9522  2.8334  3.9872
  119OSM    H6T12456   4.127   4.293   5.778  1.1635  0.3926  0.1478
  119OSM    C7S12457   4.177   4.489   5.772  0.4171 -0.0730 -0.1845
  119OSM    H7S12458   4.259   4.479   5.846 -0.1244  1.0853  0.5987
  119OSM    H7T12459   4.127   4.587   5.781 -0.4718 -0.4925 -0.4408
  119OSM    C8S12460   4.236   4.474   5.634  0.0193  0.1985 -0.9779
  119OSM    H8S12461   4.264   4.368   5.612 -0.7257 -0.0967 -0.5468
  119OSM    H8T12462   4.312   4.554   5.619 -1.1736  1.5665  0.0444
  119OSM    C9S12463   4.126   4.495   5.522 -0.4423 -0.1517 -0.3898
  119OSM    H9S12464   4.049   4.565   5.559  0.9694  0.9201  0.6535
  119OSM    H9T12465   4.054   4.411   5.512 -1.1442  0.5547 -1.4987
  119OSM   C10S12466   4.182   4.541   5.387 -0.2257 -0.2701 -0.7224
  119OSM   H10S12467   4.238   4.460   5.336 -3.2282 -2.7334 -0.4211
  119OSM   H10T12468   4.262   4.615   5.407 -1.9417  0.8730  2.7603
  119OSM   C11S12469   4.081   4.587   5.287 -0.4018 -0.3436 -0.8172
  119OSM   H11S12470   4.018   4.667   5.331 -2.6639 -2.9465  0.9809
  119OSM   H11T12471   4.009   4.507   5.262 -1.8846  0.7032 -0.0040
  119OSM   C12S12472   4.141   4.647   5.158 -0.1034  0.3258 -0.9282
  119OSM   H12S12473   4.206   4.575   5.104  1.3472 -0.4883  1.7351
  119OSM   H12T12474   4.216   4.723   5.191  0.2565 -1.0217  1.6377
  119OSM   C13S12475   4.041   4.711   5.065 -1.0360  0.1783 -0.7494
  119OSM   H13S12476   3.971   4.769   5.128 -0.5636 -0.5237  0.4546
  119OSM   H13T12477   3.992   4.626   5.013 -0.1124 -0.4826 -0.5560
  119OSM   C14S12478   4.120   4.795   4.968  0.7979  0.0506 -0.0523
  119OSM   H14S12479   4.199   4.736   4.917 -1.5569 -2.4863 -1.0487
  119OSM   H14T12480   4.173   4.865   5.036  2.8775 -1.4532 -0.0423
  119OSM   C15S12481   4.027   4.871   4.870  0.2974 -0.6160 -0.2740
  119OSM   H15S12482   3.951   4.943   4.907 -1.5115 -1.8124 -1.5448
  119OSM   H15T12483   3.970   4.798   4.809 -1.0628  0.9157 -0.9026
  119OSM   C16S12484   4.114   4.953   4.763  0.2686  0.0116  0.0711
  119OSM   H16S12485   4.147   4.891   4.677 -1.0336  3.8871 -3.5591
  119OSM   H16T12486   4.210   4.985   4.809  1.2727 -3.1219  0.4325
  119OSM   C17S12487   4.031   5.062   4.696  0.4593  0.2115  0.1938
  119OSM   H17S12488   3.975   5.119   4.774 -3.8437  0.0513 -2.4644
  119OSM   H17T12489   3.945   5.026   4.635 -0.9287  0.1827  2.0537
  119OSM   C18S12490   4.115   5.158   4.608 -0.4357  0.0088  0.2858
  119OSM   H18S12491   4.217   5.155   4.651 -0.4718  1.9926  0.6055
  119OSM   H18T12492   4.077   5.262   4.615  0.3249  0.3244 -0.1440
  119OSM   H18U12493   4.113   5.116   4.505 -2.3635 -2.0992  1.1018
  119OSM    C1F12494   3.750   4.801   6.104 -0.4242  0.0787  0.6669
  119OSM     OF12495   3.782   4.877   6.199 -0.0694  0.5481 -0.2855
  119OSM    C2F12496   3.651   4.846   6.005  1.2557  0.4092  0.1285
  119OSM    H2F12497   3.548   4.821   6.038  0.9303 -0.6185 -1.5541
  119OSM    H2G12498   3.659   4.802   5.903 -2.5082 -0.8769  0.2269
  119OSM    C3F12499   3.649   4.998   5.982 -0.2623 -0.5496  0.2732
  119OSM    H3F12500   3.746   5.053   5.981  1.1854 -2.8199  2.4210
  119OSM    H3G12501   3.595   5.043   6.067 -2.4622 -1.8200 -0.3764
  119OSM    C4F12502   3.578   5.047   5.850  0.2214 -0.3021 -0.6238
  119OSM    H4F12503   3.480   4.994   5.848 -1.0820  1.9276  0.1426
  119OSM    H4G12504   3.624   5.008   5.757  1.2229  0.8071 -0.6184
  119OSM    C5F12505   3.548   5.197   5.845  0.3458  0.1335 -0.3891
  119OSM    H5F12506   3.641   5.242   5.886 -0.0746  1.8999 -1.2690
  119OSM    H5G12507   3.476   5.226   5.925  0.4435 -2.5094  0.7556
  119OSM    C6F12508   3.516   5.251   5.711  0.3836  0.0395  0.1820
  119OSM    H6F12509   3.506   5.361   5.719  4.2046  0.6420 -1.0487
  119OSM    H6G12510   3.417   5.209   5.684  0.5937 -0.2324 -0.1704
  119OSM    C7F12511   3.622   5.208   5.603  0.4313  0.4568 -0.7118
  119OSM    H7F12512   3.611   5.098   5.591  2.6034  0.2197 -0.9152
  119OSM    H7G12513   3.726   5.236   5.631  0.2760 -0.3305  0.7258
  119OSM    C8F12514   3.588   5.286   5.474 -0.6482  0.3190 -0.0430
  119OSM    H8F12515   3.670   5.258   5.405 -0.4291 -1.0082  0.7163
  119OSM    H8G12516   3.615   5.392   5.491  2.1827 -0.5930  1.9281
  119OSM    C9F12517   3.446   5.277   5.424 -0.0539  0.0919  0.2118
  119OSM    H9F12518   3.379   5.323   5.498  1.7167 -1.5296  3.0408
  119OSM   C10F12519   3.411   5.218   5.312 -0.2411  0.2678  0.3410
  119OSM   H10F12520   3.305   5.219   5.284 -0.2554 -1.4908  0.2418
  119OSM   C11F12521   3.500   5.131   5.221  0.5339  0.1794 -0.1900
  119OSM   H11F12522   3.449   5.034   5.200  0.0571  0.2007  0.7879
  119OSM   H11G12523   3.585   5.083   5.274 -0.4067 -1.4518 -0.0649
  119OSM   C12F12524   3.567   5.180   5.097  0.1196  0.1936  0.0816
  119OSM   H12F12525   3.648   5.110   5.068  0.5842 -0.2083  2.1768
  119OSM   H12G12526   3.615   5.277   5.121  0.4911  0.2032 -0.6868
  119OSM   C13F12527   3.495   5.204   4.962 -0.2821 -0.4480 -0.3434
  119OSM   H13F12528   3.433   5.295   4.976  0.6689  0.1588 -0.0009
  119OSM   H13G12529   3.421   5.122   4.945  0.1419 -1.0537  0.6766
  119OSM   C14F12530   3.598   5.226   4.846  0.0428  0.5385 -0.2965
  119OSM   H14F12531   3.653   5.129   4.847  1.6188  1.4008  0.5079
  119OSM   H14G12532   3.672   5.304   4.874  1.1228 -1.2008  2.0147
  119OSM   C15F12533   3.525   5.250   4.708  0.9576 -1.0479  0.4197
  119OSM   H15F12534   3.470   5.345   4.727 -1.9852 -2.4497 -0.5154
  119OSM   H15G12535   3.446   5.176   4.683  0.4738 -0.3532 -0.1814
  119OSM   C16F12536   3.621   5.259   4.587 -0.6674 -0.5661 -0.5366
  119OSM   H16F12537   3.573   5.282   4.490  1.9592  1.3403 -1.5035
  119OSM   H16G12538   3.664   5.156   4.584  0.7934  0.0409 -1.7775
  119OSM   C17F12539   3.742   5.354   4.610  0.8415 -0.0576  0.1878
  119OSM   H17F12540   3.818   5.333   4.689 -0.2841  0.3466  1.4044
  119OSM   H17G12541   3.696   5.448   4.646  1.8915 -0.0865  1.7015
  119OSM   C18F12542   3.811   5.385   4.476  0.0825  0.2033 -0.4091
  119OSM   H18F12543   3.866   5.291   4.453  1.6021  1.1642 -0.8813
  119OSM   H18G12544   3.869   5.479   4.490 -0.7037  0.9479 -1.9111
  119OSM   H18H12545   3.737   5.402   4.395 -1.4079  0.5167  0.9664
  120OSM      N12546   5.245   5.417   6.258 -0.4803  0.2048 -0.2161
  120OSM    C1512547   5.334   5.530   6.320  0.3698  0.0664  0.6840
  120OSM   H15A12548   5.427   5.546   6.268  1.0820 -1.7054  1.2963
  120OSM   H15B12549   5.373   5.498   6.416 -1.4332 -1.1882  1.0545
  120OSM   H15C12550   5.283   5.622   6.343  0.6964  1.2818 -2.9109
  120OSM    C1412551   5.125   5.394   6.347 -0.4396 -0.2882 -0.2399
  120OSM   H14A12552   5.091   5.488   6.387 -0.1045 -0.6517  0.9310
  120OSM   H14B12553   5.154   5.319   6.419  0.7259  1.6772  1.4518
  120OSM   H14C12554   5.041   5.351   6.295 -0.8089  0.3308 -0.1575
  120OSM    C1312555   5.193   5.472   6.134  0.2213  0.4264 -0.8663
  120OSM   H13A12556   5.124   5.548   6.168 -3.2504 -2.3414 -1.1517
  120OSM   H13B12557   5.141   5.391   6.085  0.3684  0.3483 -0.8938
  120OSM   H13C12558   5.273   5.515   6.075  1.1335  1.1436  0.8094
  120OSM    C1212559   5.335   5.291   6.231 -0.4725  0.2091 -0.0314
  120OSM   H12A12560   5.428   5.317   6.184  0.2219  0.0773  1.2306
  120OSM   H12B12561   5.285   5.221   6.165 -1.0465  0.3206  0.2778
  120OSM    C1112562   5.376   5.212   6.355 -0.9494  0.2223  0.7203
  120OSM   H11A12563   5.430   5.279   6.427  1.6060 -0.0073 -0.8423
  120OSM   H11B12564   5.451   5.133   6.333  0.3135  1.2718  1.0998
  120OSM      P12565   5.187   5.032   6.351  0.2095  0.2241  0.3670
  120OSM    O1312566   5.266   4.910   6.376 -0.0493 -0.2134 -0.1842
  120OSM    O1412567   5.050   5.026   6.405  0.0447  0.5547  0.0041
  120OSM    O1112568   5.171   5.056   6.191 -0.4712  0.0608 -0.5266
  120OSM    O1212569   5.260   5.155   6.421 -0.4856  0.3028 -0.3737
  120OSM    C1S12570   5.198   4.954   6.095 -0.3894 -0.3804 -0.1630
  120OSM    H1S12571   5.158   4.855   6.127  0.7578 -0.2195  1.9900
  120OSM    H1T12572   5.307   4.930   6.099 -0.3513 -0.3078 -0.7834
  120OSM     NF12573   5.185   4.883   5.874  0.6581  0.3373 -0.0373
  120OSM    HNF12574   5.266   4.901   5.817  0.7818 -2.1468 -0.7585
  120OSM    C2S12575   5.138   4.984   5.957 -0.2450 -0.0961 -0.0283
  120OSM    H2S12576   5.029   4.974   5.973 -0.3762  0.6266 -0.4160
  120OSM    C3S12577   5.172   5.128   5.924 -0.4943 -0.2300  0.8707
  120OSM    H3S12578   5.280   5.151   5.938 -0.7314  0.5516  1.4421
  120OSM     O312579   5.107   5.232   5.989 -0.1333 -0.1521  0.5739
  120OSM    HO312580   5.067   5.189   6.065 -1.8186  2.2614  1.1663
  120OSM    C4S12581   5.150   5.146   5.777  0.0768  0.1122  0.5742
  120OSM    H4S12582   5.051   5.110   5.747 -0.0872  0.3560  0.8209
  120OSM    C5S12583   5.219   5.225   5.689  0.3679 -0.4683  0.9809
  120OSM    H5S12584   5.301   5.292   5.716  0.9250 -1.2484  1.2600
  120OSM    C6S12585   5.184   5.257   5.547 -0.0013 -0.1052  0.9683
  120OSM    H6S12586   5.182   5.367   5.538 -1.1600 -0.1687  0.1923
  120OSM    H6T12587   5.085   5.215   5.517 -0.4147 -0.1554  2.3269
  120OSM    C7S12588   5.281   5.204   5.437 -0.1087 -0.6008 -0.6751
  120OSM    H7S12589   5.284   5.093   5.434  0.5915 -0.5837 -0.8212
  120OSM    H7T12590   5.387   5.224   5.462 -0.5134  0.6878  0.1070
  120OSM    C8S12591   5.251   5.260   5.296  0.1840  0.5628 -0.2923
  120OSM    H8S12592   5.253   5.371   5.289  0.9481  0.4739 -1.6562
  120OSM    H8T12593   5.148   5.229   5.269 -0.3712  0.4225  1.8021
  120OSM    C9S12594   5.354   5.219   5.191  0.3918 -0.2448 -0.1954
  120OSM    H9S12595   5.344   5.109   5.179 -0.1190 -0.2494  0.1951
  120OSM    H9T12596   5.456   5.237   5.231  0.4133 -0.8855  0.0394
  120OSM   C10S12597   5.315   5.288   5.054  0.6608 -0.1177  0.1807
  120OSM   H10S12598   5.315   5.397   5.075  2.9959 -0.1217  0.4070
  120OSM   H10T12599   5.220   5.244   5.015  0.5979  1.4055 -1.5023
  120OSM   C11S12600   5.435   5.266   4.958 -0.9606  0.9585 -1.0340
  120OSM   H11S12601   5.454   5.157   4.958  1.1189  1.2404  1.4119
  120OSM   H11T12602   5.527   5.311   5.001 -0.4800  0.9395 -2.0186
  120OSM   C12S12603   5.417   5.322   4.815  0.4746 -0.1397  0.2417
  120OSM   H12S12604   5.428   5.433   4.817 -1.7904  0.1126  0.7033
  120OSM   H12T12605   5.320   5.286   4.775 -0.1563  1.3798  0.3397
  120OSM   C13S12606   5.532   5.273   4.725  0.5938  0.1703  0.9371
  120OSM   H13S12607   5.529   5.162   4.717 -1.1447  0.1320  1.7373
  120OSM   H13T12608   5.625   5.299   4.780  0.4081  0.3736  1.1578
  120OSM   C14S12609   5.546   5.323   4.583  0.3296 -0.1480  0.2836
  120OSM   H14S12610   5.530   5.433   4.594 -0.5794 -0.3697  1.4471
  120OSM   H14T12611   5.461   5.283   4.523 -1.7877  1.0262  2.3175
  120OSM   C15S12612   5.666   5.288   4.498 -0.3776  0.2377  0.3242
  120OSM   H15S12613   5.749   5.323   4.562 -1.0720 -0.9063  1.9106
  120OSM   H15T12614   5.667   5.356   4.410 -0.1345 -1.7217 -1.2652
  120OSM   C16S12615   5.685   5.140   4.472 -0.1329 -0.0044 -0.1210
  120OSM   H16S12616   5.598   5.098   4.417  1.6496 -4.0055 -0.1882
  120OSM   H16T12617   5.692   5.080   4.565  0.6946  1.4127  0.7705
  120OSM   C17S12618   5.804   5.108   4.380  0.8287 -0.6002 -0.0398
  120OSM   H17S12619   5.821   4.999   4.384 -1.3988 -0.9601  0.5937
  120OSM   H17T12620   5.897   5.162   4.410  1.1681 -0.1553 -1.7755
  120OSM   C18S12621   5.793   5.148   4.232 -0.5578  0.5842 -0.4575
  120OSM   H18S12622   5.711   5.094   4.179  0.1642 -0.8742 -0.1540
  120OSM   H18T12623   5.879   5.103   4.178 -0.0104 -0.4570  1.2078
  120OSM   H18U12624   5.795   5.258   4.218  1.9749  0.5371 -1.0157
  120OSM    C1F12625   5.139   4.758   5.884 -0.7318 -0.6392 -0.1500
  120OSM     OF12626   5.029   4.724   5.929  0.1177 -0.3071  0.0411
  120OSM    C2F12627   5.232   4.657   5.823  0.1252 -0.8032 -0.7802
  120OSM    H2F12628   5.281   4.603   5.908  0.5912  2.2659  1.0340
  120OSM    H2G12629   5.324   4.703   5.780  0.9366 -2.1293 -0.5351
  120OSM    C3F12630   5.161   4.574   5.721  0.0753 -0.6029  0.1189
  120OSM    H3F12631   5.083   4.514   5.774 -0.2384 -1.0062 -0.7834
  120OSM    H3G12632   5.235   4.504   5.677 -0.5759 -0.6824 -0.8640
  120OSM    C4F12633   5.094   4.665   5.615 -0.6999 -0.0144 -0.1960
  120OSM    H4F12634   5.011   4.726   5.656 -0.5172 -0.1562  0.3865
  120OSM    H4G12635   5.045   4.595   5.543 -1.3441 -0.4370  0.6314
  120OSM    C5F12636   5.184   4.773   5.548 -0.0155  0.2394  0.1228
  120OSM    H5F12637   5.276   4.716   5.522 -0.1178  0.4157 -0.6377
  120OSM    H5G12638   5.215   4.860   5.610  0.8963  1.2270 -1.6284
  120OSM    C6F12639   5.110   4.841   5.433  0.3802  0.5089  0.3706
  120OSM    H6F12640   5.152   4.941   5.410  1.6032 -0.2554 -0.8986
  120OSM    H6G12641   5.008   4.867   5.466  0.3753  0.7365  0.1810
  120OSM    C7F12642   5.119   4.758   5.299  0.1510  0.1384 -0.2234
  120OSM    H7F12643   5.092   4.657   5.334  0.9416  0.2597  0.7862
  120OSM    H7G12644   5.229   4.770   5.286  0.2616 -0.6470 -0.0669
  120OSM    C8F12645   5.043   4.819   5.181 -0.5054 -0.7632  0.4048
  120OSM    H8F12646   5.070   4.926   5.171 -3.0470 -0.1512 -1.0740
  120OSM    H8G12647   4.933   4.833   5.192 -0.0727  1.1251  3.2604
  120OSM    C9F12648   5.084   4.728   5.066  0.3156  0.3557 -0.4299
  120OSM    H9F12649   5.056   4.623   5.086 -0.6388  0.4888 -1.0119
  120OSM   C10F12650   5.161   4.768   4.960 -0.2029 -0.4410 -0.6393
  120OSM   H10F12651   5.180   4.692   4.883 -0.8143  1.3867 -2.7061
  120OSM   C11F12652   5.226   4.897   4.926  0.1234  0.0271  0.6851
  120OSM   H11F12653   5.336   4.885   4.933  0.0227 -1.1807  0.4000
  120OSM   H11G12654   5.187   4.961   5.008  0.6336  1.6110 -0.2601
  120OSM   C12F12655   5.168   4.961   4.805 -0.8539 -0.9924 -0.3393
  120OSM   H12F12656   5.194   5.069   4.813 -3.0062 -0.4137 -0.6998
  120OSM   H12G12657   5.058   4.952   4.796 -0.9354  0.0450 -0.4169
  120OSM   C13F12658   5.225   4.907   4.678 -0.4749  0.6847  0.0557
  120OSM   H13F12659   5.165   4.821   4.643 -0.2517 -0.1544  1.6217
  120OSM   H13G12660   5.329   4.870   4.693 -0.0161  0.9531 -2.1332
  120OSM   C14F12661   5.239   5.000   4.562 -0.1480  0.3366  0.2226
  120OSM   H14F12662   5.290   5.095   4.587  2.0221 -0.2645 -1.6084
  120OSM   H14G12663   5.141   5.009   4.510  0.3034 -0.4687 -0.8177
  120OSM   C15F12664   5.336   4.944   4.452  0.5722  0.4544 -0.2737
  120OSM   H15F12665   5.312   4.845   4.409  1.9859 -1.7048  3.4646
  120OSM   H15G12666   5.438   4.928   4.494  0.9062 -2.6452 -2.0078
  120OSM   C16F12667   5.329   5.041   4.332 -0.4917 -0.5981 -0.3561
  120OSM   H16F12668   5.361   5.142   4.365 -1.2685 -0.5495  0.2992
  120OSM   H16G12669   5.228   5.046   4.285 -0.2821 -0.6368 -0.8131
  120OSM   C17F12670   5.423   4.999   4.216 -0.3218  0.1450 -0.1674
  120OSM   H17F12671   5.512   4.953   4.265 -1.3534 -0.7720  0.9385
  120OSM   H17G12672   5.452   5.085   4.153  0.2993  0.0166 -0.0640
  120OSM   C18F12673   5.370   4.884   4.134 -0.0567 -0.0205 -0.2083
  120OSM   H18F12674   5.321   4.804   4.192  1.6595 -0.5481  0.5867
  120OSM   H18G12675   5.447   4.843   4.065  1.4201  0.2411  1.2076
  120OSM   H18H12676   5.284   4.916   4.071 -0.4041 -0.7243 -0.0987
  121OSM      N12677   0.146   0.167   6.256  0.4615 -0.7729  0.9469
  121OSM    C1512678   0.293   0.200   6.260  0.5137 -0.8967 -0.2688
  121OSM   H15A12679   0.320   0.266   6.180 -0.3851  0.1896  0.2907
  121OSM   H15B12680   0.354   0.114   6.235  1.3866 -0.7190  1.1517
  121OSM   H15C12681   0.315   0.252   6.352  1.7906 -1.0021 -0.5044
  121OSM    C1412682   0.068   0.296   6.268 -0.0705 -0.0745 -0.9784
  121OSM   H14A12683   0.102   0.336   6.363 -0.7880 -2.6414  0.4466
  121OSM   H14B12684  -0.039   0.290   6.252 -0.1901  1.9774 -1.1817
  121OSM   H14C12685   0.104   0.365   6.194  1.2520 -1.2930 -1.5195
  121OSM    C1312686   0.122   0.119   6.119  0.8076 -0.3387 -0.0556
  121OSM   H13A12687   0.153   0.015   6.116  1.6559 -0.1088  0.3809
  121OSM   H13B12688   0.160   0.179   6.037 -0.4649 -1.2894 -1.3928
  121OSM   H13C12689   0.015   0.111   6.107  0.7239 -1.3031  1.0887
  121OSM    C1212690   0.081   0.067   6.358 -0.4846 -0.3800  0.7661
  121OSM   H12A12691   0.095   0.118   6.452 -0.4539  1.9403 -0.4270
  121OSM   H12B12692   0.134  -0.027   6.362  1.5549  0.7304  2.1472
  121OSM    C1112693  -0.066   0.030   6.339  0.1051  0.1739  0.1367
  121OSM   H11A12694  -0.131   0.119   6.350  1.5079  1.1936  0.4696
  121OSM   H11B12695  -0.093  -0.033   6.426  2.9695  0.2140  1.1654
  121OSM      P12696  -0.063  -0.181   6.189 -0.0716  0.1934 -0.1448
  121OSM    O1312697   0.057  -0.200   6.102 -0.3284  0.1761  0.4816
  121OSM    O1412698  -0.061  -0.251   6.319  0.3980  0.2480  0.6255
  121OSM    O1112699  -0.192  -0.238   6.116  0.6247  0.0742 -0.6668
  121OSM    O1212700  -0.096  -0.030   6.210 -0.0458 -0.1009  0.1658
  121OSM    C1S12701  -0.262  -0.158   6.017  0.1452 -0.0181  0.5161
  121OSM    H1S12702  -0.277  -0.050   6.042 -2.5951 -0.5053  1.3334
  121OSM    H1T12703  -0.361  -0.203   5.995  0.0546  0.3627  0.1292
  121OSM     NF12704  -0.246  -0.037   5.789 -0.0536  0.0605  0.0427
  121OSM    HNF12705  -0.326  -0.061   5.734 -1.1046 -0.9067  1.9067
  121OSM    C2S12706  -0.191  -0.140   5.881  0.5592  0.6900 -0.2994
  121OSM    H2S12707  -0.088  -0.106   5.902  0.3261  0.9313  0.4757
  121OSM    C3S12708  -0.175  -0.275   5.813 -0.1915  0.7529 -0.1305
  121OSM    H3S12709  -0.279  -0.306   5.787  1.3804 -2.7678 -3.0223
  121OSM     O312710  -0.122  -0.383   5.894 -0.5230 -0.7896 -0.0094
  121OSM    HO312711  -0.124  -0.337   5.979 -1.9526  0.0072 -0.4324
  121OSM    C4S12712  -0.107  -0.264   5.676  0.4809  0.6414  0.2484
  121OSM    H4S12713  -0.045  -0.174   5.662 -0.5003  1.0485 -1.8526
  121OSM    C5S12714  -0.133  -0.343   5.579 -0.1893  0.0374  0.0640
  121OSM    H5S12715  -0.206  -0.425   5.587 -0.7182  0.3923 -0.9729
  121OSM    C6S12716  -0.080  -0.348   5.438  0.4034 -0.8808 -0.2048
  121OSM    H6S12717  -0.150  -0.339   5.352 -2.2053 -0.0929  1.8975
  121OSM    H6T12718  -0.019  -0.441   5.431  1.3420 -0.3061  0.0852
  121OSM    C7S12719   0.022  -0.240   5.421 -0.4931  0.2373 -0.2568
  121OSM    H7S12720   0.114  -0.254   5.482 -0.8874  0.1815  0.3450
  121OSM    H7T12721  -0.017  -0.138   5.443 -2.0426  0.2715 -2.7797
  121OSM    C8S12722   0.058  -0.208   5.272 -0.7502  0.6493 -0.7427
  121OSM    H8S12723   0.072  -0.302   5.215 -2.7581  1.4358 -2.6846
  121OSM    H8T12724   0.153  -0.150   5.270  0.2015 -0.6924  1.8435
  121OSM    C9S12725  -0.056  -0.116   5.218  0.1439  0.2308 -0.4586
  121OSM    H9S12726  -0.069  -0.031   5.289 -2.2210  1.1772 -1.8974
  121OSM    H9T12727  -0.149  -0.177   5.217  0.9150 -0.9668 -0.7812
  121OSM   C10S12728  -0.038  -0.065   5.075  0.3526 -0.0008 -0.6157
  121OSM   H10S12729   0.040   0.014   5.068 -1.0869  1.4062 -1.4299
  121OSM   H10T12730  -0.135  -0.013   5.062 -0.4984 -1.3963 -0.0173
  121OSM   C11S12731  -0.015  -0.164   4.963  0.1353  0.2457 -0.9437
  121OSM   H11S12732   0.061  -0.239   4.995 -1.9148 -0.0573  4.2166
  121OSM   H11T12733   0.024  -0.100   4.881  0.3099  0.0634 -1.0029
  121OSM   C12S12734  -0.147  -0.239   4.918 -0.3601 -0.0370 -0.1253
  121OSM   H12S12735  -0.227  -0.164   4.902 -0.8381 -0.2685  1.0606
  121OSM   H12T12736  -0.174  -0.310   4.999 -0.4298 -1.4250 -1.3185
  121OSM   C13S12737  -0.142  -0.322   4.789 -0.0671 -0.1916 -0.4524
  121OSM   H13S12738  -0.062  -0.397   4.807  1.9634  0.7770 -4.1863
  121OSM   H13T12739  -0.105  -0.259   4.705  0.8105 -2.0144 -1.4936
  121OSM   C14S12740  -0.267  -0.398   4.742  0.7105  0.8084 -0.5904
  121OSM   H14S12741  -0.351  -0.325   4.740  0.0781  0.1909  1.2404
  121OSM   H14T12742  -0.295  -0.486   4.804  0.9340  1.2707  0.1717
  121OSM   C15S12743  -0.259  -0.447   4.600  0.3361  0.4933  0.5169
  121OSM   H15S12744  -0.189  -0.532   4.589 -1.3608 -0.7977 -0.9336
  121OSM   H15T12745  -0.216  -0.353   4.560 -1.7390  1.8035  1.1988
  121OSM   C16S12746  -0.397  -0.467   4.540  0.1085 -0.1891  0.0037
  121OSM   H16S12747  -0.480  -0.483   4.612 -1.3239  0.7525 -1.3732
  121OSM   H16T12748  -0.379  -0.550   4.468 -0.5222  0.7698 -1.3174
  121OSM   C17S12749  -0.442  -0.354   4.450 -0.5930  0.3789 -0.2657
  121OSM   H17S12750  -0.353  -0.337   4.387  1.6411 -0.8481  2.3305
  121OSM   H17T12751  -0.444  -0.257   4.506  0.2737  0.9778 -1.2508
  121OSM   C18S12752  -0.561  -0.384   4.370  0.3181  0.5338  0.3550
  121OSM   H18S12753  -0.594  -0.320   4.285 -0.5533 -0.0103  0.2739
  121OSM   H18T12754  -0.643  -0.395   4.444  0.0810 -0.6752 -0.0562
  121OSM   H18U12755  -0.535  -0.482   4.325  5.4410  1.5491  0.5462
  121OSM    C1F12756  -0.219   0.092   5.800 -0.1796  0.3111  0.3359
  121OSM     OF12757  -0.166   0.124   5.905 -0.1722 -0.3350 -0.4615
  121OSM    C2F12758  -0.265   0.193   5.701  0.5452 -0.6734  0.7353
  121OSM    H2F12759  -0.174   0.249   5.670  0.6039 -0.9834  0.3439
  121OSM    H2G12760  -0.340   0.266   5.739 -0.0066 -0.1998 -1.1623
  121OSM    C3F12761  -0.323   0.132   5.576 -0.1489  0.3503  0.3603
  121OSM    H3F12762  -0.421   0.083   5.593  1.4666 -2.5990  2.0359
  121OSM    H3G12763  -0.257   0.054   5.532 -0.3486  0.8686 -0.8836
  121OSM    C4F12764  -0.329   0.227   5.456 -0.1275 -1.2189  0.2441
  121OSM    H4F12765  -0.233   0.283   5.451  0.7490 -2.4731  2.0830
  121OSM    H4G12766  -0.419   0.292   5.456  0.1192 -0.7581 -2.3269
  121OSM    C5F12767  -0.345   0.158   5.319  0.1838  0.8913 -0.6840
  121OSM    H5F12768  -0.432   0.090   5.326  1.1053 -0.4147 -1.5858
  121OSM    H5G12769  -0.258   0.092   5.298  2.3625  2.9551  1.2760
  121OSM    C6F12770  -0.366   0.253   5.204  0.8007 -0.3534  0.2924
  121OSM    H6F12771  -0.278   0.319   5.189  1.9953 -2.0946 -0.6534
  121OSM    H6G12772  -0.453   0.322   5.213  0.3791 -0.7483 -0.6476
  121OSM    C7F12773  -0.387   0.161   5.087 -0.1835  0.1617 -0.1808
  121OSM    H7F12774  -0.482   0.104   5.092  0.7027 -1.2472  1.9244
  121OSM    H7G12775  -0.305   0.086   5.084  1.4955  1.8879  0.2965
  121OSM    C8F12776  -0.379   0.232   4.952  0.0408  0.3216 -0.1439
  121OSM    H8F12777  -0.295   0.303   4.968  0.2007  0.4792 -1.5916
  121OSM    H8G12778  -0.475   0.288   4.950 -0.3108 -0.1231  1.6371
  121OSM    C9F12779  -0.344   0.141   4.839 -0.0339 -0.2270  0.5072
  121OSM    H9F12780  -0.236   0.117   4.832 -0.1701 -0.7452  0.0961
  121OSM   C10F12781  -0.434   0.105   4.745  0.2879  0.0688  0.5088
  121OSM   H10F12782  -0.399   0.050   4.656 -0.9682 -0.5463  0.3653
  121OSM   C11F12783  -0.582   0.128   4.750  0.2942  0.0066 -0.1983
  121OSM   H11F12784  -0.607   0.214   4.684  0.0748  0.2950  0.2524
  121OSM   H11G12785  -0.613   0.153   4.854  0.3427  0.7664 -0.3659
  121OSM   C12F12786  -0.660   0.005   4.701  0.3006 -0.8728 -0.1762
  121OSM   H12F12787  -0.630  -0.017   4.596  1.4966  1.6675 -0.4402
  121OSM   H12G12788  -0.767   0.029   4.718 -0.3275 -3.4816  0.0183
  121OSM   C13F12789  -0.634  -0.114   4.787  0.1768 -0.3044 -0.0822
  121OSM   H13F12790  -0.685  -0.103   4.885 -1.1142  1.0977 -0.8579
  121OSM   H13G12791  -0.526  -0.118   4.812  0.3857  1.7080 -0.4251
  121OSM   C14F12792  -0.666  -0.254   4.737 -0.9411 -0.2746 -0.4601
  121OSM   H14F12793  -0.607  -0.284   4.647 -1.5675  1.2142 -1.4125
  121OSM   H14G12794  -0.769  -0.226   4.705 -0.3442  4.2687  0.9658
  121OSM   C15F12795  -0.660  -0.367   4.842  0.3450 -0.2597 -0.1634
  121OSM   H15F12796  -0.714  -0.326   4.930 -0.0559 -0.0740 -0.4936
  121OSM   H15G12797  -0.554  -0.394   4.862 -0.2305 -0.7484  2.5182
  121OSM   C16F12798  -0.735  -0.501   4.814 -0.2838 -0.0435 -0.6193
  121OSM   H16F12799  -0.676  -0.566   4.746 -1.4878 -0.5010 -1.2569
  121OSM   H16G12800  -0.831  -0.475   4.765 -0.4902  0.9840  0.2957
  121OSM   C17F12801  -0.768  -0.577   4.943  0.4025 -0.0348 -0.7270
  121OSM   H17F12802  -0.835  -0.658   4.910  1.1889 -1.4222  0.9012
  121OSM   H17G12803  -0.801  -0.509   5.025  0.8393 -0.3222 -0.3051
  121OSM   C18F12804  -0.646  -0.653   4.994 -1.5047  0.2299  0.3706
  121OSM   H18F12805  -0.664  -0.738   5.063  1.7849 -0.9449 -0.0226
  121OSM   H18G12806  -0.590  -0.583   5.060 -0.7018  1.7438 -1.7903
  121OSM   H18H12807  -0.572  -0.685   4.917 -1.1761  1.1443  0.2943
  122OSM      N12808   6.228   2.475   6.642  0.3262  0.9672 -0.2361
  122OSM    C1512809   6.351   2.390   6.657  0.0074  0.9321  0.2123
  122OSM   H15A12810   6.439   2.447   6.635  0.0056  1.8085  2.2244
  122OSM   H15B12811   6.356   2.301   6.597 -1.3126  0.8904  0.1270
  122OSM   H15C12812   6.364   2.363   6.761 -0.8148  1.5565  0.4925
  122OSM    C1412813   6.116   2.426   6.734 -0.1392 -0.0698 -0.8604
  122OSM   H14A12814   6.152   2.412   6.835  0.0465 -0.1421 -0.9368
  122OSM   H14B12815   6.089   2.330   6.693 -1.1603 -0.3583  0.4384
  122OSM   H14C12816   6.028   2.488   6.742 -1.1127 -1.6331  1.8729
  122OSM    C1312817   6.259   2.610   6.688  0.2855 -0.2765  0.1754
  122OSM   H13A12818   6.294   2.609   6.790  1.2015 -2.1488 -0.1221
  122OSM   H13B12819   6.173   2.675   6.693  0.9272  0.5322  1.3340
  122OSM   H13C12820   6.337   2.660   6.632 -1.2542 -0.6133 -2.4033
  122OSM    C1212821   6.186   2.465   6.499  0.5148 -0.1193  0.5392
  122OSM   H12A12822   6.110   2.540   6.481 -0.1052 -0.9749 -0.4927
  122OSM   H12B12823   6.142   2.368   6.481  1.1334 -0.3369  0.1692
  122OSM    C1112824   6.284   2.484   6.378  0.3641  0.0894 -0.7931
  122OSM   H11A12825   6.254   2.433   6.284  0.1934 -0.2012 -0.5825
  122OSM   H11B12826   6.378   2.426   6.389 -0.0691 -0.9283 -2.2241
  122OSM      P12827   6.217   2.733   6.296  0.0209  0.3311  0.5464
  122OSM    O1312828   6.095   2.747   6.376  0.2169 -0.3406  0.2574
  122OSM    O1412829   6.295   2.858   6.281  0.0069 -0.0884 -0.8711
  122OSM    O1112830   6.183   2.677   6.157  0.3618 -0.5235  0.5331
  122OSM    O1212831   6.319   2.620   6.356  0.2730 -0.0627  0.2796
  122OSM    C1S12832   6.291   2.664   6.064 -0.7265 -0.4889  0.7966
  122OSM    H1S12833   6.352   2.574   6.087 -0.0752 -0.5211 -0.9159
  122OSM    H1T12834   6.361   2.749   6.052 -1.2604 -0.0335  0.8636
  122OSM     NF12835   6.379   2.598   5.843  0.3650 -0.3135 -0.0141
  122OSM    HNF12836   6.400   2.679   5.789 -0.0320 -1.3758 -1.8731
  122OSM    C2S12837   6.250   2.623   5.916 -0.6378 -0.2780 -0.0565
  122OSM    H2S12838   6.185   2.533   5.926 -1.7513  0.6763  1.7437
  122OSM    C3S12839   6.170   2.739   5.854 -0.1509  0.6354 -0.1704
  122OSM    H3S12840   6.239   2.826   5.848  0.8909 -0.1249  0.4919
  122OSM     O312841   6.060   2.773   5.937 -0.1929  0.0466 -0.0871
  122OSM    HO312842   6.071   2.720   6.017  0.3728 -1.4982 -1.1245
  122OSM    C4S12843   6.109   2.716   5.716  0.4451 -0.2580  0.0728
  122OSM    H4S12844   6.077   2.613   5.691  0.7901 -0.1058 -1.0362
  122OSM    C5S12845   6.095   2.802   5.613 -0.7643  0.1033  0.0439
  122OSM    H5S12846   6.152   2.896   5.620  0.5544 -0.5667 -1.2150
  122OSM    C6S12847   6.023   2.776   5.484 -0.1670  0.1877  0.4783
  122OSM    H6S12848   5.950   2.856   5.456  0.6728  1.1926  1.0735
  122OSM    H6T12849   5.970   2.679   5.482  1.0228 -0.4647 -0.4229
  122OSM    C7S12850   6.132   2.772   5.374 -0.1030  0.3427 -0.5391
  122OSM    H7S12851   6.207   2.691   5.385 -0.7237  0.1055  3.0375
  122OSM    H7T12852   6.181   2.871   5.381 -0.6215  0.5275  0.7282
  122OSM    C8S12853   6.074   2.754   5.232 -0.4624  0.1887  0.5505
  122OSM    H8S12854   6.002   2.837   5.216  0.7873  1.0767 -0.6823
  122OSM    H8T12855   5.999   2.672   5.239 -2.1670  1.6411 -0.0625
  122OSM    C9S12856   6.157   2.739   5.107 -0.2619 -0.2965 -0.1697
  122OSM    H9S12857   6.225   2.652   5.115  0.2881  0.0071 -1.2752
  122OSM    H9T12858   6.221   2.828   5.090 -1.5070  0.6594 -0.0203
  122OSM   C10S12859   6.069   2.699   4.991 -0.2612  0.9354  0.1691
  122OSM   H10S12860   5.992   2.779   4.992 -0.7940  0.4600  2.2005
  122OSM   H10T12861   6.024   2.597   4.996  1.9006 -0.1082 -0.5499
  122OSM   C11S12862   6.151   2.698   4.855 -0.8063 -0.6657  0.0078
  122OSM   H11S12863   6.220   2.611   4.847  1.1572  0.9612 -1.8812
  122OSM   H11T12864   6.201   2.796   4.847 -2.5240  0.1617 -1.3349
  122OSM   C12S12865   6.068   2.700   4.726  0.1029 -0.1224  0.3190
  122OSM   H12S12866   5.998   2.786   4.726 -1.0416 -0.9923  2.2165
  122OSM   H12T12867   6.012   2.606   4.703  1.2255 -1.2325  1.8659
  122OSM   C13S12868   6.166   2.730   4.603  0.3076  0.1171  0.0389
  122OSM   H13S12869   6.238   2.645   4.600 -0.5159 -0.5859 -0.2693
  122OSM   H13T12870   6.218   2.825   4.627  0.9622 -0.5827  1.5641
  122OSM   C14S12871   6.094   2.735   4.468  0.4360 -0.8157 -0.0814
  122OSM   H14S12872   6.012   2.810   4.464 -0.6968 -1.9643  1.0527
  122OSM   H14T12873   6.041   2.641   4.444 -0.2192 -0.1924 -1.1685
  122OSM   C15S12874   6.199   2.772   4.356  0.0711  0.3264  0.0852
  122OSM   H15S12875   6.247   2.869   4.380 -1.1213  1.5389 -2.1193
  122OSM   H15T12876   6.152   2.790   4.257 -0.6871  1.4821  0.6336
  122OSM   C16S12877   6.306   2.660   4.338 -0.4548  0.6458  0.4785
  122OSM   H16S12878   6.251   2.568   4.309  2.2496 -1.5227  1.7965
  122OSM   H16T12879   6.362   2.633   4.430  0.2530  0.6349  0.0523
  122OSM   C17S12880   6.408   2.693   4.224  0.2082  0.8295 -0.3011
  122OSM   H17S12881   6.478   2.775   4.250 -0.3249  1.2853 -0.2758
  122OSM   H17T12882   6.348   2.722   4.135 -1.1049  1.9127  0.8857
  122OSM   C18S12883   6.484   2.567   4.193 -0.5156  0.6959 -0.4608
  122OSM   H18S12884   6.556   2.546   4.275 -0.1704  0.7491 -0.7470
  122OSM   H18T12885   6.548   2.583   4.104 -0.1685  1.4315 -0.0921
  122OSM   H18U12886   6.418   2.479   4.183 -1.3401  1.1508  0.6808
  122OSM    C1F12887   6.454   2.501   5.856 -0.9125 -0.0701  0.2050
  122OSM     OF12888   6.412   2.401   5.912  0.3296  0.3969 -0.4376
  122OSM    C2F12889   6.595   2.511   5.805  0.1460 -0.1426 -0.2572
  122OSM    H2F12890   6.644   2.585   5.873 -2.1863  0.9895  0.3303
  122OSM    H2G12891   6.597   2.560   5.706  0.6693 -1.7125 -1.0384
  122OSM    C3F12892   6.665   2.372   5.806 -0.2867 -0.1275 -0.1524
  122OSM    H3F12893   6.612   2.311   5.730 -0.9972  0.8600 -0.4577
  122OSM    H3G12894   6.648   2.314   5.900  0.9456 -1.4456 -0.6932
  122OSM    C4F12895   6.811   2.381   5.769  0.1191  0.6181  0.0690
  122OSM    H4F12896   6.856   2.280   5.773 -1.3881 -0.1414 -1.4449
  122OSM    H4G12897   6.858   2.445   5.848 -0.2025  1.7178 -0.6083
  122OSM    C5F12898   6.825   2.447   5.628  0.6454 -0.1335 -0.2171
  122OSM    H5F12899   6.933   2.468   5.611  0.6363 -2.4628 -4.9577
  122OSM    H5G12900   6.775   2.545   5.618  0.8738 -0.2031 -2.6483
  122OSM    C6F12901   6.783   2.361   5.508 -0.3779 -0.2222  0.3673
  122OSM    H6F12902   6.672   2.353   5.501 -0.1663 -3.8979 -0.3444
  122OSM    H6G12903   6.807   2.254   5.521 -0.3312 -0.4079 -1.0278
  122OSM    C7F12904   6.853   2.419   5.380  0.1150 -0.3718 -0.0529
  122OSM    H7F12905   6.962   2.401   5.395  0.4327 -0.0105 -1.7824
  122OSM    H7G12906   6.828   2.526   5.370 -1.8398 -0.7664  0.1074
  122OSM    C8F12907   6.809   2.346   5.255  0.0337  0.4400  0.7092
  122OSM    H8F12908   6.845   2.398   5.164  1.4153  0.1047  1.0493
  122OSM    H8G12909   6.698   2.350   5.259 -0.0295 -1.0072  1.0830
  122OSM    C9F12910   6.850   2.202   5.250 -0.6413  0.0409  0.7996
  122OSM    H9F12911   6.835   2.150   5.346  3.7837  2.2923  3.0204
  122OSM   C10F12912   6.886   2.132   5.140 -0.0664  0.1833 -0.2913
  122OSM   H10F12913   6.930   2.033   5.160  2.6312  1.3304 -0.0827
  122OSM   C11F12914   6.892   2.163   4.994  0.1905 -0.4886  0.3964
  122OSM   H11F12915   6.803   2.224   4.970 -0.5478 -0.7755  2.2197
  122OSM   H11G12916   6.878   2.067   4.940 -0.6434 -0.8785  1.2759
  122OSM   C12F12917   7.033   2.221   4.960  0.7098  0.4296 -0.9998
  122OSM   H12F12918   7.117   2.171   5.012 -0.9975 -1.6193 -0.0468
  122OSM   H12G12919   7.034   2.328   4.990 -3.9246  1.5870 -3.8943
  122OSM   C13F12920   7.064   2.208   4.808 -0.1367  0.1618 -0.1860
  122OSM   H13F12921   7.087   2.105   4.774  1.4344  1.0319 -1.9435
  122OSM   H13G12922   7.163   2.258   4.800 -0.9567  1.9137  0.1034
  122OSM   C14F12923   6.967   2.273   4.707  0.1505 -0.0124  0.2066
  122OSM   H14F12924   6.877   2.208   4.706 -0.6225  1.0235 -0.7646
  122OSM   H14G12925   7.009   2.279   4.605  0.2936  3.3048  0.3604
  122OSM   C15F12926   6.924   2.416   4.741  0.8671  0.4920  0.3486
  122OSM   H15F12927   7.008   2.487   4.732 -0.8226  2.4859 -0.4859
  122OSM   H15G12928   6.889   2.410   4.846  3.7754  1.5951  1.4776
  122OSM   C16F12929   6.798   2.472   4.656 -0.5642 -0.3498 -0.2039
  122OSM   H16F12930   6.768   2.570   4.699  1.0688  0.8697 -1.6996
  122OSM   H16G12931   6.718   2.396   4.665  1.0986 -2.1831 -0.1493
  122OSM   C17F12932   6.839   2.495   4.512  0.2604  0.3411 -0.5129
  122OSM   H17F12933   6.950   2.505   4.508  0.2940 -0.6136 -3.1662
  122OSM   H17G12934   6.786   2.589   4.486 -2.3508 -0.9775 -0.2506
  122OSM   C18F12935   6.797   2.384   4.416  0.8476 -0.4709 -0.4355
  122OSM   H18F12936   6.790   2.433   4.316  1.1135  0.6348  0.0817
  122OSM   H18G12937   6.700   2.339   4.448 -0.1758  3.2924  2.4102
  122OSM   H18H12938   6.867   2.298   4.413  1.9242  0.4087 -1.7644
  123OSM      N12939   3.655   1.717   1.730 -0.6622 -0.0328 -0.1679
  123OSM    C1512940   3.703   1.858   1.722  0.1943  0.0345 -0.8984
  123OSM   H15A12941   3.733   1.883   1.621 -0.1251  2.4349 -0.4627
  123OSM   H15B12942   3.779   1.877   1.796 -0.9441 -0.5691  0.4841
  123OSM   H15C12943   3.624   1.925   1.755  0.9951  1.2787 -1.4223
  123OSM    C1412944   3.611   1.679   1.870 -0.3454 -0.3244  0.3320
  123OSM   H14A12945   3.540   1.748   1.914  0.3849  0.3977  0.4105
  123OSM   H14B12946   3.693   1.692   1.938 -1.6968  2.0565  1.6452
  123OSM   H14C12947   3.581   1.576   1.877 -1.2335  0.0355  2.3620
  123OSM    C1312948   3.531   1.709   1.651  0.0686 -0.1961 -0.8013
  123OSM   H13A12949   3.494   1.608   1.637  0.1593 -0.0714 -2.1211
  123OSM   H13B12950   3.547   1.734   1.547 -3.0942 -0.0491 -1.3737
  123OSM   H13C12951   3.449   1.773   1.681 -0.5878 -1.0199 -0.7832
  123OSM    C1212952   3.766   1.618   1.685  0.6852 -0.1867 -0.0462
  123OSM   H12A12953   3.839   1.620   1.765  0.3164  0.6329  0.2849
  123OSM   H12B12954   3.819   1.665   1.603 -0.1186  1.9758  0.5981
  123OSM    C1112955   3.720   1.474   1.657 -0.6710 -0.5966  0.5800
  123OSM   H11A12956   3.813   1.433   1.611 -1.4546  0.0150 -1.6605
  123OSM   H11B12957   3.647   1.486   1.574  0.3373  2.2092  0.0079
  123OSM      P12958   3.544   1.321   1.754  0.5450  0.3490  0.4268
  123OSM    O1312959   3.443   1.401   1.680 -0.1561  0.2392 -0.2854
  123OSM    O1412960   3.566   1.188   1.699 -0.3163  0.3020 -0.0512
  123OSM    O1112961   3.487   1.313   1.895 -0.3700 -0.1299  0.1351
  123OSM    O1212962   3.674   1.407   1.773 -0.1232 -0.1408 -0.0056
  123OSM    C1S12963   3.571   1.279   2.009  0.1398  0.5759  0.0568
  123OSM    H1S12964   3.675   1.316   2.000  0.8178 -1.4076 -0.8165
  123OSM    H1T12965   3.576   1.168   2.011 -0.6418  0.5413  0.8036
  123OSM     NF12966   3.624   1.284   2.253  1.0167  0.3904 -0.0641
  123OSM    HNF12967   3.609   1.193   2.290  0.0990  0.7327  0.4200
  123OSM    C2S12968   3.519   1.325   2.155 -0.2280 -0.1328 -1.5560
  123OSM    H2S12969   3.513   1.436   2.167  1.2333 -0.3705  3.3028
  123OSM    C3S12970   3.379   1.267   2.173 -0.3893 -1.0210 -0.4163
  123OSM    H3S12971   3.407   1.159   2.171 -1.5707 -1.3310 -0.6609
  123OSM     O312972   3.274   1.295   2.078  0.1866  0.3074 -0.5430
  123OSM    HO312973   3.327   1.329   2.006  0.2450  0.6119 -0.3596
  123OSM    C4S12974   3.327   1.308   2.307 -0.4347 -1.4508  0.3810
  123OSM    H4S12975   3.284   1.409   2.308 -2.2830 -2.2157  1.3251
  123OSM    C5S12976   3.340   1.236   2.415  0.3247 -0.2399 -0.3939
  123OSM    H5S12977   3.388   1.137   2.408 -1.2740 -0.9808 -1.4159
  123OSM    C6S12978   3.316   1.279   2.559  0.1270  0.3430 -0.0674
  123OSM    H6S12979   3.405   1.235   2.609 -0.2246  0.5428  0.7411
  123OSM    H6T12980   3.230   1.220   2.598  1.4193 -1.2627  0.4748
  123OSM    C7S12981   3.309   1.426   2.611 -0.2929  0.0331 -0.3762
  123OSM    H7S12982   3.235   1.478   2.547  0.8040 -0.1731 -1.8803
  123OSM    H7T12983   3.413   1.465   2.599 -0.3121  0.2032 -0.0065
  123OSM    C8S12984   3.283   1.422   2.768 -0.3605 -0.9203 -0.5722
  123OSM    H8S12985   3.366   1.373   2.823 -1.0106 -1.1012  0.2715
  123OSM    H8T12986   3.185   1.373   2.788 -0.9915  0.7228  0.5818
  123OSM    C9S12987   3.285   1.563   2.834 -0.9313 -0.4460  0.8829
  123OSM    H9S12988   3.218   1.626   2.772  0.0016 -1.7276 -1.5962
  123OSM    H9T12989   3.391   1.597   2.833 -0.9041 -0.3038  3.2981
  123OSM   C10S12990   3.226   1.557   2.976  0.1937  0.3124 -0.2853
  123OSM   H10S12991   3.130   1.504   2.992 -0.2822  0.7594 -1.5287
  123OSM   H10T12992   3.199   1.656   3.019 -0.0685 -0.5329  1.5990
  123OSM   C11S12993   3.331   1.500   3.066 -0.2739 -0.4312  0.8185
  123OSM   H11S12994   3.425   1.559   3.054  2.0189 -3.8968  0.1334
  123OSM   H11T12995   3.344   1.393   3.037 -3.1818 -0.6562  0.0200
  123OSM   C12S12996   3.298   1.486   3.214 -0.8327  0.1808  0.1680
  123OSM   H12S12997   3.294   1.577   3.279 -0.1968 -0.3630  0.9912
  123OSM   H12T12998   3.380   1.439   3.273 -0.9011  0.3547  0.4090
  123OSM   C13S12999   3.177   1.393   3.250  0.5705 -0.0652  0.2646
  123OSM   H13S13000   3.200   1.292   3.208 -2.6993 -0.9850  0.3816
  123OSM   H13T13001   3.082   1.436   3.213  0.9260 -0.1728 -0.7859
  123OSM   C14S13002   3.174   1.365   3.399 -0.1323  0.1754 -1.2298
  123OSM   H14S13003   3.149   1.464   3.443 -2.2696 -0.2457 -1.3850
  123OSM   H14T13004   3.275   1.334   3.432 -0.6911  0.7922  1.3197
  123OSM   C15S13005   3.081   1.247   3.440  0.1107  0.1004  0.3001
  123OSM   H15S13006   3.113   1.167   3.369 -1.1763  0.4335 -0.7030
  123OSM   H15T13007   2.977   1.272   3.409 -0.1122 -2.8621 -1.7673
  123OSM   C16S13008   3.091   1.203   3.584  0.0358 -0.1677  0.4848
  123OSM   H16S13009   3.076   1.297   3.642 -3.4705  0.4592 -1.1988
  123OSM   H16T13010   3.190   1.157   3.607 -0.0010 -0.1038  0.7812
  123OSM   C17S13011   2.967   1.111   3.635 -0.2151 -0.1398 -0.1343
  123OSM   H17S13012   2.962   1.020   3.571  1.5731  0.3340 -1.0290
  123OSM   H17T13013   2.873   1.167   3.619 -0.0158 -0.3763 -2.4650
  123OSM   C18S13014   3.006   1.060   3.778  0.3609 -0.6299 -0.2589
  123OSM   H18S13015   3.087   0.985   3.782  0.1759 -0.8365 -0.3537
  123OSM   H18T13016   2.912   1.016   3.818 -0.5412  0.4663 -1.0773
  123OSM   H18U13017   3.041   1.145   3.840 -0.5226 -1.1984  1.0642
  123OSM    C1F13018   3.732   1.348   2.276 -0.2317 -0.0987  0.6348
  123OSM     OF13019   3.764   1.450   2.215  0.0875  0.3664 -0.1535
  123OSM    C2F13020   3.818   1.287   2.385 -0.0352  0.1986 -0.5506
  123OSM    H2F13021   3.922   1.263   2.353  0.2714  1.3708 -0.4874
  123OSM    H2G13022   3.763   1.196   2.418 -2.2268  1.8895  0.7409
  123OSM    C3F13023   3.811   1.371   2.519  0.3018 -0.1962  0.2880
  123OSM    H3F13024   3.703   1.382   2.544  0.9578  0.4604  3.3696
  123OSM    H3G13025   3.848   1.475   2.501  0.2141 -0.2033  0.0672
  123OSM    C4F13026   3.880   1.305   2.643 -0.1167  0.0650 -0.5064
  123OSM    H4F13027   3.977   1.266   2.607  0.1211  0.8347 -0.7143
  123OSM    H4G13028   3.821   1.215   2.671  0.9116 -1.3424 -2.6427
  123OSM    C5F13029   3.922   1.389   2.760 -0.0618 -0.4489 -0.4116
  123OSM    H5F13030   3.833   1.406   2.824  0.2678 -1.6873  0.4316
  123OSM    H5G13031   3.953   1.482   2.708  0.1133 -0.9690 -1.2552
  123OSM    C6F13032   4.027   1.319   2.842 -0.1426 -0.1324 -0.3970
  123OSM    H6F13033   4.124   1.297   2.793  0.3457  0.2844  0.3661
  123OSM    H6G13034   3.987   1.218   2.867 -2.8285  0.9902  0.1875
  123OSM    C7F13035   4.064   1.412   2.964 -0.5371  1.2907 -0.3456
  123OSM    H7F13036   3.985   1.454   3.029 -0.4079 -0.5349  1.0567
  123OSM    H7G13037   4.122   1.494   2.916  0.3961  2.1823  2.1553
  123OSM    C8F13038   4.158   1.343   3.060 -0.0337 -0.4885  0.2576
  123OSM    H8F13039   4.190   1.416   3.138 -0.1837 -1.0018  0.8001
  123OSM    H8G13040   4.251   1.300   3.017 -0.5531 -1.0467 -0.3141
  123OSM    C9F13041   4.080   1.231   3.125  0.4157 -0.4815  0.2497
  123OSM    H9F13042   3.978   1.266   3.150  1.0498  2.0395 -0.3637
  123OSM   C10F13043   4.115   1.101   3.131  0.3261 -0.0646  1.0201
  123OSM   H10F13044   4.037   1.034   3.168 -2.6950  2.5974 -0.0372
  123OSM   C11F13045   4.236   1.027   3.088 -0.0328  0.0925  1.5222
  123OSM   H11F13046   4.303   0.999   3.172  0.4364 -0.7398  0.8940
  123OSM   H11G13047   4.304   1.091   3.027  0.1379 -0.5821  0.9916
  123OSM   C12F13048   4.192   0.893   3.019 -0.1038 -0.4689  0.2742
  123OSM   H12F13049   4.265   0.847   2.949 -1.8961 -3.1380 -0.0036
  123OSM   H12G13050   4.099   0.901   2.959  0.9928 -1.1179 -1.5810
  123OSM   C13F13051   4.188   0.790   3.133  0.2377 -0.2383 -0.1990
  123OSM   H13F13052   4.113   0.813   3.212  0.2417 -0.1015 -0.2357
  123OSM   H13G13053   4.289   0.791   3.180 -0.4471  0.2120  1.3281
  123OSM   C14F13054   4.154   0.653   3.072 -0.0886  0.2405  0.2192
  123OSM   H14F13055   4.233   0.613   3.005 -0.0637  0.2931  0.2172
  123OSM   H14G13056   4.066   0.663   3.006 -0.5531  0.0100  0.7906
  123OSM   C15F13057   4.114   0.540   3.172 -0.4379  0.0225 -0.3120
  123OSM   H15F13058   4.104   0.439   3.129 -0.0719 -1.0538  1.9685
  123OSM   H15G13059   4.016   0.570   3.217  0.1790 -0.9410  1.8010
  123OSM   C16F13060   4.219   0.535   3.287  0.1100 -0.5609 -0.0789
  123OSM   H16F13061   4.217   0.638   3.329  0.1780 -0.4235 -0.4144
  123OSM   H16G13062   4.321   0.521   3.245 -0.0412  0.8126 -0.9491
  123OSM   C17F13063   4.207   0.426   3.398 -0.7350 -0.8112 -0.2875
  123OSM   H17F13064   4.265   0.461   3.485 -1.5082  0.8336 -0.3979
  123OSM   H17G13065   4.250   0.333   3.355 -0.8093 -1.5165  1.0998
  123OSM   C18F13066   4.063   0.401   3.425 -0.4033 -0.2243 -0.1969
  123OSM   H18F13067   4.040   0.334   3.511 -0.2646  0.1903  0.1653
  123OSM   H18G13068   4.004   0.358   3.342 -1.2054 -0.9873  0.7349
  123OSM   H18H13069   4.022   0.502   3.443  0.5287  0.0026  0.8244
  124OSM      N13070   2.474   2.497   1.713  0.0312 -0.6682  0.8276
  124OSM    C1513071   2.515   2.407   1.608 -0.3475  0.8517 -0.4292
  124OSM   H15A13072   2.595   2.449   1.549  0.8433 -0.5220  0.1413
  124OSM   H15B13073   2.436   2.381   1.540 -1.4074  3.3051 -0.2380
  124OSM   H15C13074   2.545   2.311   1.649  0.1943  1.5028  0.7458
  124OSM    C1413075   2.365   2.426   1.785 -0.1755 -0.2610  0.5581
  124OSM   H14A13076   2.311   2.489   1.854 -1.6905  0.4992 -1.2641
  124OSM   H14B13077   2.407   2.335   1.825  1.1359 -0.5870 -1.4625
  124OSM   H14C13078   2.287   2.401   1.715  1.2170 -1.6093 -0.5715
  124OSM    C1313079   2.598   2.509   1.802  0.0373 -0.3127  0.3147
  124OSM   H13A13080   2.677   2.558   1.746 -0.3435 -0.1850 -0.1100
  124OSM   H13B13081   2.627   2.408   1.825 -1.8833 -0.9140  0.2117
  124OSM   H13C13082   2.584   2.561   1.896  0.9396 -2.2033  1.5693
  124OSM    C1213083   2.432   2.639   1.663 -0.0189  0.3995  0.1996
  124OSM   H12A13084   2.339   2.629   1.609 -0.0013 -2.6948  0.5547
  124OSM   H12B13085   2.505   2.667   1.589  0.9341 -0.4103  0.7963
  124OSM    C1113086   2.408   2.747   1.762 -0.5344  0.5481  0.0079
  124OSM   H11A13087   2.386   2.844   1.714 -2.9494  0.2763  0.4707
  124OSM   H11B13088   2.504   2.760   1.818 -0.0326  0.4668 -0.8156
  124OSM      P13089   2.157   2.756   1.825  0.4672  0.1206 -0.4801
  124OSM    O1313090   2.113   2.865   1.914 -0.1006  0.1310  0.2449
  124OSM    O1413091   2.140   2.782   1.679  0.3966  0.4114 -0.4403
  124OSM    O1113092   2.079   2.622   1.861  0.3916  0.1551 -0.3488
  124OSM    O1213093   2.307   2.721   1.857  0.2203 -0.7071  0.3666
  124OSM    C1S13094   2.112   2.565   1.987 -0.0519  0.2127  0.4351
  124OSM    H1S13095   2.221   2.562   2.009  0.2091  0.2792 -0.8226
  124OSM    H1T13096   2.082   2.458   1.986  1.4499 -0.2134 -0.3950
  124OSM     NF13097   2.095   2.526   2.224 -0.7021  0.3874 -0.0214
  124OSM    HNF13098   2.052   2.438   2.244 -0.9298  0.5394  0.1571
  124OSM    C2S13099   2.033   2.605   2.114  0.3444 -0.0653 -0.0918
  124OSM    H2S13100   2.045   2.713   2.138  0.8222 -0.0939 -0.1890
  124OSM    C3S13101   1.886   2.575   2.080 -0.2254  0.5114 -0.1574
  124OSM    H3S13102   1.881   2.468   2.052  1.3441  0.0016  1.3052
  124OSM     O313103   1.836   2.650   1.973 -0.8038  0.3042 -0.1165
  124OSM    HO313104   1.910   2.674   1.917 -0.5808  0.5944  0.2964
  124OSM    C4S13105   1.785   2.594   2.194 -0.2714 -0.3649  0.5879
  124OSM    H4S13106   1.813   2.682   2.253  1.9427  0.2626 -1.2580
  124OSM    C5S13107   1.683   2.516   2.229  0.1142  0.3954  0.3283
  124OSM    H5S13108   1.649   2.429   2.171 -1.0308  0.8114  0.3481
  124OSM    C6S13109   1.590   2.547   2.343  0.1386  0.9002  0.5419
  124OSM    H6S13110   1.491   2.522   2.301  1.4172 -1.8865 -1.0556
  124OSM    H6T13111   1.592   2.658   2.350 -0.2271  0.8257  2.4805
  124OSM    C7S13112   1.621   2.498   2.484 -0.0232  0.7306  0.2319
  124OSM    H7S13113   1.728   2.517   2.508  0.4587 -0.9815 -0.4145
  124OSM    H7T13114   1.589   2.391   2.482 -2.4175  1.3943  0.1108
  124OSM    C8S13115   1.532   2.568   2.588  0.0294  0.7359  0.1856
  124OSM    H8S13116   1.426   2.536   2.577 -0.2978  0.9458  2.3037
  124OSM    H8T13117   1.548   2.675   2.563  0.6911  0.1835 -1.9756
  124OSM    C9S13118   1.572   2.528   2.730 -0.7597  0.8071  0.4359
  124OSM    H9S13119   1.675   2.566   2.747 -0.1540 -0.9680  0.8886
  124OSM    H9T13120   1.586   2.420   2.750  1.3372  1.0687  0.6584
  124OSM   C10S13121   1.475   2.588   2.838  0.5625  0.5836 -0.0790
  124OSM   H10S13122   1.373   2.557   2.805  0.8431 -1.0182  0.4703
  124OSM   H10T13123   1.491   2.698   2.826 -0.6425  0.7380 -0.4714
  124OSM   C11S13124   1.504   2.541   2.980 -0.4964 -0.2027  0.6219
  124OSM   H11S13125   1.599   2.588   3.014  0.0818 -0.5790 -0.4298
  124OSM   H11T13126   1.514   2.430   2.979  3.0736 -0.0508  2.0953
  124OSM   C12S13127   1.411   2.582   3.087 -0.5689  0.7758 -0.2735
  124OSM   H12S13128   1.311   2.550   3.051 -1.0534  0.1380  1.5396
  124OSM   H12T13129   1.395   2.692   3.086  0.3633  0.9284 -1.9968
  124OSM   C13S13130   1.428   2.522   3.226  0.2830 -0.1125  0.7423
  124OSM   H13S13131   1.530   2.553   3.257  1.0697 -0.6905 -1.1678
  124OSM   H13T13132   1.447   2.413   3.216  3.8734  0.6455 -4.5125
  124OSM   C14S13133   1.329   2.577   3.332 -0.0672 -0.6380  0.0883
  124OSM   H14S13134   1.233   2.584   3.277 -0.1552 -0.8159  0.2211
  124OSM   H14T13135   1.364   2.676   3.369  4.0755 -1.7863 -0.2256
  124OSM   C15S13136   1.291   2.493   3.449 -0.3341 -0.5627  0.5386
  124OSM   H15S13137   1.388   2.465   3.495 -0.0782  0.1503  0.4356
  124OSM   H15T13138   1.235   2.400   3.426 -0.4530 -0.3911  0.1292
  124OSM   C16S13139   1.206   2.571   3.553 -0.0287  0.4747 -0.4164
  124OSM   H16S13140   1.103   2.593   3.517  0.2602  1.7584 -0.5032
  124OSM   H16T13141   1.255   2.666   3.581  0.7365  0.3815 -1.3816
  124OSM   C17S13142   1.195   2.491   3.679  0.2501  0.2449 -0.1401
  124OSM   H17S13143   1.299   2.471   3.711  0.1983  0.9251  0.4753
  124OSM   H17T13144   1.138   2.396   3.670 -1.2488  0.9395  1.4833
  124OSM   C18S13145   1.132   2.566   3.799  0.2671  0.0731  0.7653
  124OSM   H18S13146   1.111   2.500   3.886  0.9912 -1.3323 -0.0949
  124OSM   H18T13147   1.030   2.599   3.768 -0.2839 -0.8773  1.4773
  124OSM   H18U13148   1.186   2.657   3.832 -0.2882 -0.3319  2.9867
  124OSM    C1F13149   2.217   2.553   2.280  0.8289  0.0671  0.1259
  124OSM     OF13150   2.275   2.652   2.237  0.2197 -0.6536 -0.2986
  124OSM    C2F13151   2.264   2.470   2.397  0.0811 -0.1003  0.4804
  124OSM    H2F13152   2.262   2.369   2.351 -0.6100  0.5317 -0.9068
  124OSM    H2G13153   2.186   2.468   2.477 -0.3154 -0.3139  0.0902
  124OSM    C3F13154   2.405   2.502   2.448 -0.3246  0.3798 -0.2008
  124OSM    H3F13155   2.420   2.612   2.447  1.1005  0.2148 -1.9502
  124OSM    H3G13156   2.485   2.456   2.387  1.4064  0.0488  2.1583
  124OSM    C4F13157   2.416   2.465   2.595 -0.1137  0.1629 -0.0504
  124OSM    H4F13158   2.522   2.478   2.627  0.5859  0.0333 -2.1496
  124OSM    H4G13159   2.388   2.359   2.613  0.4758  0.2363  1.4121
  124OSM    C5F13160   2.327   2.543   2.694 -0.1356  0.2385 -0.0850
  124OSM    H5F13161   2.224   2.503   2.678  0.1667 -0.6687  0.1473
  124OSM    H5G13162   2.325   2.650   2.667  0.6371  0.2810 -0.0001
  124OSM    C6F13163   2.375   2.553   2.835  0.6172 -0.2872  0.5407
  124OSM    H6F13164   2.313   2.630   2.885 -2.2360 -0.6853 -2.0717
  124OSM    H6G13165   2.480   2.590   2.840 -0.0456  1.6066  1.5813
  124OSM    C7F13166   2.346   2.412   2.907 -0.0456  0.1856  0.6705
  124OSM    H7F13167   2.385   2.323   2.854 -1.3050  1.0160 -1.8205
  124OSM    H7G13168   2.236   2.396   2.915  0.4496 -3.4454  2.4434
  124OSM    C8F13169   2.405   2.415   3.046 -0.0273  0.0287 -0.2856
  124OSM    H8F13170   2.508   2.456   3.038 -0.0406  0.5019  1.4745
  124OSM    H8G13171   2.422   2.314   3.089 -1.3760 -0.5915 -1.1476
  124OSM    C9F13172   2.346   2.512   3.151  0.5411  0.1916 -0.1427
  124OSM    H9F13173   2.382   2.616   3.148  0.1724  0.3204 -0.2352
  124OSM   C10F13174   2.268   2.485   3.256  0.2687  0.2883 -0.3740
  124OSM   H10F13175   2.239   2.552   3.339  0.9737  0.6618 -0.4248
  124OSM   C11F13176   2.211   2.346   3.295 -0.5203  0.2649 -0.5526
  124OSM   H11F13177   2.208   2.275   3.210  1.6055 -0.7075  0.1164
  124OSM   H11G13178   2.108   2.370   3.330 -0.2932  1.3375 -0.5690
  124OSM   C12F13179   2.277   2.283   3.421  0.1041  0.6325  0.2039
  124OSM   H12F13180   2.272   2.350   3.511  0.2099 -0.6216  1.1707
  124OSM   H12G13181   2.383   2.254   3.407  0.0212 -0.6798  1.8957
  124OSM   C13F13182   2.212   2.148   3.457  0.8761  0.1954 -0.0923
  124OSM   H13F13183   2.203   2.076   3.373  2.8655 -0.8617  0.5334
  124OSM   H13G13184   2.110   2.174   3.492  0.4732 -0.3676 -0.8252
  124OSM   C14F13185   2.287   2.087   3.572 -0.9473 -0.3435 -0.4760
  124OSM   H14F13186   2.298   2.162   3.653 -2.6990 -1.8585  1.2879
  124OSM   H14G13187   2.390   2.062   3.539 -0.8633  0.1075 -0.5512
  124OSM   C15F13188   2.215   1.962   3.614 -0.4747 -0.1217 -0.0871
  124OSM   H15F13189   2.163   1.910   3.531 -2.7032 -0.0196  1.1632
  124OSM   H15G13190   2.132   1.996   3.680  0.2537  1.1537  0.2331
  124OSM   C16F13191   2.301   1.860   3.685  0.3041 -0.1365 -0.2694
  124OSM   H16F13192   2.236   1.783   3.732  0.9371  0.9569  2.6107
  124OSM   H16G13193   2.358   1.910   3.766  0.1219  0.9360 -0.7875
  124OSM   C17F13194   2.403   1.784   3.605  0.0479 -0.3343  0.3251
  124OSM   H17F13195   2.487   1.850   3.572 -0.0332 -0.1820  0.4222
  124OSM   H17G13196   2.343   1.752   3.517 -1.8203 -1.0209  1.7860
  124OSM   C18F13197   2.454   1.671   3.693 -0.0197  0.0871  0.0933
  124OSM   H18F13198   2.383   1.589   3.718  0.1063 -0.3584 -0.9482
  124OSM   H18G13199   2.476   1.717   3.792  0.1665  0.5535 -0.1601
  124OSM   H18H13200   2.542   1.634   3.636  0.4686  1.0471  0.2063
  125OSM      N13201   4.643   5.458   1.550  0.7810  1.4701 -0.1037
  125OSM    C1513202   4.654   5.438   1.394 -0.1337  1.0942 -0.1268
  125OSM   H15A13203   4.749   5.388   1.390 -0.9292 -0.8683  2.3541
  125OSM   H15B13204   4.666   5.532   1.342  0.7042  1.2225  0.2786
  125OSM   H15C13205   4.576   5.370   1.360  0.1479 -0.0485  1.4104
  125OSM    C1413206   4.753   5.538   1.599 -0.3519 -0.5681  0.3364
  125OSM   H14A13207   4.749   5.643   1.571 -0.5973 -1.0638 -1.6789
  125OSM   H14B13208   4.850   5.506   1.562  0.1441  0.4604  0.6836
  125OSM   H14C13209   4.756   5.535   1.707  1.2554 -1.5641  0.2929
  125OSM    C1313210   4.519   5.526   1.572  0.7246  0.3411  0.1548
  125OSM   H13A13211   4.445   5.483   1.507  1.1666  0.3926 -0.3882
  125OSM   H13B13212   4.526   5.628   1.538  1.6669 -0.2858 -1.7258
  125OSM   H13C13213   4.486   5.515   1.674  0.3914 -0.7225 -0.0559
  125OSM    C1213214   4.639   5.321   1.618  0.2716  0.6797  0.5033
  125OSM   H12A13215   4.737   5.281   1.599  0.8383  1.1020  2.3505
  125OSM   H12B13216   4.572   5.254   1.566 -0.0304  0.4130  1.2178
  125OSM    C1113217   4.613   5.307   1.773  0.7111  0.4101  1.2441
  125OSM   H11A13218   4.607   5.201   1.805  1.0096  0.0065 -0.0060
  125OSM   H11B13219   4.511   5.350   1.787  0.4062 -0.2048  0.9368
  125OSM      P13220   4.824   5.303   1.915  0.1996  0.0465  0.4332
  125OSM    O1313221   4.845   5.168   1.854 -0.0031  0.4343  0.9026
  125OSM    O1413222   4.942   5.392   1.913  0.2993  0.4822  0.2895
  125OSM    O1113223   4.779   5.281   2.062 -0.4429 -0.2451  0.2881
  125OSM    O1213224   4.706   5.380   1.846 -0.0971 -0.4024  0.1257
  125OSM    C1S13225   4.644   5.244   2.105  0.9236  0.5854  0.6123
  125OSM    H1S13226   4.631   5.135   2.090  2.8982 -0.1172  3.2595
  125OSM    H1T13227   4.569   5.315   2.065  1.4665  1.0896  0.4730
  125OSM     NF13228   4.523   5.207   2.326  1.0033  0.1641  0.0318
  125OSM    HNF13229   4.449   5.268   2.355  1.4330  1.2290 -1.0374
  125OSM    C2S13230   4.630   5.278   2.258  0.3812  0.4783  0.2720
  125OSM    H2S13231   4.722   5.248   2.312 -0.3843 -2.7934  0.0138
  125OSM    C3S13232   4.629   5.430   2.276 -0.3438  0.2775  0.1582
  125OSM    H3S13233   4.537   5.465   2.225  0.1355  1.8828  0.3638
  125OSM     O313234   4.735   5.498   2.221 -0.4963 -0.4304 -0.0446
  125OSM    HO313235   4.782   5.437   2.164 -1.0692  0.0358 -1.0569
  125OSM    C4S13236   4.620   5.476   2.413 -0.3671  1.3971 -0.0193
  125OSM    H4S13237   4.685   5.420   2.481 -1.4978 -2.3093 -1.7230
  125OSM    C5S13238   4.534   5.567   2.464  0.7299  0.4250 -0.2640
  125OSM    H5S13239   4.462   5.622   2.402 -0.5382 -0.7864  0.0933
  125OSM    C6S13240   4.523   5.596   2.612 -0.4834  0.4621 -0.6226
  125OSM    H6S13241   4.438   5.664   2.635 -0.7934 -0.2308  0.3816
  125OSM    H6T13242   4.616   5.641   2.652  0.0936  0.2693 -1.7369
  125OSM    C7S13243   4.497   5.475   2.701  0.2880 -0.1965  0.4649
  125OSM    H7S13244   4.593   5.419   2.699  1.5861  1.9574  0.1858
  125OSM    H7T13245   4.406   5.422   2.665  0.1558 -0.3144  0.9670
  125OSM    C8S13246   4.489   5.523   2.847  0.1669  0.3045 -0.4195
  125OSM    H8S13247   4.429   5.616   2.852 -0.7810 -0.2776 -0.6508
  125OSM    H8T13248   4.594   5.540   2.877 -0.3051 -0.1324  1.6952
  125OSM    C9S13249   4.424   5.415   2.936 -0.0047 -0.1139 -0.6027
  125OSM    H9S13250   4.451   5.318   2.887 -1.1484  0.1259 -1.7699
  125OSM    H9T13251   4.317   5.438   2.950 -0.2948 -1.4247 -0.4929
  125OSM   C10S13252   4.492   5.412   3.076  0.3018  0.2557 -0.1116
  125OSM   H10S13253   4.593   5.367   3.064  0.9713  2.3552 -3.6916
  125OSM   H10T13254   4.431   5.352   3.147  0.1256  0.4693 -0.0820
  125OSM   C11S13255   4.514   5.552   3.150 -0.0107 -0.2487  0.1879
  125OSM   H11S13256   4.436   5.622   3.113 -0.4851 -0.1934  1.2596
  125OSM   H11T13257   4.617   5.582   3.122 -0.1597 -0.5696 -0.7489
  125OSM   C12S13258   4.515   5.541   3.307 -0.0847  0.2317 -0.1837
  125OSM   H12S13259   4.571   5.627   3.350  0.6398  0.0154 -0.6694
  125OSM   H12T13260   4.571   5.452   3.343  0.4951  0.9013  0.5997
  125OSM   C13S13261   4.372   5.533   3.359  0.0114 -0.4641  0.2035
  125OSM   H13S13262   4.331   5.433   3.333  4.0515 -1.4996 -3.3262
  125OSM   H13T13263   4.314   5.603   3.294  1.5433  0.4612 -0.2108
  125OSM   C14S13264   4.367   5.539   3.513 -0.3230 -0.5346  0.0773
  125OSM   H14S13265   4.272   5.581   3.552 -1.0049  1.2255 -3.1721
  125OSM   H14T13266   4.445   5.610   3.547 -0.0683 -1.0824  0.6695
  125OSM   C15S13267   4.384   5.397   3.565  0.4682  0.4148  0.0097
  125OSM   H15S13268   4.477   5.348   3.528  0.7150 -0.5241  1.7609
  125OSM   H15T13269   4.294   5.344   3.528  0.9080 -0.2500 -0.1222
  125OSM   C16S13270   4.373   5.391   3.721  0.2258  0.3184 -0.5227
  125OSM   H16S13271   4.272   5.428   3.749 -0.3208 -0.0863 -1.8931
  125OSM   H16T13272   4.451   5.458   3.764 -0.2154 -0.3190  1.3310
  125OSM   C17S13273   4.403   5.254   3.789  0.9822  1.0737 -0.0187
  125OSM   H17S13274   4.501   5.218   3.749  0.1271  1.0590 -2.2572
  125OSM   H17T13275   4.322   5.184   3.760  2.4479 -0.2727 -1.0510
  125OSM   C18S13276   4.419   5.275   3.933 -0.1629 -0.5367  0.3807
  125OSM   H18S13277   4.433   5.180   3.989 -0.8046  0.0002  1.4832
  125OSM   H18T13278   4.348   5.348   3.977  0.9425  0.6815  0.1881
  125OSM   H18U13279   4.508   5.341   3.933 -2.4395  2.7360  0.2070
  125OSM    C1F13280   4.508   5.076   2.347 -1.0205 -0.3828  0.4127
  125OSM     OF13281   4.563   4.994   2.275 -0.5072  0.6493  0.0045
  125OSM    C2F13282   4.410   5.037   2.453 -0.1426 -0.2462 -0.2087
  125OSM    H2F13283   4.315   5.019   2.398  0.1694 -1.9933 -0.2279
  125OSM    H2G13284   4.379   5.127   2.511  0.9166  0.4196 -0.6428
  125OSM    C3F13285   4.458   4.909   2.526  0.0939  0.4448  0.0106
  125OSM    H3F13286   4.554   4.938   2.574 -1.5623  3.4199  1.8659
  125OSM    H3G13287   4.473   4.825   2.455 -2.9613 -0.6691  0.5233
  125OSM    C4F13288   4.379   4.861   2.647 -0.2300  0.2532 -0.8038
  125OSM    H4F13289   4.438   4.777   2.689  0.5472  1.9367  1.6849
  125OSM    H4G13290   4.275   4.826   2.630 -0.7530  0.8030  1.0744
  125OSM    C5F13291   4.366   4.963   2.762  0.2877 -0.8478  0.9531
  125OSM    H5F13292   4.280   5.032   2.749 -1.0372 -2.4793  0.8735
  125OSM    H5G13293   4.447   5.040   2.760 -1.9488  1.6790 -1.6301
  125OSM    C6F13294   4.348   4.891   2.893 -0.5902  0.3895 -0.6636
  125OSM    H6F13295   4.446   4.841   2.912  0.3226  2.3743  0.1964
  125OSM    H6G13296   4.277   4.807   2.890  0.6498 -0.6972 -0.6068
  125OSM    C7F13297   4.312   4.989   3.002  0.1700  0.0047  0.1351
  125OSM    H7F13298   4.212   5.030   2.978 -0.1866 -0.5138  0.7122
  125OSM    H7G13299   4.382   5.074   2.992 -0.0587  0.1329 -0.4123
  125OSM    C8F13300   4.320   4.939   3.149 -0.7339 -0.1229 -0.1769
  125OSM    H8F13301   4.417   4.885   3.161 -1.6724 -2.0433 -0.8136
  125OSM    H8G13302   4.262   4.844   3.141  0.2304 -0.8296  0.8976
  125OSM    C9F13303   4.299   5.032   3.261 -0.1914 -0.0765  0.4415
  125OSM    H9F13304   4.197   5.072   3.254 -0.1045  0.8980  3.3394
  125OSM   C10F13305   4.376   5.047   3.373 -0.0691  0.1336  0.2616
  125OSM   H10F13306   4.349   5.128   3.441  0.4974  2.0278 -1.6588
  125OSM   C11F13307   4.512   4.975   3.399  0.8852 -0.1516  0.1848
  125OSM   H11F13308   4.536   4.909   3.313 -0.8903 -0.3955 -0.1723
  125OSM   H11G13309   4.492   4.909   3.486  0.3182 -0.3667 -0.1040
  125OSM   C12F13310   4.632   5.065   3.434  0.1496 -0.5777 -0.3940
  125OSM   H12F13311   4.726   5.016   3.466  0.3677 -1.6142 -2.4520
  125OSM   H12G13312   4.600   5.133   3.516  0.1827  1.8301 -2.2648
  125OSM   C13F13313   4.673   5.146   3.307  0.2318  0.6342 -0.3998
  125OSM   H13F13314   4.740   5.231   3.334 -0.8378  2.0680 -2.0615
  125OSM   H13G13315   4.579   5.184   3.261 -1.2317 -1.0134  1.0695
  125OSM   C14F13316   4.752   5.054   3.216  0.4315  0.6995 -0.0171
  125OSM   H14F13317   4.708   4.953   3.200  1.8370 -0.0078  0.4025
  125OSM   H14G13318   4.849   5.035   3.267  0.4921 -3.6181 -1.3132
  125OSM   C15F13319   4.772   5.122   3.078  0.8428  0.3566 -0.1521
  125OSM   H15F13320   4.834   5.213   3.095  2.6947 -0.6542 -1.1890
  125OSM   H15G13321   4.675   5.164   3.045  0.4956  0.1897  0.6376
  125OSM   C16F13322   4.827   5.033   2.977 -0.6191  0.0689  0.3806
  125OSM   H16F13323   4.778   4.935   2.962  0.1796 -0.4050  0.7508
  125OSM   H16G13324   4.923   5.002   3.024  0.3826  1.8596 -0.3756
  125OSM   C17F13325   4.866   5.106   2.847  0.5195  0.0455  0.1001
  125OSM   H17F13326   4.934   5.036   2.794  0.2021 -2.3540  2.5860
  125OSM   H17G13327   4.913   5.199   2.886 -0.3263  0.0433  1.1780
  125OSM   C18F13328   4.746   5.143   2.761 -0.5214 -0.5779  0.4110
  125OSM   H18F13329   4.676   5.206   2.821 -0.4256  1.8139 -1.7871
  125OSM   H18G13330   4.699   5.053   2.715 -2.2079  0.7890 -0.6682
  125OSM   H18H13331   4.786   5.211   2.683  0.1082  0.5193  1.6480
  126OSM      N13332   3.137   6.610   1.762  0.7707 -0.3903  0.0659
  126OSM    C1513333   3.276   6.644   1.797 -0.6113  0.7637 -0.9045
  126OSM   H15A13334   3.349   6.612   1.724 -1.3176  1.3407 -1.8868
  126OSM   H15B13335   3.306   6.599   1.891  0.0608  0.4160 -1.2792
  126OSM   H15C13336   3.294   6.750   1.811 -0.3090  0.5380  0.6316
  126OSM    C1413337   3.053   6.652   1.877 -0.2518 -0.0256  0.1048
  126OSM   H14A13338   3.025   6.756   1.867  0.6843  0.1965 -0.3395
  126OSM   H14B13339   3.096   6.644   1.976 -2.8001 -2.4296  1.1469
  126OSM   H14C13340   2.962   6.597   1.890 -0.1968 -0.3606 -0.8223
  126OSM    C1313341   3.111   6.679   1.637 -0.1690  0.5668  0.1357
  126OSM   H13A13342   3.198   6.686   1.573  0.6064 -3.6244  0.4450
  126OSM   H13B13343   3.078   6.781   1.649  0.2288  0.7341 -0.1718
  126OSM   H13C13344   3.036   6.632   1.575  0.1004  1.5365 -0.9604
  126OSM    C1213345   3.134   6.453   1.738  0.0243 -0.5848  0.0286
  126OSM   H12A13346   3.134   6.401   1.833 -0.4186  0.6346  0.7236
  126OSM   H12B13347   3.216   6.417   1.678 -1.1041 -1.1028 -1.2612
  126OSM    C1113348   3.009   6.407   1.664 -0.0560  0.5035  0.6561
  126OSM   H11A13349   3.015   6.300   1.636 -2.9569  0.9452 -2.2611
  126OSM   H11B13350   2.996   6.446   1.561  0.0023 -0.5807  0.2285
  126OSM      P13351   2.822   6.356   1.855 -0.1725  0.3199  0.2807
  126OSM    O1313352   2.766   6.446   1.953 -0.0913 -0.5582  0.8515
  126OSM    O1413353   2.730   6.260   1.787  0.2532 -1.0408  0.3296
  126OSM    O1113354   2.936   6.263   1.920  0.0071  0.0643 -0.1186
  126OSM    O1213355   2.892   6.440   1.742 -0.2231 -0.0785 -0.3834
  126OSM    C1S13356   3.008   6.297   2.037  0.1093  0.4234 -0.0273
  126OSM    H1S13357   3.014   6.407   2.054 -1.4494  0.6244 -0.6391
  126OSM    H1T13358   3.113   6.261   2.034 -0.1567 -0.4747  1.0200
  126OSM     NF13359   3.018   6.289   2.289 -0.6257 -0.0199 -0.5227
  126OSM    HNF13360   3.087   6.218   2.301  3.2415  2.8735 -2.9833
  126OSM    C2S13361   2.938   6.251   2.173  0.2765 -0.4391  0.0248
  126OSM    H2S13362   2.839   6.301   2.181  0.1744 -0.2682 -1.9117
  126OSM    C3S13363   2.911   6.097   2.157  0.6220  0.4103 -0.2683
  126OSM    H3S13364   3.011   6.050   2.157  0.9183  0.8581  2.5739
  126OSM     O313365   2.825   6.058   2.052  0.4328 -0.2132  0.6065
  126OSM    HO313366   2.802   6.147   2.023  1.4864  0.2803  1.2287
  126OSM    C4S13367   2.848   6.052   2.295 -0.6793 -0.2705  0.7874
  126OSM    H4S13368   2.916   6.010   2.370 -2.6617 -1.1764  2.1544
  126OSM    C5S13369   2.719   6.045   2.331 -0.1461  0.0647 -0.3638
  126OSM    H5S13370   2.640   6.081   2.263 -0.0026 -0.0124 -0.5717
  126OSM    C6S13371   2.656   6.003   2.461 -0.6418  0.9505 -1.1801
  126OSM    H6S13372   2.727   5.938   2.517  0.2593  1.7634 -1.3449
  126OSM    H6T13373   2.559   5.950   2.446 -0.5578  0.7385 -0.9862
  126OSM    C7S13374   2.645   6.131   2.549  0.5269  0.0195  0.9490
  126OSM    H7S13375   2.585   6.212   2.501  0.0784 -1.1942 -0.6228
  126OSM    H7T13376   2.750   6.164   2.567  0.1083  0.5594  2.5416
  126OSM    C8S13377   2.579   6.096   2.680 -0.0031  0.1587  0.0553
  126OSM    H8S13378   2.642   6.021   2.733  2.6663  2.9291  1.1184
  126OSM    H8T13379   2.474   6.064   2.661 -0.5447  1.8950 -0.0594
  126OSM    C9S13380   2.577   6.211   2.785 -0.7092  0.3736  0.1001
  126OSM    H9S13381   2.519   6.300   2.752  0.0784  1.8691  2.4512
  126OSM    H9T13382   2.681   6.246   2.806 -1.3494  1.2864  1.9758
  126OSM   C10S13383   2.527   6.163   2.914 -0.1149 -0.4669 -0.6347
  126OSM   H10S13384   2.581   6.071   2.945 -1.8668 -2.1500 -2.2843
  126OSM   H10T13385   2.418   6.139   2.908 -0.3177  0.4912 -0.9843
  126OSM   C11S13386   2.525   6.271   3.023 -0.5105 -0.3023  0.9881
  126OSM   H11S13387   2.460   6.350   2.981  0.8919 -0.1933 -1.1256
  126OSM   H11T13388   2.626   6.314   3.037  0.0094 -1.5810  1.3466
  126OSM   C12S13389   2.491   6.247   3.168  0.2435  0.5445 -0.4783
  126OSM   H12S13390   2.512   6.146   3.210 -0.0602  0.9784  0.7664
  126OSM   H12T13391   2.382   6.260   3.184  0.4712  0.7795  1.0936
  126OSM   C13S13392   2.561   6.340   3.270 -0.4395 -0.1495  0.1664
  126OSM   H13S13393   2.568   6.438   3.217  0.1528  0.6573  1.6955
  126OSM   H13T13394   2.663   6.300   3.285 -0.6495 -0.1401  1.8151
  126OSM   C14S13395   2.485   6.374   3.401 -0.2494 -0.5990  0.6443
  126OSM   H14S13396   2.386   6.413   3.369  0.5108  1.3860  0.5740
  126OSM   H14T13397   2.541   6.456   3.451 -1.0870  2.2142 -2.6323
  126OSM   C15S13398   2.471   6.263   3.508 -0.0447  0.1025 -1.0956
  126OSM   H15S13399   2.563   6.201   3.505 -0.0474  0.0469 -0.2843
  126OSM   H15T13400   2.383   6.198   3.490 -0.4689  0.6848 -1.1494
  126OSM   C16S13401   2.449   6.314   3.652 -0.7616 -0.5982  0.6072
  126OSM   H16S13402   2.353   6.367   3.666 -0.2890  1.0438 -1.8122
  126OSM   H16T13403   2.535   6.379   3.679  0.1993 -1.0802 -1.1971
  126OSM   C17S13404   2.458   6.211   3.770 -0.4556  0.4884  0.9791
  126OSM   H17S13405   2.542   6.142   3.744 -0.0200  1.1556  0.5776
  126OSM   H17T13406   2.368   6.148   3.752 -0.1674  0.5650 -0.9337
  126OSM   C18S13407   2.477   6.274   3.901 -1.0732  0.3360 -0.2104
  126OSM   H18S13408   2.586   6.280   3.920 -1.2103 -1.1609  1.2722
  126OSM   H18T13409   2.450   6.205   3.983 -2.4497 -1.4925 -2.0841
  126OSM   H18U13410   2.433   6.376   3.912 -2.3277  0.3718 -3.9773
  126OSM    C1F13411   3.024   6.416   2.338  0.3608  0.0327  0.5985
  126OSM     OF13412   2.944   6.499   2.292  0.0357 -0.2674 -0.4518
  126OSM    C2F13413   3.132   6.456   2.425 -0.0938  0.3756 -0.7388
  126OSM    H2F13414   3.203   6.523   2.372  0.6212  1.1423  1.0841
  126OSM    H2G13415   3.179   6.357   2.444 -0.5055  0.2475 -0.3733
  126OSM    C3F13416   3.079   6.513   2.557  0.0787  0.5635  0.2556
  126OSM    H3F13417   3.022   6.608   2.546  1.2761  1.1915 -0.9131
  126OSM    H3G13418   3.170   6.522   2.620  1.5181 -1.6340 -1.3428
  126OSM    C4F13419   2.976   6.406   2.623  0.0827  0.3582  0.0468
  126OSM    H4F13420   3.012   6.305   2.596 -1.5235  0.1587 -1.4994
  126OSM    H4G13421   2.873   6.409   2.583  0.7004 -0.6629 -1.7396
  126OSM    C5F13422   2.973   6.416   2.774  0.3697 -0.0340 -0.2367
  126OSM    H5F13423   3.071   6.423   2.825  0.4773  0.1111 -0.4615
  126OSM    H5G13424   2.924   6.329   2.823 -0.8734 -0.5173 -2.1915
  126OSM    C6F13425   2.883   6.531   2.817 -0.3672 -0.8934  0.6921
  126OSM    H6F13426   2.794   6.555   2.754  0.7739  0.1760 -0.5942
  126OSM    H6G13427   2.949   6.616   2.789  1.0789 -2.1881  0.0080
  126OSM    C7F13428   2.846   6.531   2.968 -0.0673 -0.3579 -0.6369
  126OSM    H7F13429   2.813   6.428   2.993  0.1215 -0.2404  0.1205
  126OSM    H7G13430   2.756   6.594   2.983  0.3595  0.1771 -0.2715
  126OSM    C8F13431   2.952   6.559   3.070 -0.3565  0.2272  0.4193
  126OSM    H8F13432   3.043   6.500   3.048 -0.3912  0.5501 -0.6280
  126OSM    H8G13433   2.919   6.530   3.172  0.6839  0.8095  0.9322
  126OSM    C9F13434   3.000   6.700   3.062  0.6478  0.2363  0.0459
  126OSM    H9F13435   2.957   6.756   2.978  0.0648  0.4581  0.4931
  126OSM   C10F13436   3.080   6.759   3.150 -0.5054 -0.5167 -0.1978
  126OSM   H10F13437   3.093   6.868   3.143  2.1648 -0.6360  1.4655
  126OSM   C11F13438   3.138   6.696   3.271 -0.0482 -0.3035  0.9822
  126OSM   H11F13439   3.247   6.722   3.271 -0.4519  1.5583  1.6655
  126OSM   H11G13440   3.129   6.585   3.278  0.5827 -0.3987  0.4266
  126OSM   C12F13441   3.088   6.747   3.412  0.6451 -0.0476 -1.1445
  126OSM   H12F13442   2.996   6.685   3.429  1.6382 -0.8116  2.0775
  126OSM   H12G13443   3.062   6.854   3.405  2.0905  0.3139 -1.0704
  126OSM   C13F13444   3.198   6.712   3.515 -0.5105  0.2287 -0.0998
  126OSM   H13F13445   3.287   6.766   3.475 -0.5979  0.4552  0.0116
  126OSM   H13G13446   3.205   6.602   3.518  0.2670  0.2951  1.2038
  126OSM   C14F13447   3.163   6.761   3.659 -0.2704  0.4292  0.3015
  126OSM   H14F13448   3.058   6.729   3.677  0.1098 -0.1670  1.5172
  126OSM   H14G13449   3.179   6.869   3.683 -3.7143  0.8905  1.0903
  126OSM   C15F13450   3.244   6.684   3.764  0.7135  0.1449  0.4246
  126OSM   H15F13451   3.235   6.574   3.749  2.3213  0.0550 -0.0819
  126OSM   H15G13452   3.200   6.707   3.863  1.5044  1.7905  0.4309
  126OSM   C16F13453   3.396   6.716   3.780  0.4100 -0.4628  0.4212
  126OSM   H16F13454   3.448   6.692   3.685 -0.2601  0.8291 -0.3091
  126OSM   H16G13455   3.433   6.655   3.865 -0.9571  0.4887  1.7629
  126OSM   C17F13456   3.420   6.862   3.826 -0.0424 -0.2068 -0.5771
  126OSM   H17F13457   3.491   6.851   3.910 -0.1846 -0.1008 -0.4436
  126OSM   H17G13458   3.332   6.907   3.877  0.2092 -1.8027  1.3626
  126OSM   C18F13459   3.488   6.949   3.720  0.9003 -0.1537  0.3555
  126OSM   H18F13460   3.496   7.055   3.751 -0.8942  0.3315 -0.7376
  126OSM   H18G13461   3.428   6.948   3.626  0.3730 -0.5014  0.6913
  126OSM   H18H13462   3.586   6.899   3.702  0.5158 -0.5319 -0.7352
  127OSM      N13463   0.913   0.923   1.948  0.4909 -0.2645 -0.0429
  127OSM    C1513464   1.007   1.013   1.886  0.6817  0.0370 -0.2025
  127OSM   H15A13465   1.093   1.050   1.940  1.1104  1.8163 -1.9831
  127OSM   H15B13466   0.959   1.105   1.855 -0.1839  0.1192  1.2619
  127OSM   H15C13467   1.033   0.958   1.797 -1.7257 -1.6124  0.0125
  127OSM    C1413468   0.870   0.993   2.076  0.0990  0.1008  0.3345
  127OSM   H14A13469   0.787   0.942   2.123 -0.9066  0.1624 -1.2906
  127OSM   H14B13470   0.830   1.092   2.058 -1.9667 -0.9100 -1.0294
  127OSM   H14C13471   0.950   1.009   2.147 -0.6668  0.6884  1.0913
  127OSM    C1313472   0.790   0.919   1.862  0.4208 -0.3238 -0.2055
  127OSM   H13A13473   0.730   1.007   1.880  2.0876  0.6009  1.1759
  127OSM   H13B13474   0.728   0.832   1.878 -0.8598  1.0597  3.5583
  127OSM   H13C13475   0.826   0.933   1.762  0.1918  0.9458 -0.1318
  127OSM    C1213476   0.958   0.780   1.978 -0.6144  0.2999  0.2781
  127OSM   H12A13477   0.971   0.730   1.884 -1.9112 -0.3066  0.3976
  127OSM   H12B13478   0.881   0.727   2.032  2.0064 -0.2249  3.9086
  127OSM    C1113479   1.085   0.778   2.069  0.2776 -0.0970  0.3847
  127OSM   H11A13480   1.119   0.683   2.115  0.6675 -0.3836 -0.4999
  127OSM   H11B13481   1.068   0.834   2.164  1.2663 -0.4567  0.7830
  127OSM      P13482   1.283   0.746   1.903 -0.2699  0.0335  0.0058
  127OSM    O1313483   1.211   0.640   1.837  0.6378 -0.2944 -0.0628
  127OSM    O1413484   1.358   0.835   1.808  0.1558  0.2429  1.1355
  127OSM    O1113485   1.389   0.682   1.996 -0.5289 -0.3337  0.3727
  127OSM    O1213486   1.201   0.827   2.008  0.4965 -0.0210 -0.4000
  127OSM    C1S13487   1.468   0.752   2.081 -0.0569 -0.0587  0.1387
  127OSM    H1S13488   1.470   0.860   2.053  1.2409 -0.1643 -0.2450
  127OSM    H1T13489   1.572   0.711   2.079 -0.1285 -0.3087  1.0507
  127OSM     NF13490   1.517   0.812   2.320 -0.0148 -0.0357 -0.1149
  127OSM    HNF13491   1.601   0.772   2.357  0.8809  0.3105 -1.6884
  127OSM    C2S13492   1.436   0.730   2.227  0.1979  0.1282 -0.2007
  127OSM    H2S13493   1.327   0.755   2.228  0.5775  2.1818 -2.1591
  127OSM    C3S13494   1.435   0.586   2.258 -0.3178 -0.1055 -0.7887
  127OSM    H3S13495   1.536   0.543   2.239  1.2789  1.4516  3.0955
  127OSM     O313496   1.348   0.499   2.186 -0.7908 -0.4624  0.0578
  127OSM    HO313497   1.347   0.544   2.102  0.4642 -0.7749 -0.1424
  127OSM    C4S13498   1.399   0.563   2.402 -0.2999 -0.2372  0.1860
  127OSM    H4S13499   1.302   0.606   2.429 -0.1929  0.7749 -0.9364
  127OSM    C5S13500   1.477   0.498   2.491  0.0782 -0.7094 -0.2952
  127OSM    H5S13501   1.571   0.448   2.463  1.1769  1.1882 -0.1737
  127OSM    C6S13502   1.442   0.495   2.637 -0.1766  0.1482 -0.1711
  127OSM    H6S13503   1.511   0.420   2.680  0.3958 -0.1918 -1.6179
  127OSM    H6T13504   1.340   0.453   2.644  0.4839 -1.8680 -1.7488
  127OSM    C7S13505   1.480   0.617   2.718 -0.7320 -0.0252  0.0320
  127OSM    H7S13506   1.438   0.613   2.821  0.8394 -1.4605  0.6598
  127OSM    H7T13507   1.436   0.705   2.666 -2.2321 -0.9666 -0.3644
  127OSM    C8S13508   1.628   0.636   2.736 -0.5266 -0.6062 -0.6949
  127OSM    H8S13509   1.657   0.658   2.631 -5.0361 -2.4420 -2.6022
  127OSM    H8T13510   1.681   0.545   2.772  0.3423  0.2394  0.2673
  127OSM    C9S13511   1.664   0.748   2.836 -0.1423 -0.3958 -0.3171
  127OSM    H9S13512   1.611   0.843   2.815 -2.3398 -0.9757  2.1267
  127OSM    H9T13513   1.775   0.752   2.833 -0.0516 -0.6948  1.5072
  127OSM   C10S13514   1.633   0.711   2.977  0.5703 -0.3633  0.4475
  127OSM   H10S13515   1.654   0.604   3.000  1.4708 -0.1554  0.6360
  127OSM   H10T13516   1.527   0.735   2.999  1.3967  0.8281  3.7695
  127OSM   C11S13517   1.717   0.794   3.075  0.5722 -0.0998 -0.0563
  127OSM   H11S13518   1.715   0.904   3.060  1.4389  0.3403  2.5058
  127OSM   H11T13519   1.824   0.765   3.072  0.4674 -0.4147 -1.0364
  127OSM   C12S13520   1.666   0.758   3.214 -1.0216  0.1346  0.7897
  127OSM   H12S13521   1.692   0.652   3.231 -0.6861 -0.1203 -1.0685
  127OSM   H12T13522   1.555   0.771   3.221 -0.8388  3.3599 -0.4393
  127OSM   C13S13523   1.711   0.854   3.325 -0.2648 -1.1173 -0.2595
  127OSM   H13S13524   1.678   0.956   3.298  1.8357 -0.4454 -0.4583
  127OSM   H13T13525   1.822   0.860   3.326 -0.3102 -0.0124 -0.5054
  127OSM   C14S13526   1.668   0.820   3.469 -0.9243  0.0703  0.1149
  127OSM   H14S13527   1.708   0.718   3.488  0.1054  0.6034  0.9095
  127OSM   H14T13528   1.558   0.829   3.464 -0.9272  0.3779  0.6243
  127OSM   C15S13529   1.721   0.919   3.582  0.2743  0.4244 -0.0908
  127OSM   H15S13530   1.688   1.025   3.579 -2.0793 -0.1525  2.0468
  127OSM   H15T13531   1.831   0.933   3.583  0.4151 -0.4971 -0.9655
  127OSM   C16S13532   1.699   0.840   3.716  0.2034 -0.6686  0.3571
  127OSM   H16S13533   1.743   0.738   3.709  1.5932 -0.3900  3.1671
  127OSM   H16T13534   1.590   0.832   3.732  0.1479  0.9354  0.9636
  127OSM   C17S13535   1.764   0.897   3.835 -0.3017  0.1270 -0.3146
  127OSM   H17S13536   1.730   1.001   3.856  1.5364  0.2873  2.3173
  127OSM   H17T13537   1.872   0.899   3.810  0.3799 -1.5128  2.1866
  127OSM   C18S13538   1.733   0.827   3.968  0.2416 -0.0364  0.2421
  127OSM   H18S13539   1.779   0.870   4.060  0.2096  2.5410 -0.8616
  127OSM   H18T13540   1.779   0.726   3.974 -1.3240 -0.8566 -0.8047
  127OSM   H18U13541   1.623   0.813   3.983  0.0864 -0.6729 -1.3214
  127OSM    C1F13542   1.497   0.948   2.326  0.9517 -0.1987  0.1919
  127OSM     OF13543   1.430   1.013   2.249 -0.2500 -0.4680 -0.0442
  127OSM    C2F13544   1.573   1.024   2.431  0.5665  0.2160  0.3967
  127OSM    H2F13545   1.677   1.044   2.399  0.1044  0.8886 -0.7608
  127OSM    H2G13546   1.579   0.956   2.519  1.6480  0.9114  0.8795
  127OSM    C3F13547   1.503   1.153   2.483 -0.4369  0.1053  0.3432
  127OSM    H3F13548   1.397   1.144   2.517 -0.7054  0.2113 -0.4355
  127OSM    H3G13549   1.495   1.224   2.398  0.5035 -1.0699 -0.7741
  127OSM    C4F13550   1.581   1.214   2.596 -0.1371  0.1593  0.4493
  127OSM    H4F13551   1.684   1.226   2.556  0.0918 -0.9558  0.6977
  127OSM    H4G13552   1.595   1.144   2.680  2.1203 -0.1849 -0.1618
  127OSM    C5F13553   1.524   1.350   2.646 -0.2040 -0.2316 -0.1621
  127OSM    H5F13554   1.423   1.344   2.692 -0.1804  2.0724  0.3101
  127OSM    H5G13555   1.524   1.422   2.561  0.9969  0.9695  0.8050
  127OSM    C6F13556   1.611   1.399   2.761  0.0536  0.2249 -0.1228
  127OSM    H6F13557   1.599   1.509   2.772  1.3321  0.3842 -0.1345
  127OSM    H6G13558   1.720   1.389   2.738 -0.0329  1.3143 -1.1108
  127OSM    C7F13559   1.591   1.337   2.904 -0.0413  0.2278 -1.0057
  127OSM    H7F13560   1.594   1.226   2.915 -1.7480  0.3045  0.6863
  127OSM    H7G13561   1.488   1.372   2.930  0.3323 -0.3072  1.4534
  127OSM    C8F13562   1.683   1.401   3.004 -0.6750  0.5781 -0.5131
  127OSM    H8F13563   1.686   1.511   2.987 -0.5078  0.7052  0.2779
  127OSM    H8G13564   1.788   1.367   2.987 -0.6912 -0.9180  1.8641
  127OSM    C9F13565   1.646   1.376   3.143 -0.0310  0.4448 -0.7904
  127OSM    H9F13566   1.537   1.383   3.160  0.3283 -0.1915  2.5125
  127OSM   C10F13567   1.716   1.330   3.251 -0.5775  0.0121  0.0264
  127OSM   H10F13568   1.666   1.318   3.348  1.4129 -2.2513  0.8581
  127OSM   C11F13569   1.866   1.288   3.253 -0.3560  0.1986  0.5574
  127OSM   H11F13570   1.923   1.338   3.171  0.1735 -1.4905 -0.1448
  127OSM   H11G13571   1.878   1.180   3.232  0.9474  0.1688  1.3621
  127OSM   C12F13572   1.956   1.326   3.367 -0.3369  0.4234 -0.8118
  127OSM   H12F13573   1.967   1.435   3.384 -2.6911  0.6282 -0.2350
  127OSM   H12G13574   2.057   1.285   3.347 -0.1782  1.2308 -1.6959
  127OSM   C13F13575   1.892   1.260   3.490 -0.1627  0.7048  0.3947
  127OSM   H13F13576   1.872   1.153   3.466  0.6179  0.4572  0.8130
  127OSM   H13G13577   1.799   1.311   3.523  0.0511  0.5579  1.2563
  127OSM   C14F13578   1.990   1.254   3.607 -0.0519  0.6649 -0.3077
  127OSM   H14F13579   2.086   1.207   3.575  0.3366  0.9068  0.4530
  127OSM   H14G13580   1.946   1.190   3.686 -2.2452  2.6775  0.2013
  127OSM   C15F13581   2.019   1.386   3.673  0.4613 -0.0004  0.0995
  127OSM   H15F13582   1.929   1.449   3.690  0.4929  0.8023 -2.2954
  127OSM   H15G13583   2.068   1.449   3.595  2.0146  1.1946  1.9493
  127OSM   C16F13584   2.092   1.385   3.803 -0.2187 -0.0261  0.2267
  127OSM   H16F13585   2.192   1.345   3.774  0.0540  0.8518 -0.0833
  127OSM   H16G13586   2.047   1.310   3.871 -0.0281 -1.5928 -1.2865
  127OSM   C17F13587   2.114   1.521   3.876  0.4519 -0.4590 -0.5758
  127OSM   H17F13588   2.133   1.605   3.806  0.0102  1.7641  1.8503
  127OSM   H17G13589   2.217   1.503   3.915  0.0470 -4.2254 -0.8127
  127OSM   C18F13590   2.024   1.558   3.989  0.2897 -0.2285  0.6176
  127OSM   H18F13591   1.924   1.585   3.949 -0.4680 -3.7725 -0.2132
  127OSM   H18G13592   2.072   1.633   4.057 -2.9823  1.7854  0.9285
  127OSM   H18H13593   2.000   1.472   4.054 -1.2205  0.3618  0.8898
  128OSM      N13594   2.301   1.152   1.835  0.0965 -0.0166  0.3460
  128OSM    C1513595   2.347   1.288   1.861 -0.1771 -0.2420 -0.5027
  128OSM   H15A13596   2.323   1.313   1.963 -0.4941 -1.3472 -0.2915
  128OSM   H15B13597   2.295   1.356   1.795  0.8557  0.2010 -0.8878
  128OSM   H15C13598   2.454   1.295   1.843  0.1815 -2.7968  0.2378
  128OSM    C1413599   2.149   1.155   1.865 -0.4472 -0.9623 -0.6951
  128OSM   H14A13600   2.142   1.144   1.972  0.6831  2.2552 -0.1795
  128OSM   H14B13601   2.100   1.074   1.813  0.6163 -1.8572 -0.3433
  128OSM   H14C13602   2.104   1.249   1.837 -1.0514 -0.1655  2.5677
  128OSM    C1313603   2.328   1.110   1.689 -0.1934 -0.2504 -0.2410
  128OSM   H13A13604   2.303   1.005   1.688  1.3521 -0.6525 -0.6444
  128OSM   H13B13605   2.434   1.120   1.669 -0.4975  0.9682 -1.4140
  128OSM   H13C13606   2.267   1.165   1.619 -1.0345  1.1318  1.4918
  128OSM    C1213607   2.374   1.055   1.928  0.0668 -0.7586  0.3587
  128OSM   H12A13608   2.475   1.035   1.896 -0.5712  0.6283 -2.8820
  128OSM   H12B13609   2.339   0.955   1.908 -2.0354 -0.3045  1.4508
  128OSM    C1113610   2.370   1.076   2.080 -0.4659  0.6880  0.3993
  128OSM   H11A13611   2.400   1.178   2.112 -0.9488  0.2905  2.2396
  128OSM   H11B13612   2.451   1.013   2.122  0.0212  0.6765 -0.5411
  128OSM      P13613   2.176   0.907   2.134  0.0403  0.0654  0.1464
  128OSM    O1313614   2.036   0.920   2.168 -0.1204 -0.0202  0.0862
  128OSM    O1413615   2.206   0.835   2.011  0.4358 -0.3760 -0.5824
  128OSM    O1113616   2.242   0.843   2.262 -0.1695  1.0540  0.2290
  128OSM    O1213617   2.237   1.049   2.125  0.3962 -0.8490 -0.3064
  128OSM    C1S13618   2.316   0.915   2.368  0.0326 -0.1436 -0.0293
  128OSM    H1S13619   2.243   0.936   2.448  0.1225  0.2016 -0.0375
  128OSM    H1T13620   2.360   1.014   2.342 -0.3644  0.2362  0.7448
  128OSM     NF13621   2.478   0.885   2.550  0.2458  0.2395  0.5999
  128OSM    HNF13622   2.569   0.923   2.555  0.2232  0.7612 -1.7838
  128OSM    C2S13623   2.432   0.821   2.429 -0.5759  0.1252  0.7205
  128OSM    H2S13624   2.388   0.721   2.449  1.3150 -0.4229  2.3882
  128OSM    C3S13625   2.539   0.795   2.320 -0.3857  0.4651  0.4990
  128OSM    H3S13626   2.599   0.887   2.307  0.2004 -0.0122 -0.2460
  128OSM     O313627   2.485   0.775   2.189  0.3616  0.0531 -0.2859
  128OSM    HO313628   2.390   0.778   2.204  0.2117 -3.8526  0.5347
  128OSM    C4S13629   2.624   0.675   2.358 -0.1850 -0.6223 -0.5823
  128OSM    H4S13630   2.696   0.715   2.431 -2.5793  2.3438  0.3825
  128OSM    C5S13631   2.616   0.547   2.325 -0.5748  0.2088 -0.4404
  128OSM    H5S13632   2.534   0.518   2.257 -0.7080 -1.3247  0.3298
  128OSM    C6S13633   2.709   0.436   2.373 -0.8646  0.2102 -0.4093
  128OSM    H6S13634   2.743   0.360   2.299  2.1197 -0.8859  1.8891
  128OSM    H6T13635   2.656   0.378   2.451 -0.5983 -0.3392 -0.6299
  128OSM    C7S13636   2.843   0.483   2.447  0.1352 -0.7776  0.1221
  128OSM    H7S13637   2.821   0.544   2.537  1.4296 -0.8456  0.5020
  128OSM    H7T13638   2.906   0.542   2.377 -0.3897 -1.0814 -0.6157
  128OSM    C8S13639   2.930   0.363   2.493  0.8943 -0.7072  0.0112
  128OSM    H8S13640   3.026   0.399   2.536  1.8106 -4.0594  1.0646
  128OSM    H8T13641   2.934   0.295   2.405  1.9121 -0.0877 -0.4451
  128OSM    C9S13642   2.864   0.293   2.609 -0.1684 -0.7115 -0.2368
  128OSM    H9S13643   2.757   0.273   2.587  0.1653 -1.3835 -1.2915
  128OSM    H9T13644   2.866   0.350   2.705  1.9948 -1.7454  0.3958
  128OSM   C10S13645   2.922   0.162   2.646  0.6992 -0.0727 -0.0121
  128OSM   H10S13646   3.022   0.178   2.690  0.1841  0.2249  1.0852
  128OSM   H10T13647   2.939   0.102   2.554  1.6397  1.1962 -0.6815
  128OSM   C11S13648   2.865   0.075   2.760 -0.7049  0.4924 -0.6155
  128OSM   H11S13649   2.946   0.002   2.779  0.1332  1.0325 -2.0033
  128OSM   H11T13650   2.768   0.031   2.725 -0.0868 -2.5443  1.0872
  128OSM   C12S13651   2.846   0.155   2.886  0.1748  0.1278  0.3018
  128OSM   H12S13652   2.764   0.230   2.879  1.0891  1.1089 -0.1689
  128OSM   H12T13653   2.939   0.213   2.905  1.1736 -1.4982  0.6340
  128OSM   C13S13654   2.817   0.076   3.018 -0.1204  0.1884 -0.1867
  128OSM   H13S13655   2.832   0.144   3.104  0.6933 -1.5486  1.0837
  128OSM   H13T13656   2.902   0.005   3.023  1.0376  1.4325 -1.3729
  128OSM   C14S13657   2.686   0.010   3.035  0.2782  1.0671 -0.8042
  128OSM   H14S13658   2.652  -0.063   2.959 -1.5367 -0.2509  1.1781
  128OSM   H14T13659   2.612   0.093   3.030 -1.4981 -0.5041 -2.6033
  128OSM   C15S13660   2.666  -0.061   3.176  0.8159 -0.1745  0.5490
  128OSM   H15S13661   2.702   0.006   3.258  0.2101  0.5356  0.2439
  128OSM   H15T13662   2.736  -0.147   3.185 -1.0985 -2.1541 -1.9869
  128OSM   C16S13663   2.525  -0.118   3.210 -1.1139  0.9370  0.4767
  128OSM   H16S13664   2.452  -0.038   3.186 -0.6497  1.8810  2.0832
  128OSM   H16T13665   2.520  -0.134   3.320  1.3547 -0.0440  0.5250
  128OSM   C17S13666   2.495  -0.245   3.136  0.1931  0.2824  0.6009
  128OSM   H17S13667   2.577  -0.317   3.151  0.2794  0.2234 -0.1135
  128OSM   H17T13668   2.484  -0.229   3.027  1.7727 -0.2302  0.3441
  128OSM   C18S13669   2.367  -0.314   3.181 -0.2717  0.2050  1.2091
  128OSM   H18S13670   2.369  -0.318   3.292 -0.9157  1.0073  1.2641
  128OSM   H18T13671   2.354  -0.417   3.142 -0.7937  0.0476  1.7860
  128OSM   H18U13672   2.278  -0.257   3.145 -0.2855 -0.2226  0.5603
  128OSM    C1F13673   2.401   0.896   2.663 -0.8010 -0.3977  0.6154
  128OSM     OF13674   2.295   0.831   2.676 -0.1337 -0.1920  0.3587
  128OSM    C2F13675   2.449   0.989   2.758 -0.1332 -0.2760 -0.1684
  128OSM    H2F13676   2.387   0.981   2.850  0.3034  1.1551  0.2788
  128OSM    H2G13677   2.427   1.088   2.711 -1.1619 -0.2035  0.4424
  128OSM    C3F13678   2.596   0.969   2.789 -0.7904 -0.3925 -0.4163
  128OSM    H3F13679   2.625   1.032   2.876  2.2566 -0.8678 -0.9856
  128OSM    H3G13680   2.670   0.982   2.708  0.8452  0.7313  1.1727
  128OSM    C4F13681   2.623   0.822   2.842  0.5582 -0.2450  0.5760
  128OSM    H4F13682   2.623   0.749   2.758 -0.3092  2.5437 -2.0408
  128OSM    H4G13683   2.537   0.794   2.908  0.4072 -1.3548 -0.0693
  128OSM    C5F13684   2.744   0.811   2.927  0.4578 -0.2267 -0.5704
  128OSM    H5F13685   2.752   0.895   2.999  0.4779 -0.5379 -0.2027
  128OSM    H5G13686   2.832   0.804   2.860  1.1990 -1.1821  0.4723
  128OSM    C6F13687   2.760   0.676   2.998 -0.0936  0.2381  0.2953
  128OSM    H6F13688   2.739   0.592   2.928  0.9147  0.6700 -0.5549
  128OSM    H6G13689   2.685   0.667   3.079 -2.4206  1.0855 -1.6493
  128OSM    C7F13690   2.897   0.653   3.069 -0.7300 -0.1880  0.0143
  128OSM    H7F13691   2.909   0.721   3.155 -0.4077 -1.4308  0.9748
  128OSM    H7G13692   2.975   0.664   2.990  0.5178  0.4200  1.2839
  128OSM    C8F13693   2.921   0.509   3.130 -0.3257 -0.0542  0.1767
  128OSM    H8F13694   3.017   0.503   3.187  0.1934 -2.2451 -0.7921
  128OSM    H8G13695   2.923   0.446   3.039 -0.4688  1.4710 -0.9199
  128OSM    C9F13696   2.815   0.454   3.219  0.7136  0.7168 -0.4162
  128OSM    H9F13697   2.719   0.502   3.195 -0.0387 -0.0903  0.8810
  128OSM   C10F13698   2.823   0.362   3.315 -0.4599 -0.0284 -0.1402
  128OSM   H10F13699   2.732   0.340   3.372 -1.4153  0.0286 -1.6113
  128OSM   C11F13700   2.942   0.300   3.373 -0.5164  0.0351  0.0385
  128OSM   H11F13701   3.036   0.351   3.340 -2.2834  3.3861 -0.2857
  128OSM   H11G13702   2.950   0.196   3.335  1.7350 -0.1109  0.7726
  128OSM   C12F13703   2.953   0.289   3.528 -0.2881  0.0354 -0.4235
  128OSM   H12F13704   2.866   0.342   3.572 -0.7990 -1.0936 -0.0182
  128OSM   H12G13705   3.050   0.338   3.551  0.2950 -1.3587  0.2371
  128OSM   C13F13706   2.963   0.142   3.572 -0.3251 -0.2982 -0.4207
  128OSM   H13F13707   3.015   0.146   3.670  1.2379  1.1242 -1.2502
  128OSM   H13G13708   3.025   0.080   3.503 -0.8167 -1.3743  0.0812
  128OSM   C14F13709   2.830   0.062   3.584  0.2538 -0.4008  0.1079
  128OSM   H14F13710   2.783   0.064   3.484 -0.2985 -0.8015  0.3506
  128OSM   H14G13711   2.764   0.120   3.652  1.0429  0.8230 -0.1443
  128OSM   C15F13712   2.850  -0.080   3.641 -0.1808  0.6172  0.1260
  128OSM   H15F13713   2.918  -0.080   3.728 -1.5006 -2.9751  1.3436
  128OSM   H15G13714   2.904  -0.145   3.569 -0.4689  0.1030  0.3660
  128OSM   C16F13715   2.720  -0.149   3.696  0.2407  0.3377 -0.4837
  128OSM   H16F13716   2.683  -0.083   3.777  1.1921 -1.5830  1.6590
  128OSM   H16G13717   2.758  -0.239   3.749  1.7965  1.6672  0.7916
  128OSM   C17F13718   2.605  -0.178   3.596 -0.3410 -0.2872 -0.3019
  128OSM   H17F13719   2.646  -0.234   3.509  1.0212  0.6719 -0.3073
  128OSM   H17G13720   2.560  -0.084   3.558 -0.2745 -0.1436 -0.0254
  128OSM   C18F13721   2.488  -0.261   3.669  0.2503 -0.0181  0.0317
  128OSM   H18F13722   2.525  -0.356   3.714 -0.6126 -0.5493 -0.3680
  128OSM   H18G13723   2.402  -0.285   3.604 -1.2692  3.1703  0.6368
  128OSM   H18H13724   2.450  -0.188   3.744  0.5984 -0.5084  0.7023
  129OSM      N13725   4.269   4.933   1.770 -0.2580 -0.3068  0.6686
  129OSM    C1513726   4.149   4.873   1.704 -0.1307 -0.6773 -0.0322
  129OSM   H15A13727   4.057   4.916   1.739  1.6238  3.0513  0.5643
  129OSM   H15B13728   4.159   4.768   1.727  2.4509 -0.6213 -0.5253
  129OSM   H15C13729   4.158   4.880   1.596 -1.6610  3.1413 -0.0704
  129OSM    C1413730   4.358   4.819   1.802  0.4547 -0.4034  0.4994
  129OSM   H14A13731   4.307   4.738   1.851  0.8312 -0.3472  0.9931
  129OSM   H14B13732   4.449   4.851   1.851  1.8662  0.3580 -2.3808
  129OSM   H14C13733   4.385   4.771   1.709 -1.9029 -0.4911 -0.1918
  129OSM    C1313734   4.336   5.021   1.667  0.1399 -0.0734  0.3156
  129OSM   H13A13735   4.414   5.081   1.712  0.7992 -0.9650  0.3978
  129OSM   H13B13736   4.265   5.085   1.617  0.0762  1.4883  2.2958
  129OSM   H13C13737   4.383   4.972   1.583 -1.7784 -1.0212 -0.2545
  129OSM    C1213738   4.221   5.007   1.891 -0.1673  0.0677 -0.4310
  129OSM   H12A13739   4.174   4.942   1.962  0.0749  0.9451  0.5520
  129OSM   H12B13740   4.147   5.081   1.866  0.4327  0.8211 -0.0293
  129OSM    C1113741   4.332   5.068   1.977  0.3976 -0.3766 -0.1111
  129OSM   H11A13742   4.422   5.003   1.967  0.2020 -0.4336 -1.8250
  129OSM   H11B13743   4.304   5.068   2.085  3.5266  1.6089  0.8285
  129OSM      P13744   4.261   5.323   1.963  0.2736 -0.3171  0.7090
  129OSM    O1313745   4.328   5.454   1.973  0.1994  0.1661  0.3704
  129OSM    O1413746   4.153   5.301   1.861  0.1262 -0.1307 -0.2905
  129OSM    O1113747   4.208   5.296   2.109  0.0241 -0.9088 -0.0829
  129OSM    O1213748   4.363   5.203   1.941  1.4730 -0.2694 -0.6716
  129OSM    C1S13749   4.063   5.298   2.137 -0.1003 -0.3296  0.6487
  129OSM    H1S13750   4.004   5.243   2.061  1.6350 -2.0599  0.4526
  129OSM    H1T13751   4.031   5.405   2.142  0.0978 -0.3202  3.0875
  129OSM     NF13752   3.890   5.242   2.310 -0.2578  0.8573 -0.2495
  129OSM    HNF13753   3.867   5.295   2.391  0.3984  0.5401  0.1539
  129OSM    C2S13754   4.033   5.236   2.282 -0.1133  0.8222 -0.1699
  129OSM    H2S13755   4.076   5.134   2.276  0.0571  0.9254 -0.6928
  129OSM    C3S13756   4.122   5.303   2.390  0.4676  0.3052  0.0311
  129OSM    H3S13757   4.092   5.409   2.384  1.2189  0.4653 -1.4609
  129OSM     O313758   4.258   5.308   2.363  0.0438  0.0781 -0.4933
  129OSM    HO313759   4.260   5.296   2.268  1.3819 -1.2753 -0.3423
  129OSM    C4S13760   4.101   5.254   2.524 -0.4463  0.3034  0.3421
  129OSM    H4S13761   4.099   5.145   2.541  1.4318  0.4676  1.9070
  129OSM    C5S13762   4.107   5.320   2.642  0.5828  0.2805  0.4112
  129OSM    H5S13763   4.137   5.426   2.646  0.1684  0.4021  0.3250
  129OSM    C6S13764   4.083   5.252   2.773  0.3637 -0.1336  0.1991
  129OSM    H6S13765   4.183   5.224   2.812  0.8615  1.0490 -0.1712
  129OSM    H6T13766   4.011   5.170   2.752 -1.5309  1.7852 -1.2848
  129OSM    C7S13767   4.021   5.353   2.880 -0.6688 -0.1731  0.2463
  129OSM    H7S13768   3.919   5.381   2.847 -0.8666 -0.5453  0.5409
  129OSM    H7T13769   4.086   5.443   2.881 -1.6427  0.5534 -0.2599
  129OSM    C8S13770   4.032   5.284   3.025 -0.2658 -0.2235 -0.1498
  129OSM    H8S13771   4.136   5.249   3.040  0.1563  1.7591  2.1386
  129OSM    H8T13772   3.951   5.208   3.027 -1.0955  0.6507  0.2590
  129OSM    C9S13773   4.014   5.392   3.134 -0.5164 -0.1884 -0.0245
  129OSM    H9S13774   3.923   5.449   3.105 -1.2142 -1.6810 -0.8965
  129OSM    H9T13775   4.100   5.462   3.134 -1.3614  0.8763  0.2106
  129OSM   C10S13776   3.997   5.335   3.277  0.6542 -0.4559 -0.0385
  129OSM   H10S13777   4.097   5.288   3.296 -0.0334 -1.9676  0.0178
  129OSM   H10T13778   3.921   5.255   3.270  0.1551 -0.1710  1.7118
  129OSM   C11S13779   3.963   5.433   3.390 -0.0470  0.2268 -0.7891
  129OSM   H11S13780   3.872   5.492   3.363 -0.3623  0.3382  0.4316
  129OSM   H11T13781   4.037   5.516   3.393 -0.8037  0.8958  1.5663
  129OSM   C12S13782   3.949   5.374   3.530  0.4201 -0.5925  0.2105
  129OSM   H12S13783   4.040   5.312   3.546  2.4095  1.3192 -2.6031
  129OSM   H12T13784   3.865   5.302   3.533  1.6647 -2.1607 -0.9816
  129OSM   C13S13785   3.945   5.476   3.644  0.8135 -0.3213 -0.3708
  129OSM   H13S13786   3.861   5.548   3.634  0.5867 -0.9311 -4.0195
  129OSM   H13T13787   4.043   5.529   3.639  2.0962 -2.5777 -0.1304
  129OSM   C14S13788   3.927   5.408   3.784  1.1391 -1.1086  0.2894
  129OSM   H14S13789   4.013   5.339   3.791  2.0176  0.0448  1.5354
  129OSM   H14T13790   3.832   5.352   3.776 -0.3729  1.3014  0.3406
  129OSM   C15S13791   3.930   5.512   3.910  0.7504 -0.8057 -0.3017
  129OSM   H15S13792   3.868   5.598   3.875 -0.1994 -1.0251  0.7815
  129OSM   H15T13793   4.024   5.567   3.931 -0.6932  0.6872  2.8564
  129OSM   C16S13794   3.866   5.471   4.042 -0.2919 -0.5246  0.4138
  129OSM   H16S13795   3.761   5.443   4.019 -0.5243  0.8252 -0.3067
  129OSM   H16T13796   3.861   5.557   4.113  0.7122 -0.2419  0.1644
  129OSM   C17S13797   3.938   5.355   4.112  0.0083  0.1993  0.9640
  129OSM   H17S13798   3.969   5.280   4.037 -2.4360 -0.3525  0.4094
  129OSM   H17T13799   3.865   5.292   4.167 -0.5249 -0.4439 -0.4385
  129OSM   C18S13800   4.057   5.381   4.210  0.5599  0.4744  0.9056
  129OSM   H18S13801   4.067   5.286   4.267  0.6080 -0.5048 -0.6774
  129OSM   H18T13802   4.044   5.456   4.291  1.6690  1.9129 -0.2185
  129OSM   H18U13803   4.151   5.397   4.153 -0.7272  2.1431 -0.9036
  129OSM    C1F13804   3.790   5.182   2.242 -0.3468  0.6602 -0.2900
  129OSM     OF13805   3.816   5.102   2.151 -0.4650  0.3893  0.4529
  129OSM    C2F13806   3.649   5.215   2.282  0.2477 -0.8215 -0.3006
  129OSM    H2F13807   3.587   5.254   2.199  1.2378 -2.4651 -1.8956
  129OSM    H2G13808   3.643   5.280   2.372  0.2428 -2.5188  0.9900
  129OSM    C3F13809   3.562   5.085   2.333 -0.1734 -0.3343  0.4971
  129OSM    H3F13810   3.547   5.006   2.256 -0.8084  0.5500 -0.3110
  129OSM    H3G13811   3.465   5.122   2.371 -0.0916  1.1020 -0.6100
  129OSM    C4F13812   3.622   4.994   2.444  0.8776  0.0024  0.3611
  129OSM    H4F13813   3.705   4.945   2.388  0.8636  2.5927 -2.1501
  129OSM    H4G13814   3.547   4.922   2.485 -0.7315  1.2562 -0.2531
  129OSM    C5F13815   3.688   5.067   2.558  0.3394  0.1569 -0.4821
  129OSM    H5F13816   3.766   5.137   2.520  0.3481  0.8680  0.7835
  129OSM    H5G13817   3.747   4.998   2.622 -0.0293 -0.3721 -0.7048
  129OSM    C6F13818   3.591   5.131   2.662  0.4155 -0.2666 -0.2446
  129OSM    H6F13819   3.518   5.052   2.691  1.8023 -2.2314 -1.7937
  129OSM    H6G13820   3.535   5.217   2.620  1.2158 -0.5861 -2.0378
  129OSM    C7F13821   3.663   5.169   2.798  0.4205  0.0839  0.2925
  129OSM    H7F13822   3.715   5.265   2.778 -2.4715  2.2574  2.3001
  129OSM    H7G13823   3.742   5.096   2.827 -1.1316 -1.3998  0.9159
  129OSM    C8F13824   3.589   5.192   2.927 -0.5694  1.0867  0.2561
  129OSM    H8F13825   3.583   5.096   2.984  0.8308  0.6833 -0.2383
  129OSM    H8G13826   3.490   5.237   2.908 -1.1032 -0.2418 -0.2197
  129OSM    C9F13827   3.663   5.292   3.014  0.2576  0.0405 -0.4107
  129OSM    H9F13828   3.706   5.370   2.949  0.0917 -0.3497 -0.9952
  129OSM   C10F13829   3.684   5.296   3.148 -0.3200  0.6144  0.5843
  129OSM   H10F13830   3.752   5.370   3.195 -1.4588  1.8978  0.2852
  129OSM   C11F13831   3.624   5.206   3.257 -0.0944 -0.6536  0.0318
  129OSM   H11F13832   3.691   5.119   3.272 -2.0642 -3.1135 -3.8608
  129OSM   H11G13833   3.523   5.168   3.229 -1.2121  0.4940  2.2551
  129OSM   C12F13834   3.600   5.289   3.383  0.0103  0.3707  0.4824
  129OSM   H12F13835   3.505   5.344   3.365 -1.0572 -1.8538 -1.2002
  129OSM   H12G13836   3.690   5.354   3.393 -2.1778  3.3545  2.3029
  129OSM   C13F13837   3.589   5.201   3.507  0.5541  0.0792 -0.1394
  129OSM   H13F13838   3.684   5.149   3.530  1.0317  0.6747 -0.7160
  129OSM   H13G13839   3.515   5.121   3.488  1.7479 -1.6996  2.2135
  129OSM   C14F13840   3.549   5.283   3.630 -0.2569  0.2433 -0.0913
  129OSM   H14F13841   3.449   5.327   3.612  0.0627 -0.0463 -3.0281
  129OSM   H14G13842   3.620   5.367   3.645 -0.3544  0.0305  1.7712
  129OSM   C15F13843   3.545   5.213   3.759  0.4015 -0.2318  0.3831
  129OSM   H15F13844   3.638   5.153   3.769 -1.4942 -3.8763 -1.4918
  129OSM   H15G13845   3.473   5.128   3.752  1.7946 -1.3923 -0.6296
  129OSM   C16F13846   3.535   5.312   3.879 -0.1353  0.2155 -0.0885
  129OSM   H16F13847   3.432   5.352   3.882  0.1350  0.8711  1.3900
  129OSM   H16G13848   3.604   5.398   3.874 -2.2169  2.0642  1.3414
  129OSM   C17F13849   3.586   5.232   4.007 -0.0572  0.0223  0.1033
  129OSM   H17F13850   3.686   5.221   3.958 -1.7890 -0.3873 -3.7134
  129OSM   H17G13851   3.541   5.132   3.988  0.0329  0.2398 -1.3936
  129OSM   C18F13852   3.571   5.295   4.141  0.4186  0.5730 -0.5412
  129OSM   H18F13853   3.598   5.402   4.150  1.0365  0.3278  0.7248
  129OSM   H18G13854   3.634   5.247   4.219 -2.1863  0.9570  1.9798
  129OSM   H18H13855   3.471   5.272   4.184 -0.3935  4.1643 -0.1499
  130OSM      N13856   1.797   2.127   1.811 -0.0088 -0.2649 -0.3749
  130OSM    C1513857   1.692   2.237   1.797  0.4660  0.0844 -0.0411
  130OSM   H15A13858   1.627   2.242   1.711 -0.3477 -1.1693  0.4657
  130OSM   H15B13859   1.734   2.337   1.801 -0.8045  0.9210 -3.8479
  130OSM   H15C13860   1.618   2.241   1.876 -0.3293  0.6064 -0.7843
  130OSM    C1413861   1.885   2.131   1.693 -0.1412  0.1855  0.0886
  130OSM   H14A13862   1.834   2.117   1.598 -1.2265  0.2779  0.6360
  130OSM   H14B13863   1.967   2.061   1.691  0.8307  1.2982 -0.6317
  130OSM   H14C13864   1.926   2.229   1.679 -2.6851  1.0651 -2.0930
  130OSM    C1313865   1.888   2.160   1.927 -0.1208 -0.6051 -0.0220
  130OSM   H13A13866   1.941   2.068   1.948 -1.6064 -1.2059  1.2752
  130OSM   H13B13867   1.840   2.191   2.019 -1.9176 -0.4692 -0.9660
  130OSM   H13C13868   1.960   2.233   1.895 -1.0203  0.5625  0.5407
  130OSM    C1213869   1.732   1.997   1.828  0.0764  0.5460 -0.6599
  130OSM   H12A13870   1.649   1.986   1.760  0.7668 -0.6745 -1.3538
  130OSM   H12B13871   1.687   1.990   1.926 -1.8387 -0.0913 -1.5262
  130OSM    C1113872   1.812   1.854   1.828 -0.6885 -0.5372 -0.2170
  130OSM   H11A13873   1.869   1.855   1.732 -2.2890 -1.7888 -1.2326
  130OSM   H11B13874   1.739   1.771   1.821 -0.8032 -0.3274 -2.5615
  130OSM      P13875   1.988   1.717   1.973 -0.1515  0.4290 -0.3085
  130OSM    O1313876   1.903   1.600   2.013 -0.2036 -0.6854  0.2515
  130OSM    O1413877   2.079   1.697   1.858  0.1347  0.3896 -0.0416
  130OSM    O1113878   2.071   1.770   2.097 -0.1482 -0.5774 -0.0900
  130OSM    O1213879   1.895   1.836   1.946  0.3204 -0.5680  0.3261
  130OSM    C1S13880   2.118   1.903   2.107  0.2360 -0.6256  0.0441
  130OSM    H1S13881   2.037   1.978   2.099  1.0839  0.3403  0.3237
  130OSM    H1T13882   2.200   1.931   2.037 -2.2133  0.6840 -2.5021
  130OSM     NF13883   2.177   2.079   2.270 -0.0987 -0.3224 -0.5980
  130OSM    HNF13884   2.260   2.127   2.243 -1.1791  1.3493 -1.1493
  130OSM    C2S13885   2.170   1.938   2.254 -0.7977  0.5271  0.0565
  130OSM    H2S13886   2.086   1.901   2.317  1.4756  1.3886  3.9393
  130OSM    C3S13887   2.306   1.859   2.284 -0.3527  0.1577 -0.4405
  130OSM    H3S13888   2.385   1.889   2.212  0.2976  1.6437  0.8209
  130OSM     O313889   2.281   1.718   2.277 -0.0786  0.2224 -0.0888
  130OSM    HO313890   2.192   1.720   2.240 -0.2236  0.4970  0.2737
  130OSM    C4S13891   2.363   1.896   2.418 -0.4000 -0.0675  0.1940
  130OSM    H4S13892   2.398   2.000   2.414 -2.3500  0.6057 -0.6133
  130OSM    C5S13893   2.373   1.825   2.528 -0.2668 -0.5129 -0.4709
  130OSM    H5S13894   2.349   1.718   2.529  0.4447 -0.7331  2.9115
  130OSM    C6S13895   2.426   1.881   2.657 -0.1316  0.4459  0.4019
  130OSM    H6S13896   2.509   1.954   2.641  0.3064 -0.4245 -1.4399
  130OSM    H6T13897   2.467   1.794   2.714 -1.2639 -0.0340  0.5049
  130OSM    C7S13898   2.316   1.960   2.727  0.3252 -0.8986  0.1518
  130OSM    H7S13899   2.233   1.895   2.761 -0.2296 -0.3906 -0.2081
  130OSM    H7T13900   2.262   2.031   2.661 -0.3374  1.4104  2.9527
  130OSM    C8S13901   2.373   2.042   2.842  0.0276  0.2510  0.0063
  130OSM    H8S13902   2.319   2.138   2.855  0.9600  0.5382  2.1185
  130OSM    H8T13903   2.482   2.059   2.826 -0.2135  1.1467 -0.7814
  130OSM    C9S13904   2.356   1.980   2.976  0.9126  0.2589 -0.3703
  130OSM    H9S13905   2.256   1.939   3.000  1.6218 -0.2099  2.0606
  130OSM    H9T13906   2.377   2.066   3.042  1.0949 -0.1166  0.0694
  130OSM   C10S13907   2.470   1.878   3.022  0.2475 -0.0224 -0.7398
  130OSM   H10S13908   2.567   1.933   3.030  0.1632  0.1122 -0.6541
  130OSM   H10T13909   2.490   1.795   2.951 -1.3929 -2.1637  1.1640
  130OSM   C11S13910   2.441   1.813   3.151 -0.3228  0.5532 -0.9654
  130OSM   H11S13911   2.359   1.739   3.141 -2.1286  2.0949  1.4501
  130OSM   H11T13912   2.403   1.889   3.222 -0.2148 -0.4440  0.2064
  130OSM   C12S13913   2.558   1.736   3.205 -0.3230  0.1598 -0.4326
  130OSM   H12S13914   2.599   1.662   3.134 -0.2353 -0.3567  0.1468
  130OSM   H12T13915   2.518   1.671   3.287 -2.1718 -1.1626 -2.2911
  130OSM   C13S13916   2.676   1.822   3.262  0.1588  0.2681 -0.0376
  130OSM   H13S13917   2.634   1.889   3.340  1.7988 -1.0186  2.0445
  130OSM   H13T13918   2.704   1.891   3.179 -0.5743  0.6633  0.0287
  130OSM   C14S13919   2.798   1.753   3.330 -0.4391  0.1528  0.1020
  130OSM   H14S13920   2.831   1.676   3.258 -0.0504  1.0789 -0.7282
  130OSM   H14T13921   2.758   1.701   3.420 -0.5715  0.1730  0.0553
  130OSM   C15S13922   2.915   1.848   3.363 -0.1664  0.4583 -0.2287
  130OSM   H15S13923   3.006   1.796   3.400 -0.1792  1.4810  1.3735
  130OSM   H15T13924   2.877   1.916   3.442 -3.0674 -0.5493 -0.6379
  130OSM   C16S13925   2.966   1.918   3.234 -0.4737 -0.8043 -0.8949
  130OSM   H16S13926   2.895   1.995   3.196  1.1083  1.3001  0.2112
  130OSM   H16T13927   2.980   1.836   3.160 -0.2742  0.0699 -1.8315
  130OSM   C17S13928   3.101   1.986   3.262  0.4018  0.7686 -0.3774
  130OSM   H17S13929   3.180   1.909   3.274 -2.8378 -2.7695  0.4807
  130OSM   H17T13930   3.088   2.047   3.354 -2.8122 -1.4685  0.8494
  130OSM   C18S13931   3.143   2.064   3.138 -0.2217  0.3252 -0.2723
  130OSM   H18S13932   3.240   2.115   3.151 -0.2829  0.7660 -1.4250
  130OSM   H18T13933   3.071   2.145   3.113 -0.0247  0.4604 -0.4064
  130OSM   H18U13934   3.160   2.001   3.048  0.3684  1.1540 -0.7506
  130OSM    C1F13935   2.071   2.160   2.288 -0.4500 -0.4687 -0.5938
  130OSM     OF13936   2.068   2.261   2.213  0.0635  0.6612  0.1652
  130OSM    C2F13937   1.969   2.122   2.387  0.1923  0.4340  0.4925
  130OSM    H2F13938   2.004   2.033   2.444 -0.7308 -0.3676 -0.1370
  130OSM    H2G13939   1.871   2.093   2.342  0.0839  1.2866  0.1718
  130OSM    C3F13940   1.937   2.250   2.469 -0.3466 -0.1656 -0.5365
  130OSM    H3F13941   1.896   2.332   2.406  0.8736  0.0644 -1.0585
  130OSM    H3G13942   2.032   2.287   2.513  0.2324  0.5155 -2.2764
  130OSM    C4F13943   1.839   2.221   2.583 -0.2427 -0.1855 -0.5426
  130OSM    H4F13944   1.768   2.149   2.537  0.8313 -1.1495 -0.7140
  130OSM    H4G13945   1.784   2.315   2.607 -1.3937 -1.3418  1.7705
  130OSM    C5F13946   1.905   2.148   2.700 -0.2132 -0.0126  0.0945
  130OSM    H5F13947   1.956   2.054   2.668  1.2070  1.4460 -2.2457
  130OSM    H5G13948   1.823   2.122   2.770  0.2603  1.7215  1.3584
  130OSM    C6F13949   1.997   2.234   2.791  0.9818 -0.1007  0.5996
  130OSM    H6F13950   1.954   2.337   2.797  1.1171 -0.1127  2.4393
  130OSM    H6G13951   2.096   2.241   2.742  0.2873 -1.7511 -1.1874
  130OSM    C7F13952   2.019   2.173   2.929 -0.2751  0.0590 -0.7496
  130OSM    H7F13953   2.083   2.251   2.975  0.2124 -1.1513  0.7002
  130OSM    H7G13954   2.061   2.070   2.934 -0.7175 -0.0701  0.6700
  130OSM    C8F13955   1.891   2.144   3.011  0.0205  0.1301 -0.1385
  130OSM    H8F13956   1.926   2.103   3.108  0.2256  4.0492  1.6449
  130OSM    H8G13957   1.830   2.062   2.966 -0.6871  1.0159 -0.8451
  130OSM    C9F13958   1.804   2.267   3.015 -1.0840 -0.3624 -0.1038
  130OSM    H9F13959   1.761   2.296   2.918  0.6012 -0.0343 -0.7866
  130OSM   C10F13960   1.789   2.343   3.131  0.1625  0.0331  0.5977
  130OSM   H10F13961   1.734   2.438   3.126  2.3212  1.2791 -1.1405
  130OSM   C11F13962   1.844   2.318   3.266 -1.0933  0.3951  0.6393
  130OSM   H11F13963   1.894   2.412   3.297  0.1271 -0.7965  2.5250
  130OSM   H11G13964   1.924   2.240   3.263 -3.1269 -1.7833 -1.0931
  130OSM   C12F13965   1.741   2.273   3.365 -0.5928  0.1400  0.1437
  130OSM   H12F13966   1.711   2.170   3.335  0.3880  0.0552 -0.5664
  130OSM   H12G13967   1.658   2.347   3.373  1.1351  2.0672  1.1902
  130OSM   C13F13968   1.799   2.241   3.502 -0.0328 -0.5162 -0.3223
  130OSM   H13F13969   1.822   2.336   3.555 -1.9413  0.5395 -1.2986
  130OSM   H13G13970   1.891   2.179   3.494  0.2020 -0.0170 -1.6131
  130OSM   C14F13971   1.700   2.169   3.595  0.4945  0.6357 -0.2212
  130OSM   H14F13972   1.758   2.134   3.683 -1.1418 -1.9124 -0.0461
  130OSM   H14G13973   1.667   2.075   3.545  3.9367 -0.1646 -1.2945
  130OSM   C15F13974   1.593   2.264   3.640  0.9911 -0.1888 -0.1219
  130OSM   H15F13975   1.543   2.299   3.547 -0.7504  0.2398  0.9344
  130OSM   H15G13976   1.621   2.358   3.691 -0.5807  1.2711 -1.8021
  130OSM   C16F13977   1.494   2.193   3.737 -0.2433  0.1608 -0.2944
  130OSM   H16F13978   1.448   2.111   3.678 -0.9336 -1.4082  2.2851
  130OSM   H16G13979   1.422   2.271   3.771 -1.6138 -0.7348 -1.0298
  130OSM   C17F13980   1.551   2.129   3.864  0.3511 -0.6913 -0.1868
  130OSM   H17F13981   1.607   2.035   3.843  1.1264 -1.3941  3.9806
  130OSM   H17G13982   1.467   2.087   3.925  0.9918 -2.4447 -0.4524
  130OSM   C18F13983   1.643   2.214   3.961  0.4861  0.3223  0.5352
  130OSM   H18F13984   1.613   2.320   3.968 -0.3774  0.2282 -1.2312
  130OSM   H18G13985   1.744   2.209   3.915  0.3958 -1.4027  0.4578
  130OSM   H18H13986   1.637   2.171   4.063  2.4995 -1.1502  0.1060
  131OSM      N13987   1.604   6.143   2.377  0.3942 -0.1095 -0.1660
  131OSM    C1513988   1.511   6.247   2.415 -0.1649  0.0716  0.5447
  131OSM   H15A13989   1.551   6.292   2.505  0.7477  0.2022  0.0782
  131OSM   H15B13990   1.419   6.197   2.442 -0.9730  0.7249 -0.8941
  131OSM   H15C13991   1.506   6.326   2.341 -1.5473 -2.3661 -2.1584
  131OSM    C1413992   1.624   6.057   2.502  0.0191  0.4906 -0.4876
  131OSM   H14A13993   1.681   6.105   2.579 -1.6716  0.2348  0.9799
  131OSM   H14B13994   1.675   5.964   2.479 -2.6492 -1.3987  0.7464
  131OSM   H14C13995   1.530   6.021   2.542  0.5181 -0.6816 -0.3065
  131OSM    C1313996   1.545   6.037   2.280  0.0281 -0.2215  0.2441
  131OSM   H13A13997   1.471   5.972   2.324  0.3227 -0.4203  0.4476
  131OSM   H13B13998   1.628   5.974   2.253  0.4676 -0.3942  1.8701
  131OSM   H13C13999   1.495   6.084   2.197  2.2897  1.6917 -0.1453
  131OSM    C1214000   1.736   6.201   2.326  0.0494  0.2571 -0.4128
  131OSM   H12A14001   1.774   6.274   2.397 -0.4121  1.5492 -1.4493
  131OSM   H12B14002   1.715   6.255   2.235 -0.0121  1.2129  0.1523
  131OSM    C1114003   1.852   6.104   2.289 -0.1107  0.0782  0.0736
  131OSM   H11A14004   1.924   6.168   2.234  1.0310  0.8241  2.2680
  131OSM   H11B14005   1.821   6.017   2.228  1.1428 -2.0033  2.1999
  131OSM      P14006   2.011   5.947   2.415 -0.0182 -0.3818 -0.6320
  131OSM    O1314007   1.948   5.844   2.334  0.6927 -0.7185  0.1447
  131OSM    O1414008   2.138   6.002   2.360  0.1720 -0.2317  0.3785
  131OSM    O1114009   2.016   5.904   2.567 -0.1734 -0.5303  0.4909
  131OSM    O1214010   1.910   6.062   2.411  0.1160 -0.0077 -0.8417
  131OSM    C1S14011   1.911   5.926   2.656  0.1879 -1.1516 -0.4743
  131OSM    H1S14012   1.826   5.861   2.628  0.7254 -1.7749 -0.6823
  131OSM    H1T14013   1.881   6.033   2.666 -0.9934 -1.6181  1.3660
  131OSM     NF14014   1.819   5.941   2.879  0.1688 -0.5395 -0.5259
  131OSM    HNF14015   1.815   6.041   2.888 -1.1828 -0.6126 -0.1065
  131OSM    C2S14016   1.938   5.900   2.805 -0.3593 -0.1044  0.5604
  131OSM    H2S14017   1.970   5.793   2.810 -1.6119 -0.5736 -0.8077
  131OSM    C3S14018   2.071   5.976   2.854  0.2480  0.9940  0.2875
  131OSM    H3S14019   2.074   6.082   2.820  0.0787  0.4747 -1.4081
  131OSM     O314020   2.185   5.918   2.791 -0.4623 -0.1440  0.5439
  131OSM    HO314021   2.150   5.874   2.713 -1.8611  1.6073  0.1107
  131OSM    C4S14022   2.088   5.955   3.000 -0.0099 -0.4465 -0.1873
  131OSM    H4S14023   2.156   5.870   3.018  2.2379  0.9601 -1.6260
  131OSM    C5S14024   2.035   6.037   3.099 -0.1499  0.2503  0.5599
  131OSM    H5S14025   1.964   6.120   3.084 -0.2950  0.5979  2.7487
  131OSM    C6S14026   2.057   6.012   3.245 -0.3948 -0.2385 -0.3117
  131OSM    H6S14027   2.077   6.111   3.292  1.0285 -1.1850  1.1816
  131OSM    H6T14028   2.152   5.955   3.255  0.2810 -0.0449 -4.1304
  131OSM    C7S14029   1.937   5.959   3.319 -0.3754 -0.3168 -0.1199
  131OSM    H7S14030   1.852   6.029   3.306 -0.9428 -1.1135 -0.8586
  131OSM    H7T14031   1.951   5.947   3.429 -1.8584 -0.7244  0.0467
  131OSM    C8S14032   1.879   5.833   3.259 -0.1041  0.0276 -0.2815
  131OSM    H8S14033   1.956   5.756   3.238 -0.3010 -0.3905  0.4909
  131OSM    H8T14034   1.839   5.856   3.158  3.1146  1.8239 -1.2775
  131OSM    C9S14035   1.768   5.762   3.353 -1.0206 -0.0967  0.3758
  131OSM    H9S14036   1.807   5.718   3.448 -0.1729 -0.9480 -0.3479
  131OSM    H9T14037   1.726   5.677   3.295 -2.7118  2.3908 -2.3168
  131OSM   C10S14038   1.642   5.849   3.376 -0.2417 -0.4137 -0.0956
  131OSM   H10S14039   1.599   5.871   3.276  0.2245 -1.9722 -0.6602
  131OSM   H10T14040   1.674   5.942   3.428 -3.0201  0.7113 -0.2675
  131OSM   C11S14041   1.540   5.777   3.450 -0.0305 -0.7839  0.9681
  131OSM   H11S14042   1.574   5.770   3.555 -1.0387 -1.7161  1.2543
  131OSM   H11T14043   1.538   5.668   3.427  0.5154 -0.8666  1.3070
  131OSM   C12S14044   1.399   5.839   3.445 -1.1501 -0.6504 -0.1140
  131OSM   H12S14045   1.384   5.888   3.347  1.1036 -1.0041 -0.7005
  131OSM   H12T14046   1.399   5.919   3.522 -1.6959  0.1198 -0.9055
  131OSM   C13S14047   1.294   5.737   3.485 -0.0611 -0.7113  0.0174
  131OSM   H13S14048   1.278   5.677   3.393  0.3179 -1.1024  0.2020
  131OSM   H13T14049   1.200   5.790   3.513  2.4245  2.6842  2.8508
  131OSM   C14S14050   1.321   5.649   3.605  0.5515 -0.6106 -0.0670
  131OSM   H14S14051   1.342   5.712   3.695 -2.9097 -0.3467  0.6946
  131OSM   H14T14052   1.412   5.587   3.589 -0.6037 -2.9183  1.8327
  131OSM   C15S14053   1.204   5.555   3.633 -0.9309  0.3290 -0.1233
  131OSM   H15S14054   1.239   5.456   3.595 -1.9112 -0.3365  0.6628
  131OSM   H15T14055   1.108   5.593   3.594 -2.2090 -0.9869  1.5933
  131OSM   C16S14056   1.166   5.547   3.784  0.5541 -0.5857 -0.1876
  131OSM   H16S14057   1.065   5.503   3.798  1.4057 -1.8142  3.0063
  131OSM   H16T14058   1.147   5.651   3.819  0.3403 -0.6954  0.0297
  131OSM   C17S14059   1.265   5.469   3.868 -0.2001  0.0958 -1.0800
  131OSM   H17S14060   1.364   5.514   3.850  1.6712 -1.8839  2.9164
  131OSM   H17T14061   1.276   5.366   3.826 -0.0925 -1.7852  3.0804
  131OSM   C18S14062   1.236   5.471   4.017  0.2583  0.2129 -0.6059
  131OSM   H18S14063   1.228   5.579   4.040 -0.0458 -0.3548  2.3606
  131OSM   H18T14064   1.317   5.414   4.068 -0.5020 -0.2520  0.0967
  131OSM   H18U14065   1.139   5.422   4.038  0.9119 -1.0486 -0.4288
  131OSM    C1F14066   1.706   5.867   2.875 -0.0737  0.0207  0.1010
  131OSM     OF14067   1.704   5.766   2.808 -0.4586  0.6243  0.0487
  131OSM    C2F14068   1.594   5.918   2.960 -0.1878  0.2589 -0.0682
  131OSM    H2F14069   1.538   5.996   2.903  1.2684  0.1394 -1.7534
  131OSM    H2G14070   1.648   5.970   3.042  0.2451 -0.9449  0.4214
  131OSM    C3F14071   1.495   5.808   3.009 -0.0440  0.1209  0.7073
  131OSM    H3F14072   1.532   5.750   3.096  0.1938 -1.4085 -0.3613
  131OSM    H3G14073   1.475   5.741   2.923  0.2976  1.5724 -0.5476
  131OSM    C4F14074   1.355   5.852   3.047  0.3611  0.1460  0.2542
  131OSM    H4F14075   1.291   5.907   2.974 -1.7432 -3.0408 -0.4939
  131OSM    H4G14076   1.366   5.916   3.137  1.7568 -0.6985  0.7061
  131OSM    C5F14077   1.263   5.748   3.105  0.8706 -0.5689  0.6138
  131OSM    H5F14078   1.179   5.795   3.161  1.4910  1.3548 -0.0044
  131OSM    H5G14079   1.313   5.681   3.177  0.2754 -0.4493  1.1516
  131OSM    C6F14080   1.189   5.669   2.993 -0.1628  0.1047 -1.1218
  131OSM    H6F14081   1.260   5.621   2.922  1.5459  1.0128 -0.0806
  131OSM    H6G14082   1.139   5.751   2.936  0.3877  2.3775  1.4817
  131OSM    C7F14083   1.092   5.558   3.040  0.5689  0.0933  0.6049
  131OSM    H7F14084   1.141   5.509   3.126  0.7954  1.6437  1.4015
  131OSM    H7G14085   1.067   5.495   2.952 -0.2894  1.1344  0.0782
  131OSM    C8F14086   0.957   5.618   3.090 -0.4493  0.6005  0.7898
  131OSM    H8F14087   0.910   5.675   3.007 -0.5699 -0.5909  0.0163
  131OSM    H8G14088   0.971   5.690   3.173  0.6861  1.1907  0.1058
  131OSM    C9F14089   0.865   5.499   3.117  0.0992  0.4008 -0.1277
  131OSM    H9F14090   0.824   5.461   3.022  1.4959 -0.9135 -0.2368
  131OSM   C10F14091   0.839   5.444   3.235 -0.0330  0.2469 -0.0708
  131OSM   H10F14092   0.762   5.366   3.240 -1.5361  1.6553 -0.6292
  131OSM   C11F14093   0.895   5.488   3.367  0.1473 -0.3661 -0.4513
  131OSM   H11F14094   0.924   5.594   3.376  1.8479 -0.8921  0.6836
  131OSM   H11G14095   0.985   5.431   3.398  1.7811  3.1329  1.8160
  131OSM   C12F14096   0.786   5.456   3.474 -0.3159 -0.3077  0.5054
  131OSM   H12F14097   0.764   5.348   3.482 -1.1226 -0.2548 -0.6712
  131OSM   H12G14098   0.693   5.504   3.435  0.1062  0.6646  0.6658
  131OSM   C13F14099   0.811   5.518   3.611 -0.1643  0.3741  0.4633
  131OSM   H13F14100   0.831   5.624   3.583  2.5233 -0.4241 -0.9581
  131OSM   H13G14101   0.906   5.478   3.651 -0.7499 -0.7571  0.7686
  131OSM   C14F14102   0.697   5.490   3.711 -0.1689  0.6386  0.3178
  131OSM   H14F14103   0.689   5.380   3.723  0.4032  0.5853  0.2380
  131OSM   H14G14104   0.603   5.522   3.662 -0.3060 -0.7807 -0.3951
  131OSM   C15F14105   0.714   5.556   3.845 -0.3165 -0.6013  0.8557
  131OSM   H15F14106   0.759   5.657   3.835  1.1048 -1.2385  0.5518
  131OSM   H15G14107   0.782   5.494   3.907  0.0275 -0.0897  0.9959
  131OSM   C16F14108   0.574   5.580   3.916  0.5937  0.4281 -0.2459
  131OSM   H16F14109   0.518   5.488   3.890  0.6040  0.7229 -1.3881
  131OSM   H16G14110   0.522   5.675   3.890 -2.9340 -0.8954  1.2441
  131OSM   C17F14111   0.591   5.593   4.066  0.0972  0.2337  0.1065
  131OSM   H17F14112   0.633   5.497   4.104 -0.6455 -1.6702 -3.3599
  131OSM   H17G14113   0.493   5.605   4.118 -0.0826  0.1603 -0.2084
  131OSM   C18F14114   0.660   5.725   4.110  0.0284 -0.0295  0.0099
  131OSM   H18F14115   0.771   5.720   4.107  0.3238  3.3206  0.8431
  131OSM   H18G14116   0.639   5.756   4.215  1.3632  0.1277  0.2490
  131OSM   H18H14117   0.628   5.806   4.040  1.5506 -0.3999 -1.1678
  132OSM      N14118   6.692   6.302   2.196  0.0799  0.6707 -0.5111
  132OSM    C1514119   6.574   6.225   2.138  0.3019 -0.5124  0.3419
  132OSM   H15A14120   6.550   6.141   2.202 -0.0010 -2.0809 -1.7051
  132OSM   H15B14121   6.586   6.188   2.037 -2.5198  0.9192 -0.6235
  132OSM   H15C14122   6.490   6.292   2.136  1.4050  0.9618  1.2217
  132OSM    C1414123   6.740   6.410   2.108 -0.1644 -0.1237  0.0876
  132OSM   H14A14124   6.767   6.376   2.009 -0.8419 -0.3911 -0.0086
  132OSM   H14B14125   6.830   6.454   2.149 -0.9068 -1.1126  3.0150
  132OSM   H14C14126   6.657   6.479   2.103  1.2132  1.8420  2.2823
  132OSM    C1314127   6.654   6.357   2.330 -0.4290  0.5149 -0.2796
  132OSM   H13A14128   6.601   6.293   2.399  0.2394  2.1067  1.8183
  132OSM   H13B14129   6.588   6.443   2.328 -0.1824  0.7410  0.7839
  132OSM   H13C14130   6.742   6.393   2.381  1.0642 -1.7811 -1.0648
  132OSM    C1214131   6.804   6.198   2.215 -0.4311  0.1014 -0.0960
  132OSM   H12A14132   6.818   6.153   2.118  2.3766  0.8583 -0.1321
  132OSM   H12B14133   6.753   6.117   2.265 -1.3665 -0.9743 -2.6598
  132OSM    C1114134   6.937   6.239   2.284  0.9271 -0.0857 -0.2479
  132OSM   H11A14135   7.002   6.150   2.297  1.2671  0.0419 -0.9980
  132OSM   H11B14136   6.923   6.264   2.391  0.4453 -2.8187  0.4009
  132OSM      P14137   7.128   6.358   2.152  0.2254  0.1509 -0.5662
  132OSM    O1314138   7.125   6.265   2.036  0.2713  0.4461  0.1684
  132OSM    O1414139   7.163   6.493   2.127 -0.7363  0.0709  0.3460
  132OSM    O1114140   7.231   6.301   2.254 -0.3465 -0.0280  0.4420
  132OSM    O1214141   6.995   6.360   2.231  0.2574  0.6198  0.0263
  132OSM    C1S14142   7.268   6.385   2.372  0.3321  0.4541  0.1895
  132OSM    H1S14143   7.217   6.484   2.372  0.7377  0.7069  2.1455
  132OSM    H1T14144   7.375   6.413   2.360 -0.3452  2.2156 -2.7001
  132OSM     NF14145   7.267   6.402   2.622 -0.3663 -0.4973  0.3280
  132OSM    HNF14146   7.315   6.360   2.698 -1.0637 -0.3686  0.8484
  132OSM    C2S14147   7.231   6.321   2.508  0.6254  0.8507  0.3708
  132OSM    H2S14148   7.120   6.316   2.502  0.6787 -0.4744  0.1053
  132OSM    C3S14149   7.276   6.175   2.521 -0.4378  0.5012  0.3320
  132OSM    H3S14150   7.387   6.169   2.526 -0.4811 -0.0475  0.7026
  132OSM     O314151   7.267   6.093   2.408  0.0963  0.4598 -0.0711
  132OSM    HO314152   7.266   6.154   2.333  0.0628  0.4753 -0.0582
  132OSM    C4S14153   7.229   6.109   2.652 -0.8576 -0.0956 -1.4095
  132OSM    H4S14154   7.300   6.119   2.736 -1.8301 -2.4695 -0.2197
  132OSM    C5S14155   7.114   6.037   2.675 -0.4528 -0.2826 -0.6706
  132OSM    H5S14156   7.056   6.016   2.584  0.0467 -1.4519 -0.7546
  132OSM    C6S14157   7.065   5.972   2.805 -0.3041 -0.4393  0.2751
  132OSM    H6S14158   7.054   5.863   2.787 -1.7797 -0.4812  1.3217
  132OSM    H6T14159   6.967   6.013   2.835 -0.5650 -0.1710 -0.8696
  132OSM    C7S14160   7.158   5.974   2.927 -0.3337 -0.1663 -0.3309
  132OSM    H7S14161   7.170   6.081   2.952 -1.2474 -0.2216  0.3945
  132OSM    H7T14162   7.254   5.932   2.890  0.4650  1.9759 -0.8350
  132OSM    C8S14163   7.114   5.897   3.048 -0.0808 -0.7522 -0.4671
  132OSM    H8S14164   7.144   5.791   3.031 -0.8307 -0.9476 -0.5871
  132OSM    H8T14165   7.006   5.912   3.066 -0.4735  1.6155 -3.8144
  132OSM    C9S14166   7.180   5.940   3.181 -0.8480 -0.0401  0.2673
  132OSM    H9S14167   7.166   6.050   3.194 -0.1911 -0.0683  1.2975
  132OSM    H9T14168   7.289   5.926   3.165 -1.0127 -1.6342  0.4540
  132OSM   C10S14169   7.122   5.868   3.308 -0.5416 -0.6540  0.2386
  132OSM   H10S14170   7.167   5.767   3.302 -0.0086 -0.4147  0.1250
  132OSM   H10T14171   7.011   5.855   3.311 -0.4490 -1.3923  0.6212
  132OSM   C11S14172   7.169   5.940   3.443  0.1041 -0.2073  0.5421
  132OSM   H11S14173   7.159   6.049   3.425 -1.5395 -0.9345 -4.4891
  132OSM   H11T14174   7.274   5.907   3.460  0.1380 -0.4982 -0.1812
  132OSM   C12S14175   7.085   5.902   3.564  0.9254 -0.4269  0.0813
  132OSM   H12S14176   7.119   5.799   3.590  1.3370 -1.5098 -3.9333
  132OSM   H12T14177   6.976   5.903   3.543  0.8806 -0.2953  0.3240
  132OSM   C13S14178   7.103   6.005   3.673 -0.2087 -0.5333  0.4676
  132OSM   H13S14179   7.049   6.093   3.634  0.4772  0.0947  0.9104
  132OSM   H13T14180   7.210   6.024   3.696 -0.4123  1.1730  0.1426
  132OSM   C14S14181   7.042   5.966   3.816 -0.6274 -0.4021  0.2127
  132OSM   H14S14182   7.098   5.877   3.853 -0.9327  0.2016  2.2421
  132OSM   H14T14183   6.937   5.937   3.795 -0.8482 -0.1412  0.9408
  132OSM   C15S14184   7.057   6.083   3.916  0.3287 -0.3581  0.6941
  132OSM   H15S14185   7.034   6.044   4.017  1.9609 -1.1235  0.8069
  132OSM   H15T14186   6.980   6.161   3.899 -2.5518 -2.4226  3.2497
  132OSM   C16S14187   7.197   6.146   3.917  0.2045  0.4145 -0.5102
  132OSM   H16S14188   7.234   6.200   3.828  1.1579 -1.2302 -1.1696
  132OSM   H16T14189   7.274   6.066   3.931 -0.1495  0.2473  0.5935
  132OSM   C17S14190   7.227   6.237   4.045  0.4655 -0.6042 -0.2124
  132OSM   H17S14191   7.329   6.274   4.021 -0.3124 -0.7905 -4.4216
  132OSM   H17T14192   7.231   6.172   4.135  1.3408 -0.9548 -0.4986
  132OSM   C18S14193   7.129   6.353   4.076 -0.5343  0.1982  0.6625
  132OSM   H18S14194   7.168   6.414   4.160 -1.3964  0.3426  0.9673
  132OSM   H18T14195   7.043   6.304   4.126 -0.4710 -1.6425 -0.8744
  132OSM   H18U14196   7.096   6.418   3.993 -2.7448 -1.9820 -0.3071
  132OSM    C1F14197   7.231   6.528   2.642 -0.0308  0.1102  0.2356
  132OSM     OF14198   7.150   6.582   2.567 -0.1458  0.8682  0.4248
  132OSM    C2F14199   7.277   6.597   2.769  0.2829 -0.0657  0.4115
  132OSM    H2F14200   7.388   6.601   2.763  0.2965 -0.3717  0.4763
  132OSM    H2G14201   7.254   6.529   2.854 -1.4242  0.2953  0.2782
  132OSM    C3F14202   7.204   6.725   2.805 -0.6491  0.1626 -0.1499
  132OSM    H3F14203   7.094   6.717   2.815 -0.4371 -0.1617  3.7519
  132OSM    H3G14204   7.223   6.792   2.719 -1.1886 -0.1128 -0.4834
  132OSM    C4F14205   7.240   6.777   2.941 -0.0309  0.0750 -0.6210
  132OSM    H4F14206   7.190   6.876   2.948 -1.3963 -0.6658  0.9510
  132OSM    H4G14207   7.350   6.792   2.949 -0.4550  3.1939  1.2742
  132OSM    C5F14208   7.186   6.690   3.060  0.4518 -0.4930 -0.2010
  132OSM    H5F14209   7.264   6.619   3.095 -0.8400 -0.7305  2.4641
  132OSM    H5G14210   7.092   6.638   3.033 -0.7220  1.6390 -0.3853
  132OSM    C6F14211   7.150   6.772   3.192  0.5505  0.0606 -0.3492
  132OSM    H6F14212   7.062   6.838   3.179  0.7990  0.3043 -0.8106
  132OSM    H6G14213   7.247   6.823   3.212  0.1819  0.4672  0.4392
  132OSM    C7F14214   7.139   6.677   3.312 -0.3085  0.0978  0.3036
  132OSM    H7F14215   7.236   6.624   3.323  2.4082  4.6026  0.7220
  132OSM    H7G14216   7.062   6.601   3.287 -0.3296 -0.4368  1.9146
  132OSM    C8F14217   7.106   6.737   3.447  0.1118 -0.0466  0.1754
  132OSM    H8F14218   7.183   6.814   3.466  1.6293 -0.8492 -2.3426
  132OSM    H8G14219   7.123   6.653   3.517  2.2009 -1.5259 -1.9637
  132OSM    C9F14220   6.965   6.805   3.452  0.3743 -0.1254  0.1240
  132OSM    H9F14221   6.882   6.734   3.449 -0.3807  0.7536 -0.4873
  132OSM   C10F14222   6.939   6.929   3.492  0.5818 -0.2682 -0.0433
  132OSM   H10F14223   6.833   6.955   3.500  0.8073  0.6612  0.0929
  132OSM   C11F14224   7.038   7.033   3.528  0.3588  0.3326 -0.0704
  132OSM   H11F14225   6.983   7.130   3.526 -0.8745 -0.3578 -1.8127
  132OSM   H11G14226   7.120   7.034   3.453  0.1605  0.8465 -0.2888
  132OSM   C12F14227   7.109   7.002   3.659 -0.3481  0.2864 -0.5277
  132OSM   H12F14228   7.200   7.065   3.665  1.1634 -1.7326 -1.0441
  132OSM   H12G14229   7.142   6.898   3.678 -0.8650  0.4664  1.6369
  132OSM   C13F14230   7.027   7.031   3.788  0.3681 -0.1819  0.3089
  132OSM   H13F14231   6.941   6.961   3.791  0.3894 -0.1969  1.8717
  132OSM   H13G14232   6.994   7.136   3.779  0.2466  0.0780  2.9899
  132OSM   C14F14233   7.101   7.039   3.924 -0.1125  0.0184 -1.0428
  132OSM   H14F14234   7.162   7.131   3.933  0.7102 -0.4154 -1.9929
  132OSM   H14G14235   7.169   6.951   3.914 -0.5541 -0.2786 -1.5035
  132OSM   C15F14236   7.014   7.016   4.045 -0.1249 -0.3559  0.1841
  132OSM   H15F14237   7.090   7.028   4.125  0.1223 -1.3718  0.1198
  132OSM   H15G14238   6.976   6.912   4.056 -3.4946  0.6440 -0.6717
  132OSM   C16F14239   6.894   7.110   4.053  0.8433 -0.3344 -1.1853
  132OSM   H16F14240   6.824   7.088   3.970 -2.4930  1.4352  0.9491
  132OSM   H16G14241   6.923   7.218   4.046 -1.7176  0.7405  2.1575
  132OSM   C17F14242   6.831   7.102   4.197  0.2091 -0.1195  0.4350
  132OSM   H17F14243   6.773   7.009   4.211 -0.6486  0.2027 -0.8529
  132OSM   H17G14244   6.761   7.188   4.200  0.0351 -0.0774 -2.4148
  132OSM   C18F14245   6.940   7.118   4.306 -0.6087 -0.7809 -0.4380
  132OSM   H18F14246   7.001   7.026   4.301 -0.4442 -0.7076  0.1964
  132OSM   H18G14247   6.892   7.129   4.405  1.1484 -0.9749  0.4764
  132OSM   H18H14248   7.004   7.207   4.286 -1.6900  0.5832  1.8424
  133OSM      N14249   3.149   1.080   1.741  0.2554 -0.5008 -0.3611
  133OSM    C1514250   3.207   1.170   1.642 -0.1530  0.0474  0.1281
  133OSM   H15A14251   3.142   1.175   1.555 -0.9007 -1.6971  0.5388
  133OSM   H15B14252   3.307   1.144   1.611  0.5973  1.2505  1.4776
  133OSM   H15C14253   3.217   1.268   1.684 -0.2901 -1.0818  3.0119
  133OSM    C1414254   3.014   1.131   1.780 -0.8666  0.4099 -0.1504
  133OSM   H14A14255   2.972   1.059   1.848 -3.0943  1.8505  0.1090
  133OSM   H14B14256   2.947   1.128   1.695 -1.1050 -0.7965  0.0710
  133OSM   H14C14257   3.008   1.230   1.823 -2.2454 -0.1319  0.9965
  133OSM    C1314258   3.122   0.945   1.682 -0.3683 -0.1388  0.0045
  133OSM   H13A14259   3.098   0.868   1.753 -2.9869  1.4892  1.0365
  133OSM   H13B14260   3.207   0.917   1.620  0.5845 -0.6234  1.4868
  133OSM   H13C14261   3.042   0.961   1.611  0.7343 -0.3783 -1.3510
  133OSM    C1214262   3.234   1.068   1.867  1.0135  0.8622 -0.0887
  133OSM   H12A14263   3.166   1.030   1.942 -0.9076  0.9068 -1.7247
  133OSM   H12B14264   3.274   1.161   1.904  2.6119  0.1194  0.1805
  133OSM    C1114265   3.358   0.968   1.848  0.2292 -0.5708  0.0696
  133OSM   H11A14266   3.432   0.987   1.928 -1.1862  2.1354  0.9036
  133OSM   H11B14267   3.413   0.997   1.756  0.1469 -2.4767 -0.6188
  133OSM      P14268   3.250   0.760   1.964  0.4325 -0.4582  0.1361
  133OSM    O1314269   3.108   0.788   1.957  1.0648  0.0086  0.3802
  133OSM    O1414270   3.286   0.612   1.960 -0.0827 -0.2389 -0.2985
  133OSM    O1114271   3.303   0.823   2.094 -0.3081 -0.6429 -0.4474
  133OSM    O1214272   3.323   0.831   1.846  0.3947 -0.3759 -0.2694
  133OSM    C1S14273   3.425   0.802   2.161  0.6555  0.5744  0.1009
  133OSM    H1S14274   3.500   0.871   2.115  0.1221  0.2104 -1.3666
  133OSM    H1T14275   3.472   0.704   2.139  3.8044  2.5420 -2.9789
  133OSM     NF14276   3.542   0.816   2.383 -0.1348 -0.2718  0.0077
  133OSM    HNF14277   3.568   0.728   2.422 -1.0367  0.5005  2.4975
  133OSM    C2S14278   3.412   0.838   2.312  0.1044  0.5465  0.6602
  133OSM    H2S14279   3.383   0.944   2.329 -3.0591 -0.4083  1.9626
  133OSM    C3S14280   3.282   0.761   2.372  0.0326 -0.8917 -0.8602
  133OSM    H3S14281   3.309   0.653   2.375  2.1049 -0.4176 -0.4473
  133OSM     O314282   3.159   0.767   2.304 -0.7666 -0.5473 -0.0413
  133OSM    HO314283   3.191   0.780   2.215  1.2607  0.0602  0.7286
  133OSM    C4S14284   3.258   0.807   2.509 -0.1827 -0.1044 -0.4208
  133OSM    H4S14285   3.325   0.760   2.583  0.5426  0.7314 -0.5236
  133OSM    C5S14286   3.169   0.903   2.555  0.1157  1.0058  0.1358
  133OSM    H5S14287   3.096   0.946   2.485 -2.1352 -1.7955  0.5962
  133OSM    C6S14288   3.166   0.953   2.699 -0.4795 -0.4415  1.0398
  133OSM    H6S14289   3.067   0.997   2.725 -0.1158 -0.2438  2.1421
  133OSM    H6T14290   3.238   1.038   2.699 -0.6276 -0.2822 -0.5444
  133OSM    C7S14291   3.198   0.845   2.800  0.5875 -0.0848  0.2198
  133OSM    H7S14292   3.301   0.807   2.790  1.5066  1.9299  1.4254
  133OSM    H7T14293   3.132   0.755   2.803  0.6696 -0.1548 -0.0264
  133OSM    C8S14294   3.188   0.908   2.940  0.1497 -0.1985 -0.0621
  133OSM    H8S14295   3.079   0.909   2.961  0.0597 -1.0284 -0.4819
  133OSM    H8T14296   3.236   1.008   2.928  1.6069 -0.6148  1.7101
  133OSM    C9S14297   3.263   0.829   3.043  0.2803 -0.2327 -0.2566
  133OSM    H9S14298   3.371   0.854   3.036 -0.1631  1.6057 -1.0774
  133OSM    H9T14299   3.242   0.722   3.020  2.8407 -0.3561 -2.5799
  133OSM   C10S14300   3.207   0.864   3.182 -0.7587 -0.7477 -0.0499
  133OSM   H10S14301   3.098   0.883   3.168 -0.5594  1.0580  0.6580
  133OSM   H10T14302   3.253   0.957   3.221 -2.1015  0.5444 -1.3969
  133OSM   C11S14303   3.216   0.760   3.302 -0.1692  0.2408  0.1598
  133OSM   H11S14304   3.320   0.722   3.299 -0.3741 -0.3194 -1.8552
  133OSM   H11T14305   3.150   0.679   3.263 -1.4695  1.9900 -1.5357
  133OSM   C12S14306   3.190   0.809   3.441  0.1263  0.8951  0.5138
  133OSM   H12S14307   3.089   0.856   3.437  0.6561  2.2982  2.3181
  133OSM   H12T14308   3.264   0.884   3.476 -0.8871  2.0652  0.2245
  133OSM   C13S14309   3.199   0.691   3.541 -0.2051  0.0092  0.1472
  133OSM   H13S14310   3.302   0.661   3.567 -0.7785 -0.5348  1.9037
  133OSM   H13T14311   3.144   0.606   3.496 -1.2100  1.1438 -0.8441
  133OSM   C14S14312   3.122   0.732   3.663 -0.3159 -0.3409 -0.5246
  133OSM   H14S14313   3.017   0.759   3.637 -0.5863 -0.0665  0.7688
  133OSM   H14T14314   3.170   0.820   3.711 -0.5699  0.3792 -1.5393
  133OSM   C15S14315   3.107   0.614   3.765 -0.3267 -0.2216  0.8338
  133OSM   H15S14316   3.079   0.520   3.712 -1.8896  0.1382  0.9789
  133OSM   H15T14317   3.024   0.637   3.836 -1.0913  0.4147 -0.2273
  133OSM   C16S14318   3.232   0.579   3.842  0.1459 -0.2183  0.4287
  133OSM   H16S14319   3.307   0.532   3.776 -0.1980  2.1010 -1.7744
  133OSM   H16T14320   3.220   0.498   3.917 -1.9104 -1.1621 -0.8592
  133OSM   C17S14321   3.285   0.697   3.917 -0.5356 -0.9391  0.7529
  133OSM   H17S14322   3.318   0.778   3.849 -0.7963 -0.5751  1.0569
  133OSM   H17T14323   3.377   0.652   3.960  0.3895 -0.4688 -0.6355
  133OSM   C18S14324   3.199   0.761   4.020 -0.4842  1.3343 -0.7392
  133OSM   H18S14325   3.199   0.711   4.119  0.7106 -0.0669 -1.4110
  133OSM   H18T14326   3.096   0.777   3.981 -1.4962 -0.0341  1.1955
  133OSM   H18U14327   3.240   0.860   4.048  0.7377  0.1514  2.0025
  133OSM    C1F14328   3.638   0.910   2.378  0.4806  0.0479  0.7537
  133OSM     OF14329   3.602   1.025   2.352 -0.1290 -0.7612 -0.1513
  133OSM    C2F14330   3.779   0.871   2.400 -0.8550  0.2818  0.3362
  133OSM    H2F14331   3.794   0.764   2.426  1.1019  0.6448  0.8700
  133OSM    H2G14332   3.819   0.934   2.483  0.4915 -1.0737  0.7453
  133OSM    C3F14333   3.852   0.911   2.266  0.2528 -0.5642  0.3662
  133OSM    H3F14334   3.845   1.020   2.242 -4.1346 -0.0738  2.8261
  133OSM    H3G14335   3.796   0.858   2.186  0.7479 -3.2147  1.6605
  133OSM    C4F14336   3.991   0.853   2.250  0.0628 -0.0397 -0.4069
  133OSM    H4F14337   4.013   0.859   2.141  3.4888 -1.2108  0.1002
  133OSM    H4G14338   3.993   0.745   2.276  0.2921 -0.2650 -1.3226
  133OSM    C5F14339   4.097   0.936   2.323  0.5366 -0.3208  0.3069
  133OSM    H5F14340   4.066   1.042   2.309  2.0435 -0.1185 -1.9145
  133OSM    H5G14341   4.184   0.932   2.255 -0.7472  1.3950 -1.5467
  133OSM    C6F14342   4.137   0.884   2.465 -0.0303 -0.2697  0.3345
  133OSM    H6F14343   4.043   0.870   2.522  0.1184  1.2506  0.9904
  133OSM    H6G14344   4.197   0.962   2.516  1.2175 -0.0862 -1.3368
  133OSM    C7F14345   4.224   0.759   2.467  0.0687  0.0760 -0.3898
  133OSM    H7F14346   4.289   0.758   2.377  0.1454 -2.0739 -0.3592
  133OSM    H7G14347   4.156   0.672   2.452  0.5688 -0.9943  2.7775
  133OSM    C8F14348   4.305   0.751   2.599  0.5743 -0.4685 -0.4980
  133OSM    H8F14349   4.241   0.746   2.689  0.4913 -0.2423 -0.5439
  133OSM    H8G14350   4.366   0.843   2.607  1.9402 -1.4104  0.5164
  133OSM    C9F14351   4.401   0.634   2.592  0.0012 -0.5491  0.5772
  133OSM    H9F14352   4.382   0.563   2.510 -1.2000 -0.2483  0.5696
  133OSM   C10F14353   4.502   0.616   2.682 -0.2849  0.5272  0.3643
  133OSM   H10F14354   4.564   0.526   2.673  1.5875  1.7179  0.5636
  133OSM   C11F14355   4.544   0.716   2.786 -0.3864 -0.3947  0.3050
  133OSM   H11F14356   4.474   0.802   2.794 -1.3956 -1.1520 -0.1437
  133OSM   H11G14357   4.642   0.755   2.750 -0.5692  0.4921  0.7414
  133OSM   C12F14358   4.572   0.654   2.929  0.6358  0.3001  0.0085
  133OSM   H12F14359   4.656   0.581   2.923 -0.3464 -0.8591 -0.1746
  133OSM   H12G14360   4.474   0.606   2.949  0.2022 -0.0713 -2.7192
  133OSM   C13F14361   4.577   0.773   3.033  0.0344  0.0040 -0.1788
  133OSM   H13F14362   4.476   0.818   3.029 -0.3394 -0.6481  1.3142
  133OSM   H13G14363   4.658   0.841   3.000 -0.9387  0.9032 -0.7664
  133OSM   C14F14364   4.616   0.720   3.174 -0.4874  0.6014  0.6613
  133OSM   H14F14365   4.554   0.629   3.189 -0.6949  0.2785 -1.8347
  133OSM   H14G14366   4.593   0.801   3.247 -2.5670 -0.2477  1.0247
  133OSM   C15F14367   4.769   0.683   3.193  0.0904  0.2864  0.0795
  133OSM   H15F14368   4.818   0.725   3.284  1.6910 -0.7741 -0.2671
  133OSM   H15G14369   4.822   0.734   3.110  0.8713 -0.7298 -0.0598
  133OSM   C16F14370   4.787   0.528   3.187 -0.4464 -0.2664 -0.1448
  133OSM   H16F14371   4.898   0.524   3.198 -0.3786 -1.0426 -1.0567
  133OSM   H16G14372   4.768   0.510   3.079  0.0079  0.1712 -0.3042
  133OSM   C17F14373   4.703   0.443   3.285  0.0253  1.4513 -0.2990
  133OSM   H17F14374   4.738   0.337   3.280 -0.6599  1.2351 -0.6531
  133OSM   H17G14375   4.600   0.437   3.245 -0.2071  1.6870  0.2604
  133OSM   C18F14376   4.704   0.485   3.427  0.2854  0.5811 -0.7113
  133OSM   H18F14377   4.801   0.461   3.475  0.2221  0.0816 -0.8264
  133OSM   H18G14378   4.633   0.419   3.481  1.1495  1.1610  1.2454
  133OSM   H18H14379   4.661   0.585   3.448 -1.2484  0.0136 -1.0418
  134OSM      N14380   3.807   2.298   2.367  0.0777  0.5725 -0.2314
  134OSM    C1514381   3.931   2.215   2.387  0.5909  0.2157  0.0396
  134OSM   H15A14382   3.986   2.188   2.298  0.5636  0.0653  0.0679
  134OSM   H15B14383   3.905   2.115   2.419 -0.6428  0.8517  1.1294
  134OSM   H15C14384   3.998   2.271   2.449  0.9731  0.9353 -0.9942
  134OSM    C1414385   3.768   2.312   2.227 -0.5091 -0.4743 -0.1460
  134OSM   H14A14386   3.726   2.235   2.164 -1.2366  2.5975 -3.7906
  134OSM   H14B14387   3.860   2.342   2.177 -1.6426  2.8210 -0.5403
  134OSM   H14C14388   3.702   2.395   2.207 -0.7168 -1.1639 -2.5945
  134OSM    C1314389   3.690   2.220   2.436  0.0270  0.1218  0.3593
  134OSM   H13A14390   3.715   2.197   2.539  2.6959  0.3391 -0.1756
  134OSM   H13B14391   3.678   2.123   2.389 -1.6229 -0.3672  1.6798
  134OSM   H13C14392   3.596   2.273   2.427  0.8359  1.3770 -1.1099
  134OSM    C1214393   3.816   2.425   2.444 -0.0770 -0.5386  0.1658
  134OSM   H12A14394   3.834   2.406   2.548  1.2777 -0.1232  0.0279
  134OSM   H12B14395   3.728   2.485   2.425 -0.2060 -0.6991  0.2535
  134OSM    C1114396   3.936   2.517   2.409  0.2266 -0.4933 -0.0945
  134OSM   H11A14397   3.923   2.617   2.456  0.9579 -2.0222  3.7781
  134OSM   H11B14398   3.941   2.530   2.299 -0.9697 -0.2568 -0.1304
  134OSM      P14399   4.143   2.536   2.572  0.1489  0.1916  0.0412
  134OSM    O1314400   4.223   2.638   2.501  0.1041 -0.1512 -0.1181
  134OSM    O1414401   4.056   2.590   2.683 -0.2908 -0.1039 -0.1121
  134OSM    O1114402   4.249   2.426   2.621 -0.1177  0.2494 -0.1586
  134OSM    O1214403   4.052   2.455   2.463 -0.2294  0.0724 -0.7696
  134OSM    C1S14404   4.215   2.288   2.639  0.1630  0.5942  0.7311
  134OSM    H1S14405   4.236   2.235   2.544 -0.4161  1.3869  0.1573
  134OSM    H1T14406   4.118   2.272   2.691 -0.4235  0.9422 -0.2380
  134OSM     NF14407   4.269   2.235   2.884  0.3572 -0.1164  0.3570
  134OSM    HNF14408   4.325   2.297   2.939  2.9705 -1.7234 -0.2899
  134OSM    C2S14409   4.313   2.208   2.745  0.2854 -0.0505 -0.4574
  134OSM    H2S14410   4.294   2.099   2.733 -1.9272 -0.0108  1.8863
  134OSM    C3S14411   4.458   2.232   2.713  0.2143  0.1844 -0.8996
  134OSM    H3S14412   4.481   2.340   2.707  1.6554  0.0739  1.4486
  134OSM     O314413   4.487   2.175   2.587  0.1128 -0.1526  0.4360
  134OSM    HO314414   4.402   2.169   2.542 -0.6094  0.6812  1.6185
  134OSM    C4S14415   4.539   2.176   2.825 -1.0791 -0.1099 -1.2677
  134OSM    H4S14416   4.563   2.259   2.893  1.0341 -0.2061 -1.8277
  134OSM    C5S14417   4.602   2.061   2.837 -0.5404  0.1863 -0.2645
  134OSM    H5S14418   4.612   1.997   2.749  3.2698  1.7713 -1.1912
  134OSM    C6S14419   4.697   2.025   2.942 -0.6728  0.5713 -0.8072
  134OSM    H6S14420   4.797   2.008   2.898  0.0606  2.4060  0.0468
  134OSM    H6T14421   4.659   1.924   2.970 -0.1624  0.0199 -2.0682
  134OSM    C7S14422   4.696   2.109   3.076  0.2871  1.3939 -0.7716
  134OSM    H7S14423   4.596   2.092   3.121 -0.3366 -0.5731 -2.7185
  134OSM    H7T14424   4.710   2.218   3.061 -0.9573  1.6206 -0.4035
  134OSM    C8S14425   4.802   2.063   3.174 -0.4280  0.7889  0.2773
  134OSM    H8S14426   4.904   2.082   3.135 -0.4370  0.9967  0.3519
  134OSM    H8T14427   4.792   1.954   3.193  0.0253  0.6098 -0.4721
  134OSM    C9S14428   4.796   2.139   3.305 -0.0055 -0.1477  0.3281
  134OSM    H9S14429   4.694   2.131   3.348  0.3630  1.2755  1.5620
  134OSM    H9T14430   4.810   2.247   3.284  2.9771 -1.0005 -2.9747
  134OSM   C10S14431   4.891   2.099   3.417 -0.5247  0.4098 -0.2465
  134OSM   H10S14432   4.962   2.018   3.388 -0.0613  0.9644 -0.6635
  134OSM   H10T14433   4.841   2.054   3.506  1.1545 -0.2255  0.4239
  134OSM   C11S14434   4.969   2.223   3.466 -0.2696  0.5785  1.0301
  134OSM   H11S14435   4.889   2.298   3.479 -1.2885  0.6462 -3.6313
  134OSM   H11T14436   5.043   2.267   3.395 -1.0841  0.5071  0.1206
  134OSM   C12S14437   5.046   2.194   3.593  0.3908 -0.2031  0.2903
  134OSM   H12S14438   5.032   2.085   3.613  0.6266  0.2583  3.4416
  134OSM   H12T14439   5.000   2.255   3.673 -0.9370 -1.2017  0.3351
  134OSM   C13S14440   5.192   2.219   3.580  0.0850 -0.3516 -0.4338
  134OSM   H13S14441   5.200   2.326   3.549  0.4641 -0.0966  0.4980
  134OSM   H13T14442   5.226   2.159   3.493  0.8796  0.5586 -0.7683
  134OSM   C14S14443   5.271   2.185   3.708 -0.2931  0.3762 -0.0013
  134OSM   H14S14444   5.224   2.249   3.786 -0.2653 -0.3891  0.6556
  134OSM   H14T14445   5.379   2.208   3.700 -0.2444  0.5553  1.0036
  134OSM   C15S14446   5.275   2.037   3.749 -0.4402  1.0689 -0.4849
  134OSM   H15S14447   5.177   1.984   3.745  0.1517 -0.0157 -2.5964
  134OSM   H15T14448   5.303   2.041   3.856 -1.7107  1.3871 -0.1417
  134OSM   C16S14449   5.375   1.955   3.673 -0.7160 -0.6605  0.5395
  134OSM   H16S14450   5.476   2.001   3.680  0.3700 -2.9780  1.2285
  134OSM   H16T14451   5.342   1.942   3.568 -0.0773  1.3162  0.0667
  134OSM   C17S14452   5.383   1.820   3.747 -0.2137  0.2662  0.1218
  134OSM   H17S14453   5.286   1.773   3.721 -1.2080  2.5783 -0.6661
  134OSM   H17T14454   5.386   1.837   3.856  1.3988  1.0704 -0.0159
  134OSM   C18S14455   5.494   1.738   3.695  0.2205 -0.3936  0.5281
  134OSM   H18S14456   5.589   1.794   3.708 -0.2179  0.4512  0.1584
  134OSM   H18T14457   5.484   1.723   3.585  1.0644  0.3867  0.3314
  134OSM   H18U14458   5.495   1.638   3.743  0.3044  0.1440  1.6724
  134OSM    C1F14459   4.154   2.196   2.937  0.1454  0.7784  0.0937
  134OSM     OF14460   4.082   2.115   2.877  0.3617 -0.1133 -0.2053
  134OSM    C2F14461   4.121   2.257   3.066  0.6493  0.5117 -0.7469
  134OSM    H2F14462   4.067   2.353   3.049 -1.6822 -0.7745 -0.9655
  134OSM    H2G14463   4.207   2.271   3.135  0.5480 -0.5674 -0.3817
  134OSM    C3F14464   4.020   2.165   3.136  0.0260  0.6961 -0.1209
  134OSM    H3F14465   4.052   2.060   3.154 -3.2290  0.0603  3.1596
  134OSM    H3G14466   3.930   2.147   3.074 -0.1879  0.3009  0.3027
  134OSM    C4F14467   3.978   2.206   3.280 -0.0559 -0.9058  0.5983
  134OSM    H4F14468   3.969   2.316   3.267  0.6732 -1.0202 -1.2959
  134OSM    H4G14469   4.065   2.179   3.343  1.5355  1.6215 -0.3276
  134OSM    C5F14470   3.844   2.139   3.317 -0.0924 -0.4697 -0.6378
  134OSM    H5F14471   3.854   2.028   3.317 -3.2651 -0.8715  0.0782
  134OSM    H5G14472   3.766   2.159   3.240  0.0592  2.3569 -0.1624
  134OSM    C6F14473   3.785   2.183   3.455 -0.6919  0.1230  0.3595
  134OSM    H6F14474   3.736   2.281   3.439  1.7907  1.6565  1.4380
  134OSM    H6G14475   3.878   2.192   3.515  0.0133 -1.0818 -0.4932
  134OSM    C7F14476   3.680   2.088   3.513  0.2252 -0.3790  0.0973
  134OSM    H7F14477   3.669   2.115   3.620 -0.2332  0.1325 -0.0773
  134OSM    H7G14478   3.708   1.981   3.507  0.3139 -0.3435 -0.1316
  134OSM    C8F14479   3.542   2.104   3.435  0.5844 -0.2953 -0.9469
  134OSM    H8F14480   3.570   2.087   3.329  1.6853 -0.9931 -0.5609
  134OSM    H8G14481   3.518   2.213   3.433  1.1283 -0.1742 -0.9186
  134OSM    C9F14482   3.437   2.007   3.488 -0.4299 -0.4983 -0.0741
  134OSM    H9F14483   3.471   1.903   3.485  0.6457 -0.1407 -0.8961
  134OSM   C10F14484   3.321   2.023   3.554  0.9727 -0.9697  0.3513
  134OSM   H10F14485   3.265   1.934   3.585 -0.7264 -0.4626 -1.1235
  134OSM   C11F14486   3.257   2.154   3.595 -0.0026  0.0253  0.2977
  134OSM   H11F14487   3.147   2.144   3.605 -0.0420 -0.2294 -0.3588
  134OSM   H11G14488   3.283   2.220   3.509  1.0047  0.7909  1.1602
  134OSM   C12F14489   3.320   2.222   3.719  0.4072  0.0917  0.5441
  134OSM   H12F14490   3.270   2.320   3.731 -2.5284 -1.0781 -0.9598
  134OSM   H12G14491   3.430   2.234   3.713  0.3732  0.8543  1.3649
  134OSM   C13F14492   3.290   2.137   3.847  0.2377 -0.2406 -0.4893
  134OSM   H13F14493   3.357   2.048   3.853  0.7500  0.1270 -0.7438
  134OSM   H13G14494   3.187   2.094   3.847 -0.1100 -0.2277  5.1204
  134OSM   C14F14495   3.320   2.228   3.966  0.4243 -0.1077 -0.3231
  134OSM   H14F14496   3.268   2.325   3.949 -1.0014 -0.8900 -0.5755
  134OSM   H14G14497   3.428   2.255   3.968  0.4101 -0.0171 -0.7109
  134OSM   C15F14498   3.255   2.183   4.095  0.0326  0.1107 -0.3329
  134OSM   H15F14499   3.319   2.099   4.130 -1.0867 -1.7553 -2.4780
  134OSM   H15G14500   3.155   2.151   4.058  0.6660 -2.5755  0.0959
  134OSM   C16F14501   3.240   2.302   4.197 -0.0323  0.0764  0.1274
  134OSM   H16F14502   3.169   2.370   4.145  1.3204 -0.4331 -2.5526
  134OSM   H16G14503   3.338   2.351   4.212 -0.4584  0.4745  1.9582
  134OSM   C17F14504   3.179   2.253   4.326 -0.1207  0.1789  0.2494
  134OSM   H17F14505   3.255   2.182   4.366  0.2852 -0.1732 -1.0744
  134OSM   H17G14506   3.092   2.193   4.291  0.6754 -0.7336 -0.2194
  134OSM   C18F14507   3.150   2.366   4.413  0.4115  0.2506 -0.6815
  134OSM   H18F14508   3.117   2.335   4.514  0.9910  3.2325  0.5357
  134OSM   H18G14509   3.074   2.436   4.371  1.5217  0.9632 -1.5630
  134OSM   H18H14510   3.242   2.421   4.441 -0.3629  0.4944  1.5641
  135OSM      N14511   2.180   6.300   2.539  0.2223 -0.0161  0.9661
  135OSM    C1514512   2.249   6.413   2.609  0.1641  0.3246  0.1471
  135OSM   H15A14513   2.185   6.500   2.607 -0.7885 -0.3646  0.2734
  135OSM   H15B14514   2.334   6.438   2.547  0.0030  0.3357 -0.0687
  135OSM   H15C14515   2.274   6.390   2.711 -0.6257  1.4646  0.6080
  135OSM    C1414516   2.185   6.332   2.395  0.5105  0.2960  0.2461
  135OSM   H14A14517   2.286   6.344   2.358  0.3835  0.8770  0.0868
  135OSM   H14B14518   2.140   6.426   2.370  0.5303 -0.0797 -1.2937
  135OSM   H14C14519   2.134   6.260   2.331  0.3858  0.2835  0.3579
  135OSM    C1314520   2.252   6.174   2.567 -0.0492 -0.2517 -0.0869
  135OSM   H13A14521   2.355   6.208   2.577 -0.1085  0.2361 -1.0655
  135OSM   H13B14522   2.230   6.109   2.484 -0.7729 -1.0155  0.6776
  135OSM   H13C14523   2.228   6.115   2.654 -3.6850 -1.0810 -1.4967
  135OSM    C1214524   2.029   6.286   2.574  0.3819  0.4968  0.0312
  135OSM   H12A14525   2.026   6.254   2.677  3.7332  0.2593  0.1728
  135OSM   H12B14526   1.996   6.206   2.509  4.2934 -1.3449 -0.0106
  135OSM    C1114527   1.944   6.410   2.572  0.2347 -0.2268 -0.2333
  135OSM   H11A14528   1.979   6.489   2.641 -0.9042  0.5437 -0.5106
  135OSM   H11B14529   1.852   6.372   2.621 -0.8271  1.1535 -1.1066
  135OSM      P14530   1.882   6.588   2.391  0.2824 -0.4146 -0.0350
  135OSM    O1314531   2.013   6.664   2.390 -0.1068  0.1099 -0.1079
  135OSM    O1414532   1.805   6.595   2.265 -0.1544 -0.1235  0.4837
  135OSM    O1114533   1.795   6.651   2.507  0.0924 -0.1355  0.4752
  135OSM    O1214534   1.909   6.440   2.439  0.5878 -0.1260 -0.2123
  135OSM    C1S14535   1.668   6.602   2.562 -0.4091  0.0948  0.2404
  135OSM    H1S14536   1.670   6.491   2.558 -1.2409  0.0228  1.4627
  135OSM    H1T14537   1.580   6.634   2.503  1.0883  0.3165 -1.9858
  135OSM     NF14538   1.532   6.575   2.760 -0.1506 -0.3079  0.2078
  135OSM    HNF14539   1.444   6.614   2.785 -0.0957 -1.1602  1.8596
  135OSM    C2S14540   1.642   6.654   2.709  0.2369 -0.1588  0.4121
  135OSM    H2S14541   1.733   6.628   2.767  1.2510 -1.7023 -1.7286
  135OSM    C3S14542   1.616   6.807   2.713 -0.3957 -0.6639  0.1754
  135OSM    H3S14543   1.512   6.822   2.677 -0.6613 -0.9766  0.7981
  135OSM     O314544   1.715   6.894   2.647 -1.1326  0.0865 -0.4077
  135OSM    HO314545   1.763   6.825   2.601  2.5870  0.4376  2.5103
  135OSM    C4S14546   1.595   6.864   2.858  0.0955  0.0279 -0.0257
  135OSM    H4S14547   1.494   6.838   2.896  1.0466 -1.4379  1.6897
  135OSM    C5S14548   1.686   6.936   2.933  0.3538 -0.8819 -0.1204
  135OSM    H5S14549   1.787   6.961   2.900  0.2052  0.5069  0.3897
  135OSM    C6S14550   1.633   6.973   3.068 -0.2994  0.8405  0.5681
  135OSM    H6S14551   1.551   7.047   3.054 -0.8972  0.3069  1.1460
  135OSM    H6T14552   1.717   7.024   3.121  1.4636 -0.7918 -0.5279
  135OSM    C7S14553   1.579   6.852   3.151 -0.3314 -0.3717 -0.1168
  135OSM    H7S14554   1.668   6.785   3.151  0.9959  1.3008 -1.0658
  135OSM    H7T14555   1.499   6.801   3.094  0.7507 -1.1990 -0.9619
  135OSM    C8S14556   1.535   6.895   3.292 -0.3210  0.0255  0.0637
  135OSM    H8S14557   1.622   6.909   3.359 -0.3568  3.2192 -0.4166
  135OSM    H8T14558   1.492   6.797   3.324  0.0115 -0.5702 -1.2599
  135OSM    C9S14559   1.444   7.020   3.294 -0.0771  0.0771 -0.3611
  135OSM    H9S14560   1.355   7.013   3.229 -0.1166 -1.4965 -0.1911
  135OSM    H9T14561   1.496   7.112   3.260 -2.3998  2.0825  1.1872
  135OSM   C10S14562   1.377   7.035   3.433 -0.0062  0.0500 -0.5779
  135OSM   H10S14563   1.314   6.943   3.438  0.7170 -0.4383 -0.3785
  135OSM   H10T14564   1.327   7.134   3.431  1.2544  0.7477 -3.7366
  135OSM   C11S14565   1.473   7.028   3.558 -0.0678  0.1990 -0.0751
  135OSM   H11S14566   1.532   7.120   3.579  0.5206 -0.2640  0.3466
  135OSM   H11T14567   1.545   6.946   3.538  0.6863  0.7570  0.2699
  135OSM   C12S14568   1.412   7.007   3.692  0.6120  0.7125  0.1052
  135OSM   H12S14569   1.372   6.903   3.700 -0.0503  1.0956  3.0327
  135OSM   H12T14570   1.321   7.067   3.714  1.4992  0.8603  3.9427
  135OSM   C13S14571   1.508   7.026   3.805 -0.3633  0.2922  0.1124
  135OSM   H13S14572   1.575   7.113   3.785 -0.4042  0.6223  1.3580
  135OSM   H13T14573   1.573   6.936   3.808 -1.2016 -0.2873  1.4790
  135OSM   C14S14574   1.439   7.027   3.938  0.2453 -0.0396  0.3192
  135OSM   H14S14575   1.353   6.959   3.955 -0.9359  1.6222  1.2987
  135OSM   H14T14576   1.398   7.129   3.949 -0.8797 -0.5093  0.5982
  135OSM   C15S14577   1.532   6.995   4.052 -0.0276  0.6467  0.5228
  135OSM   H15S14578   1.616   7.068   4.053  1.0912 -0.3266 -3.1978
  135OSM   H15T14579   1.574   6.892   4.047 -1.5882  0.0038 -0.3642
  135OSM   C16S14580   1.473   7.004   4.198 -0.2763  0.1555 -0.0370
  135OSM   H16S14581   1.406   7.093   4.199  0.4991  0.7555 -0.1946
  135OSM   H16T14582   1.557   7.034   4.264  0.7881  0.8302 -1.6256
  135OSM   C17S14583   1.414   6.871   4.245  0.0874  0.4899  0.8901
  135OSM   H17S14584   1.479   6.782   4.232 -1.6328 -0.6391 -0.5164
  135OSM   H17T14585   1.332   6.855   4.171  0.4062 -0.1091  0.6590
  135OSM   C18S14586   1.347   6.886   4.382 -0.7292  0.3765 -0.4883
  135OSM   H18S14587   1.263   6.956   4.362 -1.1083  0.6582  1.8017
  135OSM   H18T14588   1.415   6.936   4.453 -0.8271  0.6279 -0.5705
  135OSM   H18U14589   1.335   6.785   4.428  3.8774  0.1727  0.7500
  135OSM    C1F14590   1.548   6.450   2.779  0.1707 -0.5316 -0.4792
  135OSM     OF14591   1.660   6.402   2.759 -0.0045  0.6021 -0.6656
  135OSM    C2F14592   1.429   6.365   2.833 -0.3592  0.9632 -0.2925
  135OSM    H2F14593   1.391   6.318   2.739  1.5438 -2.0718  0.3345
  135OSM    H2G14594   1.351   6.429   2.878 -1.8374 -0.3337 -0.8992
  135OSM    C3F14595   1.474   6.249   2.930 -0.5105  0.8309 -0.2624
  135OSM    H3F14596   1.574   6.213   2.900 -0.5774  1.0530 -0.7682
  135OSM    H3G14597   1.398   6.170   2.912 -0.9719  1.6312 -2.1325
  135OSM    C4F14598   1.484   6.295   3.078 -0.7261 -0.6471 -0.1166
  135OSM    H4F14599   1.515   6.210   3.143 -0.1050  0.8878  1.6838
  135OSM    H4G14600   1.395   6.340   3.127  0.3045 -0.6913  1.9144
  135OSM    C5F14601   1.598   6.400   3.090  0.1871  0.2178 -0.1673
  135OSM    H5F14602   1.591   6.495   3.033  0.3946 -0.3458 -1.1616
  135OSM    H5G14603   1.691   6.348   3.057 -0.3933  0.2224 -1.9231
  135OSM    C6F14604   1.626   6.428   3.239 -0.1855 -0.3519 -0.8259
  135OSM    H6F14605   1.631   6.329   3.289 -1.5244  0.5122  1.1119
  135OSM    H6G14606   1.538   6.476   3.287 -0.8424  0.6020 -2.8722
  135OSM    C7F14607   1.762   6.496   3.270 -0.4951  0.1184  0.1742
  135OSM    H7F14608   1.743   6.551   3.364 -0.3217 -0.2120  0.4036
  135OSM    H7G14609   1.785   6.565   3.185  0.4625 -0.4070 -0.0020
  135OSM    C8F14610   1.866   6.384   3.282 -0.2815  0.9374 -0.1354
  135OSM    H8F14611   1.863   6.329   3.185 -0.4163 -0.2021  0.4904
  135OSM    H8G14612   1.834   6.311   3.359 -0.1647  0.0841 -0.8735
  135OSM    C9F14613   2.005   6.438   3.298 -0.0946 -0.2535 -0.2200
  135OSM    H9F14614   2.038   6.499   3.213  0.0394 -1.2513 -0.8979
  135OSM   C10F14615   2.085   6.418   3.409  0.0489 -0.4578  1.1859
  135OSM   H10F14616   2.183   6.468   3.397  0.0321 -0.5955  0.3745
  135OSM   C11F14617   2.061   6.327   3.520 -0.7479  0.7036  0.1555
  135OSM   H11F14618   2.154   6.267   3.534 -1.1505  0.2753  1.1233
  135OSM   H11G14619   1.979   6.257   3.493  0.9305 -1.1148 -0.4437
  135OSM   C12F14620   2.023   6.395   3.657 -0.3669  0.1676 -0.8473
  135OSM   H12F14621   1.914   6.418   3.654 -1.2872 -3.2892  0.6200
  135OSM   H12G14622   2.083   6.479   3.699 -2.1047  2.0771 -2.0007
  135OSM   C13F14623   2.035   6.288   3.775  0.5762  0.2625 -1.1652
  135OSM   H13F14624   2.140   6.252   3.774 -0.5377 -3.4565  0.9029
  135OSM   H13G14625   1.973   6.198   3.758 -4.9290  3.6159 -1.3264
  135OSM   C14F14626   2.003   6.344   3.917  0.7691  0.4442  0.5501
  135OSM   H14F14627   1.897   6.378   3.916  0.1518 -1.3549  1.5055
  135OSM   H14G14628   2.076   6.425   3.938  1.0430 -0.2619  2.4749
  135OSM   C15F14629   2.026   6.230   4.009  1.3804 -0.1861 -0.1633
  135OSM   H15F14630   2.123   6.182   3.987  0.9506 -1.1303 -0.0499
  135OSM   H15G14631   1.945   6.159   3.982  0.6388  0.7957 -0.6168
  135OSM   C16F14632   2.013   6.283   4.153 -0.4663 -0.3684 -0.3538
  135OSM   H16F14633   1.918   6.338   4.162  0.3268  0.9559  0.2276
  135OSM   H16G14634   2.093   6.359   4.172 -0.0283 -0.5365 -1.4592
  135OSM   C17F14635   2.033   6.181   4.258  0.4640  0.1250  0.3915
  135OSM   H17F14636   2.012   6.215   4.362  0.2358 -0.2393  0.4667
  135OSM   H17G14637   2.138   6.145   4.259 -0.0900 -1.6043  1.3751
  135OSM   C18F14638   1.951   6.048   4.249 -0.7936 -0.2461  0.2435
  135OSM   H18F14639   1.967   5.992   4.155  0.1791 -0.0041  0.2609
  135OSM   H18G14640   1.843   6.064   4.271 -0.6762 -1.2146  1.6184
  135OSM   H18H14641   1.988   5.976   4.324  0.1977  2.2217  2.2838
  136OSM      N14642   3.298   3.707   2.028 -0.0675 -0.8018  0.6987
  136OSM    C1514643   3.211   3.776   2.131 -0.1603 -0.2440  0.6289
  136OSM   H15A14644   3.209   3.882   2.108  1.9961  0.3065  2.5443
  136OSM   H15B14645   3.251   3.768   2.231 -0.2487  3.1997  1.0797
  136OSM   H15C14646   3.112   3.734   2.129  1.2232 -3.8594  0.3377
  136OSM    C1414647   3.226   3.717   1.893  0.3495  0.4130 -0.6475
  136OSM   H14A14648   3.195   3.817   1.866  1.0035  0.3194 -1.7744
  136OSM   H14B14649   3.132   3.663   1.883  0.0904  0.9349 -1.0635
  136OSM   H14C14650   3.289   3.689   1.811  1.4842  1.8365 -0.2940
  136OSM    C1314651   3.428   3.780   2.010  0.1816 -0.1773 -0.2835
  136OSM   H13A14652   3.422   3.872   1.952  0.5120  0.9240  1.3488
  136OSM   H13B14653   3.486   3.712   1.950 -1.5940 -1.5533 -0.5373
  136OSM   H13C14654   3.478   3.807   2.101 -2.0266 -0.1681  1.0157
  136OSM    C1214655   3.323   3.566   2.068  1.1322  0.2108  0.6723
  136OSM   H12A14656   3.231   3.510   2.070  0.3137  1.1583 -3.2063
  136OSM   H12B14657   3.365   3.561   2.168  0.8724 -1.7972  0.7216
  136OSM    C1114658   3.418   3.479   1.980  0.3960 -1.2633  0.0217
  136OSM   H11A14659   3.362   3.449   1.889  0.6226 -0.4892 -0.3771
  136OSM   H11B14660   3.430   3.383   2.035  1.4847 -1.6612 -0.8747
  136OSM      P14661   3.679   3.492   2.016 -0.1614  0.0527  0.3063
  136OSM    O1314662   3.708   3.351   1.979  0.1820 -0.6799  0.5336
  136OSM    O1414663   3.786   3.593   2.004 -0.4419 -0.5139  0.1955
  136OSM    O1114664   3.620   3.492   2.161  0.1827  0.1535 -0.0687
  136OSM    O1214665   3.542   3.532   1.936  0.4118 -0.1373  0.4825
  136OSM    C1S14666   3.688   3.557   2.266  0.2613  0.3838  0.3786
  136OSM    H1S14667   3.648   3.659   2.285  0.0921 -0.0377  2.5622
  136OSM    H1T14668   3.798   3.560   2.252  0.4137 -1.7621  0.8251
  136OSM     NF14669   3.714   3.568   2.513 -0.1845 -0.4245 -0.2029
  136OSM    HNF14670   3.813   3.572   2.521  0.1014 -2.7470 -1.6738
  136OSM    C2S14671   3.662   3.485   2.401  0.0993  0.3494  0.1921
  136OSM    H2S14672   3.553   3.470   2.411  0.3755 -1.8077  0.4367
  136OSM    C3S14673   3.718   3.344   2.383 -0.1975 -0.1196 -0.1351
  136OSM    H3S14674   3.815   3.358   2.332 -1.4423  1.4025 -2.2321
  136OSM     O314675   3.647   3.270   2.285 -0.0371 -0.1942 -0.3791
  136OSM    HO314676   3.608   3.336   2.228  0.7102  0.5054 -0.1038
  136OSM    C4S14677   3.747   3.279   2.519  0.1711  0.1442  0.1141
  136OSM    H4S14678   3.810   3.339   2.586 -0.1669  1.6532 -0.8649
  136OSM    C5S14679   3.690   3.167   2.570 -0.0500  0.1175  0.4711
  136OSM    H5S14680   3.618   3.116   2.505 -0.7592  1.1707  0.4037
  136OSM    C6S14681   3.688   3.107   2.711 -0.1071 -0.6688  0.1993
  136OSM    H6S14682   3.774   3.037   2.718  0.5692  0.2132  0.8871
  136OSM    H6T14683   3.604   3.036   2.728 -0.6219  0.1868  1.4223
  136OSM    C7S14684   3.705   3.211   2.827 -0.3450 -0.1208  0.1291
  136OSM    H7S14685   3.631   3.289   2.798 -0.0559  0.1041 -0.0087
  136OSM    H7T14686   3.809   3.249   2.817  0.0701 -0.7308  1.7696
  136OSM    C8S14687   3.666   3.158   2.966 -0.1177 -0.4284  0.2368
  136OSM    H8S14688   3.692   3.231   3.045  0.3383 -1.6729  1.2705
  136OSM    H8T14689   3.736   3.073   2.980  0.4289 -0.0053  0.1156
  136OSM    C9S14690   3.526   3.104   2.992 -0.8658  0.1777  0.0031
  136OSM    H9S14691   3.509   3.009   2.936  0.7130 -0.8097  1.1180
  136OSM    H9T14692   3.448   3.175   2.957 -1.2896 -0.4210 -0.2836
  136OSM   C10S14693   3.486   3.060   3.138 -0.9555  0.3654 -0.1367
  136OSM   H10S14694   3.581   3.021   3.181 -0.8200  0.7374 -0.0954
  136OSM   H10T14695   3.411   2.978   3.144  1.6296 -2.0600  1.7120
  136OSM   C11S14696   3.458   3.180   3.230 -0.1656  0.2826  0.0869
  136OSM   H11S14697   3.357   3.222   3.211 -0.5614 -0.3941  0.6291
  136OSM   H11T14698   3.515   3.268   3.195  0.0313 -0.1707 -0.7619
  136OSM   C12S14699   3.462   3.160   3.380  0.6324  0.2424 -0.0405
  136OSM   H12S14700   3.427   3.056   3.398 -1.3248  0.9510  0.5571
  136OSM   H12T14701   3.395   3.232   3.431 -1.9441 -1.4718 -0.8178
  136OSM   C13S14702   3.608   3.169   3.431 -0.2844  0.0201  0.3738
  136OSM   H13S14703   3.671   3.152   3.341 -0.3762  3.2815 -0.4242
  136OSM   H13T14704   3.628   3.093   3.510 -0.6013 -0.4205  0.0365
  136OSM   C14S14705   3.651   3.311   3.481  0.2403 -0.0696  0.9121
  136OSM   H14S14706   3.633   3.376   3.393 -2.1235 -0.4815  1.0281
  136OSM   H14T14707   3.757   3.328   3.511  0.9746 -1.0710 -0.9886
  136OSM   C15S14708   3.565   3.363   3.596  0.7205  0.9683 -0.6185
  136OSM   H15S14709   3.455   3.364   3.577  0.5436  0.4088  0.3433
  136OSM   H15T14710   3.594   3.467   3.620  0.6524  0.3838  2.3020
  136OSM   C16S14711   3.585   3.270   3.717 -0.4548 -0.0084  0.0280
  136OSM   H16S14712   3.693   3.244   3.722 -0.3919  0.1472 -0.4260
  136OSM   H16T14713   3.542   3.169   3.704  1.4516 -0.5656 -3.0338
  136OSM   C17S14714   3.527   3.340   3.838  0.3524 -0.1370 -0.5673
  136OSM   H17S14715   3.586   3.434   3.840  0.6317 -0.3262  0.9280
  136OSM   H17T14716   3.558   3.283   3.928 -1.7812  0.3407  0.5250
  136OSM   C18S14717   3.380   3.371   3.853 -0.2050 -0.2873 -0.2204
  136OSM   H18S14718   3.313   3.283   3.841  1.6897 -1.6572 -1.2851
  136OSM   H18T14719   3.354   3.451   3.781  1.5982  0.0983 -0.4959
  136OSM   H18U14720   3.342   3.416   3.947 -0.0004 -0.0516 -0.2508
  136OSM    C1F14721   3.639   3.660   2.571  0.9627  0.5882  0.0354
  136OSM     OF14722   3.515   3.673   2.547 -0.5221 -0.4201  0.7172
  136OSM    C2F14723   3.708   3.764   2.657 -0.2106 -0.1778 -0.0213
  136OSM    H2F14724   3.682   3.870   2.638  2.6091  0.7178  0.6382
  136OSM    H2G14725   3.817   3.747   2.642 -0.2406  0.2411 -0.7112
  136OSM    C3F14726   3.676   3.735   2.805  0.4148  0.3499 -0.8318
  136OSM    H3F14727   3.566   3.734   2.814  0.4621 -0.0972 -0.2449
  136OSM    H3G14728   3.707   3.829   2.855  0.3009  0.5301 -1.1004
  136OSM    C4F14729   3.744   3.600   2.855  0.0183 -0.2187 -0.0035
  136OSM    H4F14730   3.852   3.601   2.830  0.4840  0.9547  1.8714
  136OSM    H4G14731   3.708   3.517   2.791 -2.0181 -0.6802  1.6558
  136OSM    C5F14732   3.723   3.569   3.004  0.5070  0.4678 -0.0024
  136OSM    H5F14733   3.762   3.471   3.038 -0.1668 -0.5548 -2.0070
  136OSM    H5G14734   3.613   3.556   3.009  0.4592  1.0038  0.4716
  136OSM    C6F14735   3.769   3.676   3.104 -0.9515  0.1809 -0.3785
  136OSM    H6F14736   3.748   3.777   3.063 -1.5206 -0.1241 -0.8509
  136OSM    H6G14737   3.880   3.677   3.112 -1.0039  0.4696  0.3619
  136OSM    C7F14738   3.711   3.654   3.245  0.6643  0.5274  0.2151
  136OSM    H7F14739   3.712   3.546   3.270  1.3005  0.5296  0.2113
  136OSM    H7G14740   3.611   3.701   3.232  0.2815 -0.2111  0.4395
  136OSM    C8F14741   3.796   3.732   3.352  0.4984  0.4107 -0.4257
  136OSM    H8F14742   3.774   3.840   3.336  2.2969  0.7933 -0.5122
  136OSM    H8G14743   3.899   3.723   3.313  0.1147  1.8291 -1.8666
  136OSM    C9F14744   3.780   3.684   3.495  0.0839  0.2907  1.2039
  136OSM    H9F14745   3.686   3.717   3.541 -0.8649 -0.2187 -0.3011
  136OSM   C10F14746   3.859   3.601   3.561 -0.7024  0.5610  0.4418
  136OSM   H10F14747   3.840   3.576   3.666 -0.8415 -2.6932 -0.2453
  136OSM   C11F14748   3.988   3.533   3.520  0.0836 -0.4394  0.0388
  136OSM   H11F14749   4.003   3.516   3.411  1.0537 -1.6941  0.3452
  136OSM   H11G14750   3.988   3.429   3.561  0.8514 -0.7505 -0.7169
  136OSM   C12F14751   4.110   3.610   3.574  0.1424 -0.2004  0.2048
  136OSM   H12F14752   4.133   3.699   3.511  1.6170 -0.4248  0.3752
  136OSM   H12G14753   4.202   3.547   3.566  0.5431  0.3209  0.6516
  136OSM   C13F14754   4.093   3.666   3.715  0.0411 -0.2107 -0.3455
  136OSM   H13F14755   4.051   3.596   3.791  0.6516 -0.7227 -0.4724
  136OSM   H13G14756   4.029   3.756   3.719  1.1069  0.5304  1.1269
  136OSM   C14F14757   4.234   3.696   3.773  0.9360 -0.0822  0.3284
  136OSM   H14F14758   4.270   3.767   3.695 -0.3488 -0.6489 -0.8326
  136OSM   H14G14759   4.282   3.596   3.774  0.4179 -0.3919 -1.7817
  136OSM   C15F14760   4.240   3.751   3.916  0.3364  0.6219  0.5724
  136OSM   H15F14761   4.206   3.665   3.977 -0.4912 -0.9000 -1.8721
  136OSM   H15G14762   4.160   3.829   3.910  0.4852  0.7184 -0.2092
  136OSM   C16F14763   4.362   3.813   3.971  0.0251 -1.0302 -0.1132
  136OSM   H16F14764   4.380   3.899   3.904  0.2493  0.3397  1.6350
  136OSM   H16G14765   4.452   3.749   3.957  1.1146  0.5834 -0.8022
  136OSM   C17F14766   4.342   3.865   4.104 -0.3876  0.1518 -0.7993
  136OSM   H17F14767   4.336   3.780   4.175  1.4965  1.4071  0.9933
  136OSM   H17G14768   4.249   3.926   4.105 -1.3042 -1.1524  2.0509
  136OSM   C18F14769   4.453   3.961   4.153  0.3498 -0.6530 -0.0233
  136OSM   H18F14770   4.429   3.991   4.257  0.7247 -0.5954  0.0481
  136OSM   H18G14771   4.448   4.049   4.086 -1.6674 -2.5794 -2.6433
  136OSM   H18H14772   4.560   3.935   4.158  0.9604  0.9782 -2.6297
  137OSM      N14773   1.629   6.948   2.228  0.5259  0.0473  0.5925
  137OSM    C1514774   1.585   6.808   2.210 -0.5477  0.7668  0.4017
  137OSM   H15A14775   1.531   6.770   2.296 -1.5541 -2.7989 -1.5893
  137OSM   H15B14776   1.661   6.734   2.193 -0.3550  1.5812 -3.0011
  137OSM   H15C14777   1.523   6.801   2.122 -1.0137  1.0618  0.7027
  137OSM    C1414778   1.711   6.951   2.351  0.3008  0.0081  0.3444
  137OSM   H14A14779   1.659   6.904   2.433  0.6137  1.9530  1.7202
  137OSM   H14B14780   1.723   7.053   2.385 -0.7306 -0.1056  1.1080
  137OSM   H14C14781   1.806   6.904   2.335 -0.3294 -1.1035 -0.2548
  137OSM    C1314782   1.726   6.987   2.117 -0.1018 -0.7186 -0.2202
  137OSM   H13A14783   1.694   6.968   2.015  0.9429 -0.1976 -0.6654
  137OSM   H13B14784   1.814   6.924   2.121 -0.6374 -1.4423  0.3256
  137OSM   H13C14785   1.758   7.090   2.125 -0.1684 -0.7376  0.2795
  137OSM    C1214786   1.504   7.039   2.231  0.4217 -0.3178 -0.6267
  137OSM   H12A14787   1.461   7.039   2.132 -1.4740 -1.1561  0.1463
  137OSM   H12B14788   1.542   7.137   2.256  0.5686 -0.7494  0.9828
  137OSM    C1114789   1.397   7.005   2.342 -0.0623 -0.6389  0.0275
  137OSM   H11A14790   1.318   7.083   2.350 -0.8895 -1.4694  0.0995
  137OSM   H11B14791   1.450   7.011   2.440  0.8678 -0.1647 -0.4956
  137OSM      P14792   1.268   6.787   2.425  0.0043 -0.2971  0.0397
  137OSM    O1314793   1.127   6.762   2.384 -0.4575 -0.0686  0.0108
  137OSM    O1414794   1.349   6.663   2.451  0.2352  0.3440  0.2297
  137OSM    O1114795   1.267   6.878   2.559 -0.2122 -0.1262  0.4358
  137OSM    O1214796   1.333   6.882   2.314  0.4514  0.4845 -0.0587
  137OSM    C1S14797   1.185   6.840   2.674  0.2784 -0.1899  0.7157
  137OSM    H1S14798   1.195   6.732   2.696  0.9426 -0.3177 -0.1375
  137OSM    H1T14799   1.079   6.854   2.644  1.0225 -1.4072 -3.0997
  137OSM     NF14800   1.180   6.868   2.919  0.3816  0.4729 -0.1118
  137OSM    HNF14801   1.104   6.910   2.968  0.5601  3.7519 -2.3532
  137OSM    C2S14802   1.223   6.929   2.793 -0.1184 -0.6632 -0.0557
  137OSM    H2S14803   1.334   6.930   2.805  0.0710  1.3317 -1.4719
  137OSM    C3S14804   1.191   7.069   2.771 -0.4601  0.1581  0.0878
  137OSM    H3S14805   1.081   7.057   2.765 -0.2185 -2.6022 -0.0244
  137OSM     O314806   1.222   7.129   2.645  0.3165 -0.1549 -0.6384
  137OSM    HO314807   1.266   7.056   2.600  1.6961 -1.2374  2.2080
  137OSM    C4S14808   1.229   7.171   2.875 -0.5814  0.3634  0.1145
  137OSM    H4S14809   1.151   7.193   2.949  1.9001  1.9667  2.4531
  137OSM    C5S14810   1.356   7.234   2.883  0.1565 -0.1690  0.4122
  137OSM    H5S14811   1.433   7.219   2.806  1.2000 -1.5075  1.6850
  137OSM    C6S14812   1.389   7.338   2.988  0.3602 -0.3895  0.8299
  137OSM    H6S14813   1.396   7.439   2.943 -1.7010  0.0613  1.4039
  137OSM    H6T14814   1.492   7.312   3.022  0.5849 -3.1376 -1.4875
  137OSM    C7S14815   1.298   7.357   3.106 -0.1118  0.4065  0.6415
  137OSM    H7S14816   1.296   7.259   3.159 -0.6934 -0.7195 -1.3552
  137OSM    H7T14817   1.197   7.383   3.068  0.8321 -0.9799 -3.3405
  137OSM    C8S14818   1.355   7.464   3.200 -0.5640  0.2922  0.2607
  137OSM    H8S14819   1.345   7.559   3.143 -1.6404 -0.3430 -0.6613
  137OSM    H8T14820   1.463   7.443   3.213 -0.3816  1.3357  0.5634
  137OSM    C9S14821   1.287   7.456   3.340 -0.4734 -0.6005  0.0417
  137OSM    H9S14822   1.303   7.357   3.389 -2.6208  0.0530  2.2541
  137OSM    H9T14823   1.180   7.481   3.328 -0.1446  0.4947 -0.6852
  137OSM   C10S14824   1.349   7.569   3.426 -0.5909  0.0757  0.1407
  137OSM   H10S14825   1.346   7.658   3.358  1.5580  1.4187  1.6907
  137OSM   H10T14826   1.454   7.541   3.445  0.4553  1.9899 -2.2887
  137OSM   C11S14827   1.277   7.585   3.557 -0.3127 -0.0415 -0.4234
  137OSM   H11S14828   1.300   7.493   3.614  2.2901  1.2360  0.7800
  137OSM   H11T14829   1.174   7.601   3.519 -0.2342  1.6796 -0.0055
  137OSM   C12S14830   1.309   7.714   3.634  0.3959 -0.3642  1.0625
  137OSM   H12S14831   1.315   7.801   3.565  0.9512  0.2224  1.8369
  137OSM   H12T14832   1.408   7.708   3.684  0.6517 -1.8598  0.4273
  137OSM   C13S14833   1.214   7.755   3.747 -0.3300  0.2817 -0.1859
  137OSM   H13S14834   1.206   7.669   3.817 -0.2143 -0.5137 -1.1283
  137OSM   H13T14835   1.118   7.790   3.703 -0.5072 -1.6950 -1.5075
  137OSM   C14S14836   1.291   7.870   3.831 -0.5068 -0.5015 -0.1571
  137OSM   H14S14837   1.316   7.950   3.758 -1.8972  0.1349  0.0222
  137OSM   H14T14838   1.376   7.822   3.884 -1.2434  1.1906  2.8133
  137OSM   C15S14839   1.199   7.940   3.930  0.1857 -0.5295 -0.1978
  137OSM   H15S14840   1.107   7.976   3.879 -1.1942 -0.7466  2.0085
  137OSM   H15T14841   1.252   8.026   3.976  0.1743 -1.2038  1.1189
  137OSM   C16S14842   1.152   7.842   4.043  0.2157 -0.3920 -0.0679
  137OSM   H16S14843   1.136   7.744   3.993  0.7503 -1.4438  1.7556
  137OSM   H16T14844   1.049   7.876   4.065  0.4714  1.6613 -1.6604
  137OSM   C17S14845   1.253   7.837   4.163  0.4704  0.1844  0.4567
  137OSM   H17S14846   1.224   7.928   4.220 -2.2390 -1.1998  1.4688
  137OSM   H17T14847   1.355   7.848   4.122  0.2530 -1.1168 -0.4822
  137OSM   C18S14848   1.238   7.708   4.249 -0.2051 -0.0257 -0.1693
  137OSM   H18S14849   1.134   7.697   4.286  0.4764 -0.4787  1.6846
  137OSM   H18T14850   1.297   7.710   4.343 -0.0576  1.9105 -0.2463
  137OSM   H18U14851   1.265   7.625   4.180 -0.1684  1.4289 -2.0006
  137OSM    C1F14852   1.224   6.749   2.971  0.1334  0.0784  0.6550
  137OSM     OF14853   1.317   6.690   2.918  0.0032 -0.1027 -0.2097
  137OSM    C2F14854   1.177   6.706   3.106  0.2389 -0.0429 -0.3698
  137OSM    H2F14855   1.069   6.684   3.110  0.3414 -0.6221 -0.6350
  137OSM    H2G14856   1.190   6.797   3.168 -0.1704  0.2768 -0.7501
  137OSM    C3F14857   1.254   6.582   3.161 -0.3345 -0.1777  0.1565
  137OSM    H3F14858   1.362   6.591   3.135  0.1451 -0.8968  1.7764
  137OSM    H3G14859   1.208   6.488   3.124  0.8621 -1.0665  0.8480
  137OSM    C4F14860   1.216   6.571   3.310 -0.1941  0.9756 -0.6942
  137OSM    H4F14861   1.246   6.670   3.350  1.3035  0.2681  0.0054
  137OSM    H4G14862   1.277   6.490   3.356 -2.3006 -1.6903 -2.2898
  137OSM    C5F14863   1.068   6.541   3.330  0.0183 -0.1530  0.4180
  137OSM    H5F14864   1.043   6.450   3.270 -1.8790  1.2936 -1.1165
  137OSM    H5G14865   1.003   6.624   3.296  0.8280  0.4844  0.4040
  137OSM    C6F14866   1.036   6.514   3.476 -0.3277 -0.1856  0.1571
  137OSM    H6F14867   1.068   6.599   3.540 -0.1702 -1.9242  2.5254
  137OSM    H6G14868   1.096   6.425   3.503 -0.3477 -0.8361 -1.7742
  137OSM    C7F14869   0.888   6.473   3.491  0.1837  0.3374 -0.2374
  137OSM    H7F14870   0.881   6.387   3.421  1.5529 -0.5079  0.6324
  137OSM    H7G14871   0.819   6.553   3.458 -1.4089 -0.7627  0.3027
  137OSM    C8F14872   0.857   6.429   3.633 -0.6548  0.0960 -0.5093
  137OSM    H8F14873   0.937   6.360   3.668  0.8169  2.4763  1.1490
  137OSM    H8G14874   0.764   6.370   3.647 -0.3723 -0.0163  1.0226
  137OSM    C9F14875   0.837   6.539   3.734  0.1019 -0.2683  0.4358
  137OSM    H9F14876   0.751   6.607   3.723 -1.4109 -2.2859 -1.2182
  137OSM   C10F14877   0.915   6.564   3.844 -0.9072  0.2553  0.7854
  137OSM   H10F14878   0.890   6.642   3.917 -2.3923  0.1151  0.4721
  137OSM   C11F14879   1.040   6.480   3.881 -0.6265 -0.3721  0.8614
  137OSM   H11F14880   1.065   6.411   3.797 -1.5260 -0.4922  0.6741
  137OSM   H11G14881   1.010   6.415   3.966 -1.6872  0.5697  1.2331
  137OSM   C12F14882   1.158   6.567   3.918 -0.1887  0.3008  0.5599
  137OSM   H12F14883   1.129   6.630   4.005 -2.3965 -0.9649  0.8267
  137OSM   H12G14884   1.191   6.623   3.828  0.3807 -3.5771 -1.8376
  137OSM   C13F14885   1.275   6.472   3.962 -0.6329 -0.2907 -0.2097
  137OSM   H13F14886   1.295   6.392   3.888 -1.6285  0.8500 -1.7757
  137OSM   H13G14887   1.246   6.425   4.058 -1.1044 -0.2001 -0.3079
  137OSM   C14F14888   1.405   6.552   3.980 -0.1590 -0.8027  0.3619
  137OSM   H14F14889   1.487   6.485   4.013  0.1898  0.1827  1.5494
  137OSM   H14G14890   1.391   6.634   4.054 -0.3688 -1.0795  0.6295
  137OSM   C15F14891   1.465   6.611   3.849 -0.0713  0.2531  0.5434
  137OSM   H15F14892   1.547   6.680   3.876 -0.8061  1.1485  0.5156
  137OSM   H15G14893   1.389   6.668   3.793 -0.5749 -0.7736  0.1454
  137OSM   C16F14894   1.522   6.503   3.756  0.3571  0.1975  0.5031
  137OSM   H16F14895   1.445   6.453   3.694  0.9417  0.1400 -0.1844
  137OSM   H16G14896   1.564   6.423   3.821 -0.2771  0.0439  0.7292
  137OSM   C17F14897   1.630   6.555   3.659  0.2234  0.5505 -0.0952
  137OSM   H17F14898   1.670   6.475   3.592  2.0425  0.9470  0.4526
  137OSM   H17G14899   1.721   6.587   3.714  1.0735 -0.9929 -0.5089
  137OSM   C18F14900   1.574   6.671   3.572 -0.2729 -1.2690  0.3791
  137OSM   H18F14901   1.628   6.677   3.475  2.2101 -0.7316  1.7051
  137OSM   H18G14902   1.584   6.768   3.624 -3.6566  0.0157 -1.1097
  137OSM   H18H14903   1.468   6.645   3.549 -0.5443  0.1115  0.0109
  138OSM      N14904   0.568   3.828   1.736  0.0225 -0.4586 -0.2752
  138OSM    C1514905   0.483   3.927   1.808  0.6847 -0.3501  0.3287
  138OSM   H15A14906   0.502   3.929   1.914  0.6259  0.8168  0.3232
  138OSM   H15B14907   0.377   3.914   1.799  0.3838  1.7650  0.3355
  138OSM   H15C14908   0.492   4.021   1.756 -3.5548 -0.1798 -0.4422
  138OSM    C1414909   0.536   3.696   1.784  0.6972  0.5759  0.2661
  138OSM   H14A14910   0.447   3.650   1.743 -1.1619  0.9278  3.5621
  138OSM   H14B14911   0.522   3.681   1.890 -0.4539 -1.3181 -0.0907
  138OSM   H14C14912   0.615   3.628   1.754 -0.0929  1.0527 -3.3159
  138OSM    C1314913   0.530   3.839   1.588 -0.0562  0.3886 -0.1161
  138OSM   H13A14914   0.579   3.757   1.539  0.7039  0.8304 -0.1086
  138OSM   H13B14915   0.545   3.935   1.542 -1.3350  0.9562  0.5809
  138OSM   H13C14916   0.425   3.815   1.578 -0.0875  1.2340 -2.3596
  138OSM    C1214917   0.716   3.864   1.763  0.3597 -0.4894  0.3940
  138OSM   H12A14918   0.741   3.855   1.868 -1.5265  2.4581  1.2295
  138OSM   H12B14919   0.724   3.970   1.744  1.3438 -0.0011  3.0232
  138OSM    C1114920   0.822   3.788   1.678 -0.0003 -0.5177  0.7699
  138OSM   H11A14921   0.913   3.850   1.690 -1.3626  1.3312  2.2630
  138OSM   H11B14922   0.801   3.785   1.569 -0.9500 -2.0151  0.9578
  138OSM      P14923   0.936   3.627   1.834  0.4119  0.3465 -0.3469
  138OSM    O1314924   0.938   3.483   1.860  0.3532 -0.7910 -0.0973
  138OSM    O1414925   1.062   3.679   1.786  0.2440  0.1121  0.8494
  138OSM    O1114926   0.885   3.709   1.960 -0.5934  0.7803 -0.2319
  138OSM    O1214927   0.820   3.653   1.721 -1.6445 -0.6026 -0.0765
  138OSM    C1S14928   0.966   3.706   2.079 -0.1367 -0.4397  0.2450
  138OSM    H1S14929   1.050   3.776   2.061 -0.6507  0.0383 -0.3440
  138OSM    H1T14930   1.030   3.616   2.089  0.3498 -0.1560 -0.2675
  138OSM     NF14931   0.986   3.752   2.323 -0.2988  0.6272  0.5317
  138OSM    HNF14932   1.009   3.665   2.365 -3.9702 -1.4099 -1.2068
  138OSM    C2S14933   0.892   3.742   2.214  0.2612  0.5003 -0.5080
  138OSM    H2S14934   0.840   3.840   2.207  0.3956  0.6909  0.8907
  138OSM    C3S14935   0.775   3.641   2.234 -0.0693 -0.5226 -0.1983
  138OSM    H3S14936   0.812   3.537   2.245 -1.7048 -1.1227 -0.0561
  138OSM     O314937   0.692   3.622   2.118 -0.1737  0.0833  0.0919
  138OSM    HO314938   0.748   3.663   2.053  1.0588 -1.1700  0.3195
  138OSM    C4S14939   0.690   3.673   2.361 -0.1298 -0.2026  0.2673
  138OSM    H4S14940   0.688   3.585   2.428 -0.0371 -1.6425 -1.5482
  138OSM    C5S14941   0.599   3.771   2.377 -0.2528 -0.0584 -0.1844
  138OSM    H5S14942   0.595   3.847   2.297  1.3468  0.5918  0.3013
  138OSM    C6S14943   0.514   3.805   2.500  0.9108  0.2728 -0.1902
  138OSM    H6S14944   0.443   3.889   2.481  0.9155  0.4116  0.3890
  138OSM    H6T14945   0.572   3.851   2.583 -1.3328  0.3903  1.4118
  138OSM    C7S14946   0.431   3.685   2.556 -0.1411  0.9141  0.1334
  138OSM    H7S14947   0.509   3.623   2.605 -0.1740 -2.0562 -3.1481
  138OSM    H7T14948   0.386   3.615   2.483  0.3563 -0.7170  1.3296
  138OSM    C8S14949   0.315   3.732   2.648  0.1650 -0.1203 -0.0502
  138OSM    H8S14950   0.250   3.800   2.589  4.1616  2.6242 -1.6240
  138OSM    H8T14951   0.368   3.797   2.720  0.9798  0.5239 -1.2042
  138OSM    C9S14952   0.241   3.611   2.711 -0.0123  0.3505  0.2427
  138OSM    H9S14953   0.309   3.550   2.773  2.7619  0.2391 -2.6295
  138OSM    H9T14954   0.211   3.543   2.628 -0.9429 -0.6929  1.4073
  138OSM   C10S14955   0.123   3.643   2.805  0.1753 -0.2076 -0.1272
  138OSM   H10S14956   0.041   3.704   2.762  0.6578  1.1089  0.7834
  138OSM   H10T14957   0.163   3.698   2.893  0.9149 -2.0317  0.7336
  138OSM   C11S14958   0.068   3.507   2.860  0.0352  0.5344 -0.7161
  138OSM   H11S14959   0.157   3.442   2.874 -0.6267 -0.1121  0.7043
  138OSM   H11T14960  -0.008   3.483   2.783 -3.0750 -0.7984  2.5031
  138OSM   C12S14961  -0.006   3.526   2.992 -0.0489 -0.4955  0.3711
  138OSM   H12S14962  -0.080   3.607   2.975  0.6002 -0.0192 -0.2313
  138OSM   H12T14963   0.068   3.567   3.064 -0.6894 -0.2610  0.9062
  138OSM   C13S14964  -0.075   3.391   3.040 -0.2066  0.3540 -0.5777
  138OSM   H13S14965  -0.176   3.389   2.995 -0.0986  0.3677 -0.8231
  138OSM   H13T14966  -0.106   3.402   3.146 -0.2990  0.8112 -0.6470
  138OSM   C14S14967   0.007   3.269   3.017 -0.1940 -0.1563  0.4489
  138OSM   H14S14968   0.105   3.294   3.062 -1.1363  3.2059  0.8937
  138OSM   H14T14969   0.019   3.251   2.908 -0.9415 -0.8917  0.4778
  138OSM   C15S14970  -0.047   3.145   3.093  0.4429  0.2224 -0.5249
  138OSM   H15S14971  -0.157   3.135   3.086  0.5566 -0.7618 -1.1240
  138OSM   H15T14972  -0.022   3.174   3.197  0.9007  0.5809 -0.7331
  138OSM   C16S14973   0.026   3.014   3.072 -0.0632 -0.4486  0.0269
  138OSM   H16S14974  -0.017   2.951   3.153 -0.9793  0.1233  0.0080
  138OSM   H16T14975   0.134   3.021   3.095  0.5930 -0.5170 -2.6645
  138OSM   C17S14976   0.012   2.934   2.940  0.2571 -0.1262 -0.5274
  138OSM   H17S14977  -0.097   2.913   2.926  0.7101 -0.7862 -4.3653
  138OSM   H17T14978   0.071   2.841   2.951  1.5878  0.2773 -3.2825
  138OSM   C18S14979   0.085   2.996   2.813  0.3095 -0.4147 -0.2748
  138OSM   H18S14980   0.085   2.921   2.732  0.4103 -0.7571  0.0378
  138OSM   H18T14981   0.188   3.024   2.845 -0.4122  0.5713  1.3021
  138OSM   H18U14982   0.034   3.090   2.783  0.9735 -0.1150 -0.4915
  138OSM    C1F14983   1.063   3.858   2.336 -0.4031 -0.2415 -0.4769
  138OSM     OF14984   1.067   3.950   2.250  0.0931 -0.5071  1.2136
  138OSM    C2F14985   1.156   3.850   2.457  0.5738  0.3224 -0.1888
  138OSM    H2F14986   1.186   3.956   2.467  1.2981  0.2670 -1.5366
  138OSM    H2G14987   1.244   3.790   2.423  0.1219 -0.5825  0.1811
  138OSM    C3F14988   1.094   3.799   2.592  0.2864 -0.9030  0.0521
  138OSM    H3F14989   1.183   3.784   2.656  0.1271 -1.2505  0.1973
  138OSM    H3G14990   1.031   3.708   2.590  0.4843 -1.1840  2.6110
  138OSM    C4F14991   0.991   3.905   2.651  0.5581  0.2819 -0.2518
  138OSM    H4F14992   0.899   3.915   2.589 -0.3516  2.7677  1.3473
  138OSM    H4G14993   1.041   4.004   2.641  0.5640  0.2984 -0.0669
  138OSM    C5F14994   0.953   3.868   2.794 -0.2763  0.6869 -0.0929
  138OSM    H5F14995   1.048   3.837   2.843 -0.3112 -0.4430 -0.6947
  138OSM    H5G14996   0.873   3.791   2.796 -0.2704  0.6868  2.5640
  138OSM    C6F14997   0.903   3.981   2.870  0.0048 -0.6787 -0.4418
  138OSM    H6F14998   0.802   4.017   2.840  0.2372 -0.5205 -1.0599
  138OSM    H6G14999   0.962   4.073   2.853 -0.6595 -0.3354 -0.9833
  138OSM    C7F15000   0.905   3.951   3.027  0.5603 -0.0036 -0.1494
  138OSM    H7F15001   0.871   3.846   3.038 -1.4601  0.7078  1.0139
  138OSM    H7G15002   0.822   4.011   3.071  0.1601 -3.1462  4.0692
  138OSM    C8F15003   1.043   3.976   3.089 -0.0496 -0.1935 -0.2533
  138OSM    H8F15004   1.062   4.085   3.090 -0.4450 -0.0634 -2.3657
  138OSM    H8G15005   1.114   3.925   3.021  0.0371 -1.4971  0.7658
  138OSM    C9F15006   1.053   3.901   3.217 -0.1074 -0.1573 -0.1566
  138OSM    H9F15007   1.026   3.795   3.203 -0.6421 -0.1442  0.6804
  138OSM   C10F15008   1.061   3.938   3.345  0.5841  0.2808  0.7726
  138OSM   H10F15009   1.062   3.860   3.422 -0.6415  1.3760  1.9656
  138OSM   C11F15010   1.087   4.073   3.400 -0.4125  0.0372  0.1472
  138OSM   H11F15011   0.995   4.118   3.443 -0.7161 -1.9580  1.7325
  138OSM   H11G15012   1.121   4.129   3.310 -1.4229 -0.0172 -0.2855
  138OSM   C12F15013   1.214   4.092   3.491 -0.5722  0.0156  1.2338
  138OSM   H12F15014   1.220   4.202   3.490 -5.1353  0.7219 -4.4034
  138OSM   H12G15015   1.305   4.055   3.440 -0.3391 -0.7438  2.1658
  138OSM   C13F15016   1.216   4.034   3.629  0.1533  0.9008 -0.4328
  138OSM   H13F15017   1.317   4.054   3.670  0.4638  0.6789 -1.0735
  138OSM   H13G15018   1.199   3.924   3.630 -0.2268  0.9481 -0.9436
  138OSM   C14F15019   1.113   4.100   3.727  1.0108  0.4925  0.5370
  138OSM   H14F15020   1.025   4.117   3.662  2.0748  3.3489 -0.2805
  138OSM   H14G15021   1.140   4.204   3.755 -1.5521  0.8242  2.1256
  138OSM   C15F15022   1.089   4.022   3.849  0.5553 -0.3081 -1.1293
  138OSM   H15F15023   1.031   3.932   3.817  1.4615  0.1409 -4.3194
  138OSM   H15G15024   1.017   4.091   3.898  0.9110 -0.1342 -0.8511
  138OSM   C16F15025   1.205   4.002   3.944 -0.3751 -0.1851 -0.3996
  138OSM   H16F15026   1.268   4.094   3.951 -0.7876  0.2691 -2.1710
  138OSM   H16G15027   1.273   3.943   3.878  1.0311  0.7551  0.1517
  138OSM   C17F15028   1.174   3.934   4.083  0.5521  0.0172 -0.2601
  138OSM   H17F15029   1.130   4.013   4.147  2.6202  0.1432  1.1124
  138OSM   H17G15030   1.270   3.912   4.135 -1.9048 -0.9834  4.3531
  138OSM   C18F15031   1.070   3.815   4.086 -1.0643 -0.3877 -0.0813
  138OSM   H18F15032   0.981   3.850   4.029  1.2204  1.4631 -2.7511
  138OSM   H18G15033   1.045   3.797   4.193 -1.2277 -1.1080 -0.2381
  138OSM   H18H15034   1.113   3.723   4.041 -0.8193 -0.2887 -0.0484
  139OSM      N15035   1.842   0.503   1.689 -0.0961 -0.2827 -0.1292
  139OSM    C1515036   1.891   0.515   1.550  0.1189  0.2348 -0.4050
  139OSM   H15A15037   1.896   0.619   1.523 -1.6806  0.4634  0.0409
  139OSM   H15B15038   1.828   0.468   1.476 -0.6440  0.5237  0.0495
  139OSM   H15C15039   1.996   0.489   1.543  0.1162  0.6019 -2.4017
  139OSM    C1415040   1.709   0.570   1.693 -0.3124  0.3373 -0.1496
  139OSM   H14A15041   1.651   0.538   1.779  1.0297 -1.2249  0.2165
  139OSM   H14B15042   1.648   0.540   1.609 -0.7386  0.3862  0.1411
  139OSM   H14C15043   1.711   0.676   1.673  0.1504  0.1934 -0.9161
  139OSM    C1315044   1.831   0.360   1.716 -0.6022 -0.0293  0.1975
  139OSM   H13A15045   1.928   0.312   1.719  0.0033  1.1593  3.4850
  139OSM   H13B15046   1.772   0.308   1.642  0.6452 -0.6682 -0.3802
  139OSM   H13C15047   1.804   0.351   1.820 -2.0314  0.0141 -0.1490
  139OSM    C1215048   1.941   0.563   1.783  0.6149 -0.0056 -0.4163
  139OSM   H12A15049   1.951   0.667   1.758 -0.9402 -0.1212 -1.6459
  139OSM   H12B15050   2.041   0.524   1.772  1.9835  3.2284 -0.6535
  139OSM    C1115051   1.904   0.563   1.936 -0.0968 -0.2315 -0.0250
  139OSM   H11A15052   1.825   0.641   1.941  0.4955  0.3468  0.4697
  139OSM   H11B15053   1.986   0.600   2.001 -0.1174 -2.8635  1.6172
  139OSM      P15054   1.962   0.345   2.061 -0.0582 -0.1702  0.1829
  139OSM    O1315055   1.930   0.202   2.036  0.6715  0.0099  0.1865
  139OSM    O1415056   2.095   0.392   2.023 -0.2207 -0.2919 -0.0038
  139OSM    O1115057   1.941   0.367   2.215 -0.8279 -0.9965 -0.2559
  139OSM    O1215058   1.856   0.440   1.987 -0.1472 -0.5009 -0.0739
  139OSM    C1S15059   1.952   0.499   2.281  0.5606 -0.0020 -0.5305
  139OSM    H1S15060   1.904   0.579   2.220  0.3973 -0.8657 -1.5816
  139OSM    H1T15061   2.059   0.526   2.293  0.3005  0.7524  0.1214
  139OSM     NF15062   1.924   0.619   2.497  0.3562  0.6253  0.5441
  139OSM    HNF15063   1.988   0.622   2.574 -0.1989  0.4168  1.0163
  139OSM    C2S15064   1.895   0.495   2.426  0.6132 -0.5822 -0.1119
  139OSM    H2S15065   1.786   0.495   2.407  0.5915  0.2774 -0.0087
  139OSM    C3S15066   1.947   0.373   2.514  0.8074 -0.0842  0.6299
  139OSM    H3S15067   2.049   0.409   2.539  0.3785  0.3282  1.8601
  139OSM     O315068   1.953   0.245   2.451 -0.0207  0.7481  0.1450
  139OSM    HO315069   1.906   0.259   2.368  1.1814  2.9020 -0.2298
  139OSM    C4S15070   1.863   0.347   2.644 -0.1127 -0.4097  1.2805
  139OSM    H4S15071   1.756   0.361   2.624  0.2632  0.9747  0.0399
  139OSM    C5S15072   1.904   0.332   2.770 -0.6435  0.1083 -0.7444
  139OSM    H5S15073   2.008   0.308   2.795 -0.6437  1.6816  1.0927
  139OSM    C6S15074   1.807   0.314   2.887 -0.2057  0.8304  1.0083
  139OSM    H6S15075   1.812   0.208   2.919  0.4073  0.7000  0.5090
  139OSM    H6T15076   1.701   0.339   2.864 -0.5625  0.0306  1.7373
  139OSM    C7S15077   1.869   0.376   3.014  0.2378 -0.7354 -0.3523
  139OSM    H7S15078   1.876   0.484   2.986  3.2767 -1.0872 -1.2373
  139OSM    H7T15079   1.970   0.333   3.032  0.3851 -0.4286 -0.4347
  139OSM    C8S15080   1.778   0.359   3.143 -0.8961 -0.8235  0.1067
  139OSM    H8S15081   1.761   0.250   3.141  0.7017 -1.0984  0.2084
  139OSM    H8T15082   1.687   0.423   3.139  0.3531  1.1147  0.8951
  139OSM    C9S15083   1.849   0.394   3.273 -0.3958  0.1045 -0.7364
  139OSM    H9S15084   1.847   0.505   3.277 -0.6744  0.0538  0.9800
  139OSM    H9T15085   1.956   0.366   3.263 -0.8001 -2.1567  0.6158
  139OSM   C10S15086   1.779   0.331   3.399  0.8237  0.1588 -0.1019
  139OSM   H10S15087   1.773   0.223   3.374  0.3840  0.5676 -1.8652
  139OSM   H10T15088   1.675   0.368   3.403  0.5726 -0.5638  0.2263
  139OSM   C11S15089   1.852   0.362   3.532 -0.0507  0.2437  0.0228
  139OSM   H11S15090   1.814   0.466   3.547  0.6802  0.3912  0.9638
  139OSM   H11T15091   1.962   0.353   3.516 -0.0325  0.5117 -0.0186
  139OSM   C12S15092   1.803   0.263   3.646  0.2622  0.1639 -0.2823
  139OSM   H12S15093   1.843   0.163   3.622  0.3950  0.4501 -1.3030
  139OSM   H12T15094   1.694   0.242   3.636  0.3265 -0.8911  0.9469
  139OSM   C13S15095   1.821   0.307   3.798 -0.2785  0.2898  1.2749
  139OSM   H13S15096   1.926   0.315   3.832  0.4460  0.8876 -0.9124
  139OSM   H13T15097   1.770   0.236   3.866  0.3696 -1.6027 -0.1498
  139OSM   C14S15098   1.767   0.447   3.809 -0.4246  0.0581  0.1805
  139OSM   H14S15099   1.810   0.521   3.738 -1.0216  0.0972 -0.1494
  139OSM   H14T15100   1.805   0.480   3.908  0.8865  1.7292 -0.8362
  139OSM   C15S15101   1.615   0.464   3.799 -0.1730  0.0382  0.5490
  139OSM   H15S15102   1.579   0.433   3.698  2.6815  0.7267 -0.7932
  139OSM   H15T15103   1.606   0.575   3.796  0.2247  0.0762  0.7712
  139OSM   C16S15104   1.530   0.401   3.912  0.2310  0.5904 -0.2356
  139OSM   H16S15105   1.578   0.310   3.954 -0.5574  0.4432  0.3662
  139OSM   H16T15106   1.435   0.357   3.876  0.1063  0.6747 -0.0113
  139OSM   C17S15107   1.516   0.491   4.028  0.0056 -0.3717  0.5962
  139OSM   H17S15108   1.449   0.575   4.001 -0.8451 -0.8194  1.2663
  139OSM   H17T15109   1.617   0.525   4.059 -0.3395 -0.5774  2.0046
  139OSM   C18S15110   1.455   0.422   4.154  0.2106 -0.2363  0.0542
  139OSM   H18S15111   1.441   0.491   4.240  0.4524  1.7697 -1.4411
  139OSM   H18T15112   1.527   0.349   4.196  0.3624  0.0018  0.2104
  139OSM   H18U15113   1.356   0.378   4.130  0.4724 -0.5847 -0.3939
  139OSM    C1F15114   1.873   0.733   2.457 -0.1214  0.5572  0.0544
  139OSM     OF15115   1.773   0.727   2.384  0.5586  0.0393  0.0797
  139OSM    C2F15116   1.944   0.865   2.490  0.4902  0.2978  0.3053
  139OSM    H2F15117   1.944   0.938   2.407  2.8961  0.9706  0.8379
  139OSM    H2G15118   2.049   0.837   2.510  0.1192 -3.7124 -2.3613
  139OSM    C3F15119   1.880   0.934   2.615 -0.6259  1.1012 -0.5104
  139OSM    H3F15120   1.886   0.867   2.703 -1.2755  0.1666 -1.1626
  139OSM    H3G15121   1.776   0.960   2.587 -0.4287  1.5269 -0.8553
  139OSM    C4F15122   1.952   1.069   2.646  1.0660  0.6282 -0.1225
  139OSM    H4F15123   1.928   1.138   2.562  0.3058  1.0276  0.4148
  139OSM    H4G15124   2.063   1.064   2.655  0.9922  0.6573  0.9133
  139OSM    C5F15125   1.913   1.134   2.774  1.2036  0.0265 -0.0262
  139OSM    H5F15126   1.802   1.145   2.778  1.0250 -0.7711 -1.7495
  139OSM    H5G15127   1.956   1.236   2.771  0.6228  0.2625 -0.4653
  139OSM    C6F15128   1.953   1.057   2.908 -1.1056 -0.1492 -0.6401
  139OSM    H6F15129   1.904   0.958   2.903  1.0778 -1.2856 -0.9501
  139OSM    H6G15130   1.914   1.106   3.000  0.1530 -0.3583  0.0320
  139OSM    C7F15131   2.111   1.041   2.927  0.4035  0.5484  0.3944
  139OSM    H7F15132   2.161   1.139   2.942 -0.1732  0.6056  2.1628
  139OSM    H7G15133   2.143   0.986   2.836 -2.7309  1.8304 -1.6428
  139OSM    C8F15134   2.149   0.951   3.051 -0.1290 -0.3634  0.5066
  139OSM    H8F15135   2.104   0.999   3.140 -3.0890 -2.1470  0.1014
  139OSM    H8G15136   2.260   0.952   3.057 -0.1825 -2.2904  3.7943
  139OSM    C9F15137   2.109   0.807   3.026  0.6050 -0.3958  0.1647
  139OSM    H9F15138   2.054   0.790   2.932 -1.5094  1.3347  0.9897
  139OSM   C10F15139   2.129   0.711   3.114 -0.2115 -0.0046  0.9997
  139OSM   H10F15140   2.094   0.611   3.085 -1.6689  0.7956 -0.0903
  139OSM   C11F15141   2.206   0.750   3.245 -0.0445 -0.3755  1.0826
  139OSM   H11F15142   2.288   0.818   3.214 -3.6532  4.3076  0.6872
  139OSM   H11G15143   2.236   0.652   3.287  1.7078 -0.4153 -0.1828
  139OSM   C12F15144   2.126   0.816   3.359  0.4089 -1.0781  0.1287
  139OSM   H12F15145   2.037   0.757   3.390 -0.9767  0.9274  0.2089
  139OSM   H12G15146   2.076   0.910   3.324  0.0066 -0.8077  1.3795
  139OSM   C13F15147   2.217   0.854   3.470  0.3585  0.1977 -0.0116
  139OSM   H13F15148   2.279   0.936   3.429 -2.0403  1.8478 -0.5458
  139OSM   H13G15149   2.280   0.764   3.490 -0.4470 -0.5851 -0.8674
  139OSM   C14F15150   2.141   0.904   3.597 -0.2919  0.6095  0.1300
  139OSM   H14F15151   2.043   0.850   3.600  0.0998 -0.0822  2.3336
  139OSM   H14G15152   2.111   1.008   3.574  0.3007  0.5267 -1.1286
  139OSM   C15F15153   2.225   0.900   3.720 -0.3366 -0.3918 -0.5511
  139OSM   H15F15154   2.209   0.995   3.775  0.4670 -0.2717 -0.4993
  139OSM   H15G15155   2.331   0.897   3.686  0.9224 -1.8496  3.0609
  139OSM   C16F15156   2.191   0.779   3.813  0.5771 -0.6593 -0.5764
  139OSM   H16F15157   2.082   0.786   3.834  0.9296  2.1094  0.7639
  139OSM   H16G15158   2.249   0.789   3.907  0.0195  0.8346 -0.3576
  139OSM   C17F15159   2.217   0.646   3.752  0.2032  0.5357 -0.6089
  139OSM   H17F15160   2.327   0.631   3.739  0.3178 -1.9940  2.3513
  139OSM   H17G15161   2.169   0.640   3.652 -0.4707 -1.8249 -0.2063
  139OSM   C18F15162   2.169   0.526   3.841 -0.0175  0.4267  0.0644
  139OSM   H18F15163   2.220   0.431   3.814 -0.4323  0.2348 -0.0525
  139OSM   H18G15164   2.058   0.526   3.850 -0.0347  0.9431 -0.1123
  139OSM   H18H15165   2.198   0.555   3.944  0.6724  0.2386 -0.0701
  140OSM      N15166   0.917   4.920   2.048 -0.3053  0.3560  0.3134
  140OSM    C1515167   0.849   4.934   2.178  0.2068 -0.2927  0.1322
  140OSM   H15A15168   0.829   5.035   2.210  1.0476 -0.0727  0.0026
  140OSM   H15B15169   0.907   4.876   2.248 -0.0807 -0.5536  0.1549
  140OSM   H15C15170   0.757   4.878   2.174 -0.1529  0.3350 -0.6767
  140OSM    C1415171   0.838   4.957   1.932 -0.7713  0.3287 -0.0749
  140OSM   H14A15172   0.885   4.947   1.836 -2.8174  2.8745 -1.4509
  140OSM   H14B15173   0.787   5.052   1.936 -1.4570  0.1263 -2.5869
  140OSM   H14C15174   0.756   4.888   1.917 -1.2412  0.7713  0.4266
  140OSM    C1315175   1.038   5.007   2.054  0.0141  0.6360  0.2259
  140OSM   H13A15176   1.025   5.112   2.076  2.2030  1.0251 -0.0793
  140OSM   H13B15177   1.094   5.006   1.961  0.7934  0.8079  0.6856
  140OSM   H13C15178   1.104   4.972   2.132  0.0492  0.9678  0.3444
  140OSM    C1215179   0.956   4.768   2.014  1.0728 -0.2865 -0.5690
  140OSM   H12A15180   1.013   4.740   2.101 -0.4913 -0.7210  0.3652
  140OSM   H12B15181   1.024   4.761   1.930  2.1916 -3.9767  0.4282
  140OSM    C1115182   0.843   4.666   1.987  0.0129 -0.3742  0.4839
  140OSM   H11A15183   0.887   4.565   1.973 -0.3504 -0.3199 -1.2348
  140OSM   H11B15184   0.801   4.699   1.890 -1.4108  1.4773  1.6522
  140OSM      P15185   0.598   4.653   2.060 -0.1037  0.2426  0.0541
  140OSM    O1315186   0.552   4.771   1.986 -0.3643 -0.0199  0.2345
  140OSM    O1415187   0.578   4.526   1.991 -0.3573 -0.2235  0.0536
  140OSM    O1115188   0.520   4.647   2.192  0.4606 -0.0010  0.4070
  140OSM    O1215189   0.752   4.666   2.096  0.4216 -0.6417 -0.3769
  140OSM    C1S15190   0.584   4.642   2.319 -0.3977 -0.4384  0.5950
  140OSM    H1S15191   0.666   4.717   2.313  1.6048 -2.6744 -2.0383
  140OSM    H1T15192   0.629   4.541   2.324 -1.0135 -0.9033 -1.9124
  140OSM     NF15193   0.572   4.706   2.564  0.2981  0.7669 -0.2224
  140OSM    HNF15194   0.563   4.643   2.641 -2.7195  2.3954  0.8895
  140OSM    C2S15195   0.499   4.669   2.443  0.4607  0.8288 -0.4619
  140OSM    H2S15196   0.431   4.756   2.432  2.9234  2.7985 -1.0987
  140OSM    C3S15197   0.398   4.555   2.473 -0.1520  0.1213 -0.4182
  140OSM    H3S15198   0.459   4.464   2.496 -0.4093  0.0628  0.0421
  140OSM     O315199   0.319   4.536   2.356  0.2905 -0.0920  0.3741
  140OSM    HO315200   0.365   4.586   2.289  0.9628  1.2359  1.7547
  140OSM    C4S15201   0.318   4.578   2.595  0.5790  0.1759 -0.5419
  140OSM    H4S15202   0.370   4.559   2.690 -2.6355 -2.3018  0.9011
  140OSM    C5S15203   0.189   4.618   2.606  0.7512  0.0702  1.0198
  140OSM    H5S15204   0.135   4.632   2.511  1.6110 -0.4884  0.4369
  140OSM    C6S15205   0.105   4.639   2.728 -0.2650  0.4088 -0.7111
  140OSM    H6S15206   0.009   4.582   2.721  0.4446 -0.5840 -3.5774
  140OSM    H6T15207   0.083   4.747   2.740 -0.4548  0.3561 -0.5786
  140OSM    C7S15208   0.176   4.597   2.855  0.0881  0.5567  0.0686
  140OSM    H7S15209   0.251   4.676   2.880  0.5694  0.2596 -0.4086
  140OSM    H7T15210   0.236   4.504   2.849  2.8475  2.2994 -1.7731
  140OSM    C8S15211   0.085   4.587   2.980  0.0081 -0.3035 -1.0122
  140OSM    H8S15212  -0.013   4.547   2.947 -0.8465  0.5171  0.4684
  140OSM    H8T15213   0.068   4.673   3.047  2.3969 -1.6634  1.5310
  140OSM    C9S15214   0.140   4.483   3.082 -0.5390  0.2501 -0.7009
  140OSM    H9S15215   0.239   4.512   3.121 -1.5489  1.2780  1.2625
  140OSM    H9T15216   0.153   4.383   3.035  2.3187  1.0125 -1.7218
  140OSM   C10S15217   0.048   4.463   3.209  0.1332  0.2669 -0.0290
  140OSM   H10S15218  -0.056   4.439   3.180  0.3170 -0.8064  0.1403
  140OSM   H10T15219   0.043   4.554   3.273  2.6619  0.4104  0.0879
  140OSM   C11S15220   0.083   4.336   3.290 -0.9100  0.2635  0.3281
  140OSM   H11S15221   0.081   4.245   3.225 -0.5213  2.4919 -3.0399
  140OSM   H11T15222   0.030   4.316   3.386 -0.7872 -0.8552  0.1847
  140OSM   C12S15223   0.225   4.324   3.339  0.0361 -0.6141  0.2155
  140OSM   H12S15224   0.249   4.421   3.388 -0.4087  0.1308 -0.9887
  140OSM   H12T15225   0.283   4.318   3.244 -0.6451  1.1469 -0.3497
  140OSM   C13S15226   0.255   4.199   3.422 -0.7307 -0.0553  0.4799
  140OSM   H13S15227   0.359   4.162   3.406 -1.0915 -0.9642  0.2083
  140OSM   H13T15228   0.188   4.120   3.382  0.6097 -0.7727 -0.4164
  140OSM   C14S15229   0.237   4.222   3.577 -0.5206  0.0309 -0.1535
  140OSM   H14S15230   0.172   4.312   3.587 -1.2560 -0.5829  0.8190
  140OSM   H14T15231   0.332   4.256   3.623  0.1280 -1.2692 -0.4932
  140OSM   C15S15232   0.175   4.104   3.655  0.1368 -0.6899  0.4266
  140OSM   H15S15233   0.115   4.054   3.576 -0.3519 -1.4846  1.2783
  140OSM   H15T15234   0.119   4.149   3.740  1.4594 -1.2544  1.6203
  140OSM   C16S15235   0.285   4.019   3.720 -0.2926 -0.1430 -0.4699
  140OSM   H16S15236   0.348   4.092   3.775 -2.2429  2.7232 -1.7763
  140OSM   H16T15237   0.344   3.963   3.645  1.7829 -1.2507  1.8440
  140OSM   C17S15238   0.226   3.916   3.818  0.9558 -0.0078 -0.3427
  140OSM   H17S15239   0.165   3.853   3.749  0.6370  1.5912 -1.5651
  140OSM   H17T15240   0.152   3.952   3.892  1.7748 -1.2018  1.1140
  140OSM   C18S15241   0.335   3.832   3.883  0.0843  0.2698  0.1470
  140OSM   H18S15242   0.388   3.787   3.795  0.8678  0.6763  0.4059
  140OSM   H18T15243   0.292   3.744   3.935 -0.7971  1.8653  2.2261
  140OSM   H18U15244   0.412   3.890   3.939 -1.0704  0.0251  2.0620
  140OSM    C1F15245   0.646   4.814   2.577 -0.2457 -0.0506  0.9695
  140OSM     OF15246   0.626   4.906   2.497  0.0835  0.1372 -0.3563
  140OSM    C2F15247   0.739   4.818   2.692 -0.5705  0.1563  0.0674
  140OSM    H2F15248   0.719   4.741   2.770 -0.8704 -0.0895 -0.2482
  140OSM    H2G15249   0.727   4.924   2.723 -0.9236 -0.2466  1.3966
  140OSM    C3F15250   0.892   4.808   2.648  0.1563  0.3284 -0.6159
  140OSM    H3F15251   0.912   4.899   2.586 -1.8218  0.0852 -1.7086
  140OSM    H3G15252   0.912   4.720   2.583 -0.0478 -0.3783  0.2701
  140OSM    C4F15253   0.997   4.827   2.762 -0.5200  0.3498 -0.3573
  140OSM    H4F15254   0.990   4.931   2.801  0.7109  0.3702 -0.1693
  140OSM    H4G15255   1.094   4.813   2.710  0.6591  2.1274  1.2167
  140OSM    C5F15256   0.970   4.724   2.872  0.5029  0.3089  0.2767
  140OSM    H5F15257   0.957   4.627   2.820  1.0024  0.7762 -0.7438
  140OSM    H5G15258   0.873   4.741   2.923 -1.4157 -2.7880 -2.0407
  140OSM    C6F15259   1.093   4.714   2.966  0.3052 -0.0174 -0.6214
  140OSM    H6F15260   1.107   4.800   3.035 -1.7265 -1.2895  1.5658
  140OSM    H6G15261   1.174   4.705   2.891 -2.1110  1.4451 -3.6391
  140OSM    C7F15262   1.107   4.586   3.053  0.3720 -0.4373  0.2735
  140OSM    H7F15263   1.107   4.499   2.984  0.9211 -1.3536  1.3938
  140OSM    H7G15264   1.023   4.574   3.125  1.1762 -1.1427  1.1260
  140OSM    C8F15265   1.243   4.576   3.123  0.4298  0.0840 -0.0550
  140OSM    H8F15266   1.278   4.672   3.166  0.3241  0.1562 -0.1296
  140OSM    H8G15267   1.310   4.529   3.048  2.7028 -1.1716  2.5822
  140OSM    C9F15268   1.235   4.473   3.231 -0.3687  0.0659  0.9077
  140OSM    H9F15269   1.243   4.368   3.197 -0.2411 -0.0733  1.3502
  140OSM   C10F15270   1.209   4.498   3.361 -0.9716  0.2116  0.3949
  140OSM   H10F15271   1.219   4.416   3.434  0.4775 -0.1831 -0.1939
  140OSM   C11F15272   1.163   4.633   3.410  0.0986 -0.3860  0.1083
  140OSM   H11F15273   1.100   4.677   3.329 -0.1254 -3.5433 -1.5771
  140OSM   H11G15274   1.246   4.706   3.428  1.3576 -1.9036  0.7063
  140OSM   C12F15275   1.088   4.621   3.542  0.2032  0.3096 -0.1465
  140OSM   H12F15276   1.027   4.528   3.535  0.4998  0.2683 -3.2923
  140OSM   H12G15277   1.023   4.710   3.546  1.9035  1.5980 -0.1138
  140OSM   C13F15278   1.178   4.609   3.664  0.3440  0.6975 -0.2761
  140OSM   H13F15279   1.245   4.698   3.674 -0.2111  0.9159  2.3183
  140OSM   H13G15280   1.243   4.520   3.656  1.0985  0.7265  3.5073
  140OSM   C14F15281   1.105   4.600   3.799  0.3653 -0.7893 -0.0613
  140OSM   H14F15282   1.187   4.578   3.872  0.7503  0.6234 -0.0465
  140OSM   H14G15283   1.027   4.521   3.791 -1.2838  0.4456  2.6001
  140OSM   C15F15284   1.025   4.718   3.840  0.1224 -0.2133 -0.3871
  140OSM   H15F15285   0.943   4.744   3.769  0.8842 -0.3496 -1.3442
  140OSM   H15G15286   1.080   4.813   3.855 -0.8049  0.6027 -1.8292
  140OSM   C16F15287   0.955   4.685   3.979  0.2923  0.1045 -0.1758
  140OSM   H16F15288   1.036   4.660   4.051  2.1827 -1.1162 -2.5742
  140OSM   H16G15289   0.884   4.599   3.979 -0.1095  0.4341 -0.2755
  140OSM   C17F15290   0.885   4.806   4.040  0.4208  0.6972 -0.1871
  140OSM   H17F15291   0.821   4.846   3.959  1.2341  0.1576 -1.1240
  140OSM   H17G15292   0.961   4.879   4.077 -0.4312  2.4044 -1.6294
  140OSM   C18F15293   0.796   4.758   4.153  0.0459 -0.7138  0.0044
  140OSM   H18F15294   0.710   4.700   4.112  0.0030  0.2932 -1.4035
  140OSM   H18G15295   0.772   4.846   4.217 -1.7604  0.4863 -2.1590
  140OSM   H18H15296   0.861   4.690   4.211  1.4555 -0.5604 -1.3359
  141OSM      N15297   5.819   2.613   1.744  0.5338 -0.3150 -0.7017
  141OSM    C1515298   5.898   2.735   1.705  0.0246 -0.8890  0.0010
  141OSM   H15A15299   5.977   2.749   1.778  0.6801 -0.7579 -0.7258
  141OSM   H15B15300   5.837   2.823   1.717  2.5576  0.8428  1.3303
  141OSM   H15C15301   5.934   2.726   1.604 -1.4527  1.4708 -0.8093
  141OSM    C1415302   5.751   2.646   1.873 -0.3876  0.4384 -0.0175
  141OSM   H14A15303   5.660   2.703   1.863 -1.7213 -1.1940  2.0034
  141OSM   H14B15304   5.821   2.692   1.941 -0.1229 -2.1158  1.5712
  141OSM   H14C15305   5.719   2.554   1.919 -0.7705  1.0107  0.8930
  141OSM    C1315306   5.711   2.591   1.645  0.3211 -0.1546  0.5571
  141OSM   H13A15307   5.646   2.507   1.666 -1.0369  0.9492  0.8905
  141OSM   H13B15308   5.752   2.568   1.548  0.4130 -1.2716  0.8418
  141OSM   H13C15309   5.642   2.673   1.635 -1.0797 -1.5379 -1.9661
  141OSM    C1215310   5.910   2.495   1.750  0.1474  0.0350  0.7143
  141OSM   H12A15311   5.965   2.488   1.657 -0.2927  0.3827  0.4271
  141OSM   H12B15312   5.854   2.403   1.761 -0.3502  0.0600 -1.2700
  141OSM    C1115313   6.021   2.496   1.854 -0.0735 -0.5247 -0.7403
  141OSM   H11A15314   6.052   2.392   1.879  0.1309 -0.5792 -1.1957
  141OSM   H11B15315   5.984   2.543   1.947 -0.9713 -1.6095 -0.5276
  141OSM      P15316   6.240   2.539   1.713 -0.3361 -0.0513  0.1820
  141OSM    O1315317   6.226   2.392   1.690  0.0936  0.3006  1.0867
  141OSM    O1415318   6.232   2.621   1.590 -0.2338 -0.4811 -0.3504
  141OSM    O1115319   6.381   2.560   1.786 -0.5306 -0.1089  0.2416
  141OSM    O1215320   6.129   2.590   1.814 -0.0722 -0.7260 -0.5436
  141OSM    C1S15321   6.397   2.607   1.924 -0.3492 -0.1765  0.0303
  141OSM    H1S15322   6.316   2.680   1.943 -0.2735  0.8613 -3.1260
  141OSM    H1T15323   6.492   2.663   1.923 -0.6553  0.3836  1.0795
  141OSM     NF15324   6.452   2.571   2.148 -0.2442  0.2125  0.0052
  141OSM    HNF15325   6.548   2.551   2.165 -0.1960  0.4342 -0.0021
  141OSM    C2S15326   6.388   2.504   2.037 -0.0033  0.2556  0.3014
  141OSM    H2S15327   6.281   2.494   2.067  0.1503 -0.8246  0.5338
  141OSM    C3S15328   6.442   2.358   2.005 -0.1953 -0.9047 -0.7528
  141OSM    H3S15329   6.543   2.381   1.965  0.7061  1.4022  2.4598
  141OSM     O315330   6.355   2.297   1.910  0.0068  0.2030 -0.0931
  141OSM    HO315331   6.331   2.371   1.853  1.2255  0.7695  0.0890
  141OSM    C4S15332   6.462   2.275   2.124 -0.1862  0.6599 -0.5982
  141OSM    H4S15333   6.387   2.295   2.203  1.1186 -0.3879  0.9705
  141OSM    C5S15334   6.549   2.176   2.150  0.5279  0.4683 -0.9452
  141OSM    H5S15335   6.617   2.149   2.067  2.7289  0.8315  0.6511
  141OSM    C6S15336   6.553   2.093   2.276  0.1621  0.6171  0.0405
  141OSM    H6S15337   6.661   2.075   2.296  0.6763  3.2412 -0.0510
  141OSM    H6T15338   6.505   1.994   2.260  1.4661  0.0116 -0.2758
  141OSM    C7S15339   6.487   2.158   2.399  0.2503 -0.1515  0.5194
  141OSM    H7S15340   6.506   2.092   2.487  1.0276  0.7856  1.0718
  141OSM    H7T15341   6.378   2.178   2.391  0.4909  1.6952  1.3262
  141OSM    C8S15342   6.552   2.290   2.445 -0.1503 -0.0003  0.4596
  141OSM    H8S15343   6.574   2.350   2.354  0.7140  0.4265  0.9303
  141OSM    H8T15344   6.646   2.255   2.493 -1.2248 -2.8493  0.7009
  141OSM    C9S15345   6.470   2.370   2.552  0.3656  0.7493 -0.3332
  141OSM    H9S15346   6.378   2.411   2.503 -1.4426  0.5257  2.6041
  141OSM    H9T15347   6.524   2.463   2.580  2.5084 -0.6821  0.4857
  141OSM   C10S15348   6.409   2.299   2.676  0.8005 -0.4245 -0.5102
  141OSM   H10S15349   6.326   2.231   2.649 -0.9060  1.6598 -0.8038
  141OSM   H10T15350   6.353   2.373   2.739  0.1750 -1.6082  0.3691
  141OSM   C11S15351   6.516   2.239   2.762 -0.7204  0.5968  0.0996
  141OSM   H11S15352   6.590   2.303   2.814 -0.4595  1.1027 -0.8723
  141OSM   H11T15353   6.570   2.171   2.692 -1.1899 -1.2028  1.4165
  141OSM   C12S15354   6.463   2.156   2.875  0.1808 -0.1856 -0.2876
  141OSM   H12S15355   6.434   2.055   2.838 -0.0273 -0.0723 -0.4368
  141OSM   H12T15356   6.372   2.206   2.914  1.0643  1.4437 -0.2347
  141OSM   C13S15357   6.565   2.128   2.984  0.1877  0.3961 -0.3377
  141OSM   H13S15358   6.637   2.211   2.995  3.7563 -2.3947 -0.9899
  141OSM   H13T15359   6.616   2.034   2.955 -1.3810 -0.9202  0.9024
  141OSM   C14S15360   6.502   2.104   3.126 -0.4919  0.1599 -0.0461
  141OSM   H14S15361   6.438   2.013   3.121  0.7130 -0.6532 -2.3549
  141OSM   H14T15362   6.438   2.192   3.147  1.6249  1.0845  3.2157
  141OSM   C15S15363   6.597   2.100   3.248  0.6412 -0.1515  0.0355
  141OSM   H15S15364   6.646   2.200   3.249  1.0168 -0.3149 -0.8027
  141OSM   H15T15365   6.669   2.020   3.219  1.3605  0.4982  0.0030
  141OSM   C16S15366   6.538   2.070   3.395  0.0873  0.6447  0.5434
  141OSM   H16S15367   6.492   2.166   3.427  1.4903  1.4913  0.1328
  141OSM   H16T15368   6.630   2.036   3.448  1.0936  3.9798  1.1433
  141OSM   C17S15369   6.433   1.954   3.406 -0.2240 -0.0033 -0.2363
  141OSM   H17S15370   6.475   1.863   3.359 -1.5409 -1.1417  0.7136
  141OSM   H17T15371   6.351   1.994   3.343 -2.6781 -0.2886  2.5645
  141OSM   C18S15372   6.389   1.921   3.547 -0.4297 -0.0645  0.0211
  141OSM   H18S15373   6.349   2.011   3.598  2.4765  0.9547  0.6831
  141OSM   H18T15374   6.468   1.886   3.617  0.5306 -0.8429 -1.3844
  141OSM   H18U15375   6.305   1.848   3.543 -1.4031  1.0652 -0.7021
  141OSM    C1F15376   6.410   2.683   2.200  0.2984  0.2754 -0.5962
  141OSM     OF15377   6.297   2.730   2.173  0.0058  0.2401 -0.8220
  141OSM    C2F15378   6.508   2.750   2.290 -0.0115  0.4450  0.1977
  141OSM    H2F15379   6.455   2.843   2.319  0.7800  1.1076 -0.4278
  141OSM    H2G15380   6.597   2.765   2.225 -1.2967 -0.7126 -1.9929
  141OSM    C3F15381   6.539   2.682   2.428 -0.3824 -0.0990  0.1998
  141OSM    H3F15382   6.615   2.602   2.434  0.7323  0.8815 -0.4251
  141OSM    H3G15383   6.444   2.651   2.477  0.5592  0.6805  2.6685
  141OSM    C4F15384   6.588   2.792   2.527  0.4420 -0.0211  0.9776
  141OSM    H4F15385   6.511   2.870   2.513  2.1165  1.1581 -2.7442
  141OSM    H4G15386   6.685   2.823   2.482 -0.8589  0.3096 -1.7338
  141OSM    C5F15387   6.628   2.755   2.670  0.4549 -0.0962  0.3097
  141OSM    H5F15388   6.655   2.853   2.715 -1.7710  1.1868 -0.9465
  141OSM    H5G15389   6.712   2.683   2.681  1.4061  0.6338 -1.6837
  141OSM    C6F15390   6.512   2.713   2.762  0.2430  0.6090 -0.0704
  141OSM    H6F15391   6.449   2.652   2.695 -0.8399  2.4791 -0.8152
  141OSM    H6G15392   6.447   2.797   2.794  1.5546  1.0741  1.5163
  141OSM    C7F15393   6.561   2.654   2.893 -0.4625 -0.2136  0.2336
  141OSM    H7F15394   6.642   2.581   2.870 -1.2247 -1.1681  0.5288
  141OSM    H7G15395   6.480   2.595   2.941 -0.5000  0.9478  1.6534
  141OSM    C8F15396   6.626   2.748   2.994  0.8775 -0.3839  0.3123
  141OSM    H8F15397   6.695   2.813   2.937  1.6885 -1.6977 -0.2563
  141OSM    H8G15398   6.670   2.685   3.075 -2.7633 -2.2135  1.0612
  141OSM    C9F15399   6.530   2.845   3.056  0.5977  0.5595  0.2510
  141OSM    H9F15400   6.494   2.925   2.989 -2.1672  1.8050  2.9858
  141OSM   C10F15401   6.486   2.852   3.184 -0.1476  0.3076  0.5015
  141OSM   H10F15402   6.416   2.928   3.221  0.7646  1.6198 -0.3414
  141OSM   C11F15403   6.520   2.751   3.289 -0.2117 -0.9749 -0.0996
  141OSM   H11F15404   6.495   2.648   3.256 -2.9244  0.2794 -2.3660
  141OSM   H11G15405   6.465   2.764   3.385  0.3717 -1.6771  0.3379
  141OSM   C12F15406   6.670   2.760   3.333  0.2042 -0.7537 -1.2488
  141OSM   H12F15407   6.745   2.753   3.252  0.6861 -1.9955 -0.7105
  141OSM   H12G15408   6.689   2.675   3.402  1.1501 -1.7595 -2.7023
  141OSM   C13F15409   6.697   2.891   3.416 -0.7577  0.0136 -0.3794
  141OSM   H13F15410   6.643   2.875   3.512  0.2657  0.0441  0.2095
  141OSM   H13G15411   6.648   2.981   3.373 -1.1968  0.8313  1.6786
  141OSM   C14F15412   6.845   2.927   3.445  0.2980 -0.7163  0.3746
  141OSM   H14F15413   6.911   2.923   3.356 -0.8633 -1.5538 -0.4745
  141OSM   H14G15414   6.889   2.870   3.529 -1.3469 -0.4978  1.4202
  141OSM   C15F15415   6.846   3.072   3.499 -0.2049  0.3507 -0.6605
  141OSM   H15F15416   6.772   3.138   3.448  0.4533  0.1318 -1.9332
  141OSM   H15G15417   6.949   3.110   3.483 -0.3767  0.5516 -1.3090
  141OSM   C16F15418   6.820   3.080   3.653 -0.2168  0.4369 -0.1803
  141OSM   H16F15419   6.888   3.011   3.706  0.1714  1.1775  0.3173
  141OSM   H16G15420   6.715   3.056   3.680  0.1393 -1.1328 -0.1204
  141OSM   C17F15421   6.849   3.217   3.700  0.2188 -0.2734 -0.0882
  141OSM   H17F15422   6.779   3.278   3.638 -0.6337 -1.9754 -0.8603
  141OSM   H17G15423   6.956   3.238   3.678  0.8203 -0.4862  2.3246
  141OSM   C18F15424   6.824   3.255   3.842  0.7005 -0.1640  0.3152
  141OSM   H18F15425   6.721   3.295   3.843  0.2849 -0.8274 -2.8649
  141OSM   H18G15426   6.875   3.341   3.890 -2.7674  1.3861  1.5002
  141OSM   H18H15427   6.816   3.163   3.905  0.3886 -0.4981 -0.2055
  142OSM      N15428   1.974   5.647   1.530  0.3493  0.7218 -0.3741
  142OSM    C1515429   2.026   5.729   1.417 -0.0492  0.5556 -0.2526
  142OSM   H15A15430   2.070   5.820   1.454 -0.3546  0.2770  0.8342
  142OSM   H15B15431   1.943   5.757   1.354 -1.0658 -0.3842  0.6409
  142OSM   H15C15432   2.096   5.665   1.365 -0.3512  0.4528 -0.5339
  142OSM    C1415433   1.874   5.728   1.611 -0.7010  0.1725  0.8586
  142OSM   H14A15434   1.791   5.767   1.553  1.8086  2.4452 -1.5592
  142OSM   H14B15435   1.929   5.812   1.651 -0.2322 -0.6233  1.9015
  142OSM   H14C15436   1.833   5.671   1.693 -2.9742 -0.8183 -0.8454
  142OSM    C1315437   1.901   5.538   1.468 -0.2591  0.8192 -0.6136
  142OSM   H13A15438   1.863   5.478   1.550 -0.6478 -0.8336 -1.9536
  142OSM   H13B15439   1.961   5.470   1.410  1.3022 -0.0801  1.8753
  142OSM   H13C15440   1.813   5.577   1.418 -2.2875  1.2412  2.9261
  142OSM    C1215441   2.090   5.600   1.618 -0.1877 -0.5552  1.1482
  142OSM   H12A15442   2.162   5.680   1.624 -0.1323  0.0429 -3.7012
  142OSM   H12B15443   2.133   5.525   1.554  0.7524  0.5317  0.4788
  142OSM    C1115444   2.069   5.544   1.760  0.5412 -0.8019 -0.2619
  142OSM   H11A15445   2.036   5.630   1.822  0.2127  0.1155 -1.6651
  142OSM   H11B15446   2.166   5.511   1.803  0.2009 -1.9665 -0.3545
  142OSM      P15447   1.999   5.294   1.756 -0.0522  0.1703 -0.1487
  142OSM    O1315448   1.879   5.242   1.687  0.5914 -0.3698 -0.7345
  142OSM    O1415449   2.129   5.279   1.684  0.1255  0.0436 -0.4600
  142OSM    O1115450   2.005   5.237   1.900 -0.1867 -0.2636 -0.7397
  142OSM    O1215451   1.970   5.443   1.766  0.2836 -0.1752  0.6470
  142OSM    C1S15452   1.996   5.313   2.025  0.3242  0.4815 -1.0450
  142OSM    H1S15453   1.888   5.321   2.051 -0.3929 -3.2507 -2.2877
  142OSM    H1T15454   2.029   5.418   2.013  0.3973  0.3876 -1.7016
  142OSM     NF15455   2.044   5.323   2.265 -0.5841 -0.5164  0.1761
  142OSM    HNF15456   2.109   5.395   2.286 -1.0678  0.1673 -0.6109
  142OSM    C2S15457   2.072   5.252   2.141 -0.1325  0.2713 -0.4716
  142OSM    H2S15458   2.030   5.151   2.161  0.2788  0.3790  1.0787
  142OSM    C3S15459   2.224   5.233   2.100 -0.1618  0.1325  0.4692
  142OSM    H3S15460   2.257   5.334   2.069  0.8952  0.2627  1.9126
  142OSM     O315461   2.243   5.149   1.981  0.2535 -0.3061 -0.2514
  142OSM    HO315462   2.151   5.142   1.953  0.7291  1.2388 -2.5307
  142OSM    C4S15463   2.309   5.182   2.213  0.0525  0.0100  0.0882
  142OSM    H4S15464   2.286   5.086   2.262  0.3946 -1.8077 -3.0283
  142OSM    C5S15465   2.424   5.237   2.250  0.3516 -0.5842 -0.4044
  142OSM    H5S15466   2.472   5.314   2.188  2.6056 -0.1271  1.7837
  142OSM    C6S15467   2.513   5.183   2.352  0.1878  1.1673  0.0515
  142OSM    H6S15468   2.611   5.151   2.310  0.0403  1.3494 -0.4384
  142OSM    H6T15469   2.465   5.091   2.390  0.2619  0.6063 -1.1859
  142OSM    C7S15470   2.537   5.266   2.479 -0.1971  0.3923  0.9025
  142OSM    H7S15471   2.437   5.298   2.516 -0.3746  0.7648  0.1118
  142OSM    H7T15472   2.590   5.358   2.446 -2.3870  0.7338 -2.0742
  142OSM    C8S15473   2.608   5.181   2.588  0.7825  0.5097 -0.2435
  142OSM    H8S15474   2.701   5.133   2.552  1.3884  0.9204  0.7307
  142OSM    H8T15475   2.530   5.105   2.610  0.1274  1.0570 -0.5926
  142OSM    C9S15476   2.624   5.271   2.711  0.4449  0.0570  0.3803
  142OSM    H9S15477   2.534   5.332   2.735  0.0577 -0.2388 -0.2624
  142OSM    H9T15478   2.695   5.350   2.681 -0.1251  1.5992  2.8315
  142OSM   C10S15479   2.673   5.195   2.837 -0.2668 -0.5108  0.1956
  142OSM   H10S15480   2.762   5.147   2.791  0.2821  1.8815 -1.4841
  142OSM   H10T15481   2.605   5.112   2.864 -1.6528 -0.9258 -3.8355
  142OSM   C11S15482   2.710   5.281   2.955 -1.0875 -0.2837  0.3820
  142OSM   H11S15483   2.616   5.331   2.990 -1.2870  0.1779 -0.7672
  142OSM   H11T15484   2.780   5.361   2.921  1.2294 -0.5332  4.0686
  142OSM   C12S15485   2.775   5.195   3.069  0.5946  0.6037 -0.1645
  142OSM   H12S15486   2.867   5.144   3.034 -0.7596 -0.0396 -3.0616
  142OSM   H12T15487   2.698   5.116   3.083  0.3787  0.2133 -2.9606
  142OSM   C13S15488   2.806   5.268   3.201  0.0822 -0.2874  0.3313
  142OSM   H13S15489   2.856   5.366   3.183  2.0550 -1.4726 -1.0155
  142OSM   H13T15490   2.884   5.213   3.257  0.9155  0.9699  0.4446
  142OSM   C14S15491   2.677   5.290   3.283  0.3698 -0.2291 -0.8248
  142OSM   H14S15492   2.634   5.192   3.311  2.3423 -0.9243 -0.0411
  142OSM   H14T15493   2.604   5.341   3.217 -0.4772 -0.5364 -0.1478
  142OSM   C15S15494   2.693   5.372   3.414  0.2987 -0.3200 -0.0297
  142OSM   H15S15495   2.590   5.402   3.444  0.9566  1.5909  0.4873
  142OSM   H15T15496   2.745   5.470   3.404 -0.4904 -0.0664 -2.2944
  142OSM   C16S15497   2.753   5.294   3.522 -0.8175 -0.0877 -0.1545
  142OSM   H16S15498   2.862   5.280   3.503 -1.1348 -1.1230 -1.3667
  142OSM   H16T15499   2.714   5.191   3.503  0.4973 -0.2440 -2.2783
  142OSM   C17S15500   2.730   5.328   3.662  0.4472  0.2077  0.8560
  142OSM   H17S15501   2.796   5.265   3.726 -0.7028 -2.6790 -0.6239
  142OSM   H17T15502   2.629   5.296   3.695  0.7474 -1.9155 -0.1207
  142OSM   C18S15503   2.757   5.467   3.705  0.5064 -0.1274  0.2413
  142OSM   H18S15504   2.845   5.515   3.658 -0.4448  2.7412  1.1208
  142OSM   H18T15505   2.769   5.478   3.815 -0.4237  2.3372  0.1665
  142OSM   H18U15506   2.674   5.537   3.680  1.9998  2.0078  1.0034
  142OSM    C1F15507   1.937   5.307   2.334 -0.3103 -0.2079 -0.2272
  142OSM     OF15508   1.844   5.247   2.293  0.0537  0.1452 -0.2000
  142OSM    C2F15509   1.942   5.372   2.464  0.6061  0.3237  0.8805
  142OSM    H2F15510   1.979   5.298   2.539  2.1968  0.0500 -0.1309
  142OSM    H2G15511   1.833   5.385   2.483 -0.1354 -0.6763 -2.1638
  142OSM    C3F15512   2.035   5.495   2.478  1.0401  0.5307  0.4544
  142OSM    H3F15513   1.998   5.569   2.405  1.5512 -0.9323 -1.3648
  142OSM    H3G15514   2.135   5.461   2.444  1.8044  0.9745  2.1396
  142OSM    C4F15515   2.045   5.563   2.615 -0.1870 -0.4354 -0.3193
  142OSM    H4F15516   1.948   5.562   2.669  0.9212  2.1995  1.9765
  142OSM    H4G15517   2.081   5.668   2.615  2.1943 -1.1107  2.7096
  142OSM    C5F15518   2.130   5.488   2.725 -0.5149  0.0091 -0.3774
  142OSM    H5F15519   2.225   5.457   2.677 -0.7030 -0.8878 -0.1977
  142OSM    H5G15520   2.075   5.399   2.765 -1.7255  1.9184  2.5169
  142OSM    C6F15521   2.160   5.576   2.843 -0.4907 -0.0099 -0.6975
  142OSM    H6F15522   2.071   5.614   2.899 -0.7814  1.8761 -2.3155
  142OSM    H6G15523   2.225   5.659   2.809  0.9381 -0.5988  0.4747
  142OSM    C7F15524   2.247   5.501   2.948 -0.0758 -0.3942  0.0536
  142OSM    H7F15525   2.340   5.475   2.894 -0.0982 -0.6390  0.1327
  142OSM    H7G15526   2.194   5.410   2.981 -1.0747  0.6029  1.3162
  142OSM    C8F15527   2.266   5.601   3.074 -0.3164  1.2634  0.1076
  142OSM    H8F15528   2.172   5.617   3.131  1.5601  1.0156  3.5329
  142OSM    H8G15529   2.301   5.701   3.040  1.1458  0.5923 -0.4861
  142OSM    C9F15530   2.367   5.534   3.168  0.1141  0.7627 -0.4816
  142OSM    H9F15531   2.453   5.491   3.115  0.4385 -1.0123  1.3602
  142OSM   C10F15532   2.337   5.492   3.292  0.3778 -0.3813 -0.7339
  142OSM   H10F15533   2.410   5.436   3.351  0.3187 -1.2456 -1.4560
  142OSM   C11F15534   2.217   5.520   3.374  0.7242  0.1007 -0.0074
  142OSM   H11F15535   2.126   5.525   3.311  2.6221 -2.7046 -3.3112
  142OSM   H11G15536   2.241   5.622   3.412  0.4788  0.8754 -1.8658
  142OSM   C12F15537   2.191   5.412   3.484  0.4827 -0.4562  0.4657
  142OSM   H12F15538   2.209   5.314   3.433 -0.7803 -1.1165  1.2368
  142OSM   H12G15539   2.083   5.409   3.510 -0.3819  1.9669 -2.3278
  142OSM   C13F15540   2.278   5.438   3.609  0.5128 -0.1600 -1.0549
  142OSM   H13F15541   2.283   5.546   3.635 -2.4453  0.0704 -1.1924
  142OSM   H13G15542   2.380   5.400   3.584  1.1295  1.0048 -0.4312
  142OSM   C14F15543   2.221   5.363   3.733 -0.1068 -0.1668 -0.1036
  142OSM   H14F15544   2.205   5.260   3.696 -3.2023  0.3396 -0.4227
  142OSM   H14G15545   2.120   5.406   3.751 -0.6132 -0.8456 -1.2183
  142OSM   C15F15546   2.316   5.364   3.856  0.0845  0.3453 -0.1446
  142OSM   H15F15547   2.417   5.322   3.837 -0.4873 -0.4372 -1.6417
  142OSM   H15G15548   2.293   5.286   3.932  1.8986  0.4776  0.6009
  142OSM   C16F15549   2.321   5.506   3.917  0.3200 -0.1128  0.4434
  142OSM   H16F15550   2.221   5.546   3.945  0.1303 -0.2937  0.0293
  142OSM   H16G15551   2.374   5.570   3.844  2.9841 -2.1357  0.4665
  142OSM   C17F15552   2.396   5.506   4.046  0.3495 -0.2289  0.0669
  142OSM   H17F15553   2.407   5.615   4.063  2.3249 -0.2986 -0.4943
  142OSM   H17G15554   2.498   5.463   4.039  0.6677  0.0651  2.2008
  142OSM   C18F15555   2.331   5.443   4.174 -0.3241  0.2336  0.5410
  142OSM   H18F15556   2.387   5.443   4.270  3.1926 -0.3230 -1.3644
  142OSM   H18G15557   2.324   5.335   4.150  0.7656  0.2044  0.3215
  142OSM   H18H15558   2.228   5.480   4.192 -0.0534  1.3887 -0.1817
  143OSM      N15559   2.174   4.093   1.869 -0.1954 -0.5421 -0.1418
  143OSM    C1515560   2.281   3.990   1.844 -0.1404  0.2724 -0.3948
  143OSM   H15A15561   2.349   3.977   1.926  1.8431  1.7952 -1.6977
  143OSM   H15B15562   2.336   4.029   1.760 -0.6136 -0.3845 -1.0279
  143OSM   H15C15563   2.245   3.892   1.816  1.2095 -0.0252 -1.1580
  143OSM    C1415564   2.239   4.223   1.897  0.0058  0.3363  0.5536
  143OSM   H14A15565   2.297   4.208   1.987  2.1528 -0.3342 -0.8611
  143OSM   H14B15566   2.166   4.301   1.917  0.4565  0.3223  2.4942
  143OSM   H14C15567   2.305   4.247   1.816  1.5568 -2.4821  0.8355
  143OSM    C1315568   2.082   4.106   1.752  0.5442 -0.0035  0.1424
  143OSM   H13A15569   2.017   4.192   1.758 -1.1072 -1.1093 -1.0413
  143OSM   H13B15570   2.023   4.018   1.728  1.2965 -0.5740  0.3260
  143OSM   H13C15571   2.142   4.127   1.664  0.6467 -0.1285  0.1819
  143OSM    C1215572   2.082   4.057   1.989  0.1795 -0.0347 -0.1032
  143OSM   H12A15573   2.003   4.131   1.994  0.9191  0.7523  0.1220
  143OSM   H12B15574   2.157   4.055   2.067  0.4083  0.1237 -0.3202
  143OSM    C1115575   2.008   3.923   1.996  0.8223  0.4041 -0.2053
  143OSM   H11A15576   1.993   3.901   2.103 -0.1087  1.0563 -0.1919
  143OSM   H11B15577   2.080   3.845   1.961  2.0116  0.4733  1.9486
  143OSM      P15578   1.748   3.966   1.970  0.4634 -0.0083  0.2499
  143OSM    O1315579   1.756   4.111   1.976 -0.7452  0.0756  0.0956
  143OSM    O1415580   1.636   3.907   1.891 -0.4110  0.1989 -0.2812
  143OSM    O1115581   1.744   3.901   2.110  0.6016 -0.1023 -0.2259
  143OSM    O1215582   1.886   3.909   1.919  0.0021  0.2628  0.3649
  143OSM    C1S15583   1.749   3.755   2.128 -0.1949 -0.2603 -0.1951
  143OSM    H1S15584   1.846   3.712   2.095  1.1676  0.8086  2.1780
  143OSM    H1T15585   1.661   3.708   2.078  0.0929 -1.8219  0.6975
  143OSM     NF15586   1.727   3.566   2.311 -0.5931  0.2387  0.3704
  143OSM    HNF15587   1.652   3.538   2.371  0.6470  1.2829  2.5460
  143OSM    C2S15588   1.738   3.715   2.281 -0.0684 -0.1187 -0.3343
  143OSM    H2S15589   1.835   3.747   2.325  0.2972  1.3685 -2.1063
  143OSM    C3S15590   1.629   3.785   2.360  0.2306 -0.2472 -0.4227
  143OSM    H3S15591   1.533   3.743   2.323  0.7151 -1.5609 -0.2315
  143OSM     O315592   1.611   3.925   2.339 -0.2942  0.2176  0.3431
  143OSM    HO315593   1.675   3.940   2.269 -2.0750  3.4169 -0.7904
  143OSM    C4S15594   1.647   3.760   2.508 -0.2999 -0.2348  0.4906
  143OSM    H4S15595   1.740   3.801   2.550  0.8835 -1.2889 -0.9662
  143OSM    C5S15596   1.555   3.701   2.585  0.0129  0.0533 -0.5391
  143OSM    H5S15597   1.469   3.648   2.541 -1.1464  0.3519  1.2493
  143OSM    C6S15598   1.569   3.679   2.737 -0.0514  0.4441 -0.2447
  143OSM    H6S15599   1.574   3.570   2.761  0.8116  0.3772 -0.6753
  143OSM    H6T15600   1.474   3.706   2.786 -1.6491 -1.6115 -2.0224
  143OSM    C7S15601   1.699   3.736   2.805 -0.0060 -0.7476 -0.3177
  143OSM    H7S15602   1.699   3.846   2.788 -4.6206 -0.3975  0.6449
  143OSM    H7T15603   1.788   3.686   2.760 -0.2948 -1.1328 -0.4692
  143OSM    C8S15604   1.700   3.707   2.950  0.4800  0.1976 -0.7706
  143OSM    H8S15605   1.696   3.601   2.982 -1.2866  0.9093  1.6777
  143OSM    H8T15606   1.607   3.750   2.993  0.2892 -2.9919  2.4481
  143OSM    C9S15607   1.822   3.762   3.027  0.0074  0.3145  0.2647
  143OSM    H9S15608   1.820   3.872   3.015 -0.5791  0.2261 -0.5248
  143OSM    H9T15609   1.918   3.734   2.977 -0.6845  0.3349 -1.1202
  143OSM   C10S15610   1.823   3.712   3.173  0.1053 -0.3518 -0.8606
  143OSM   H10S15611   1.835   3.601   3.174 -1.9478 -0.6196  0.1767
  143OSM   H10T15612   1.717   3.728   3.202  0.4646 -2.3132  2.0858
  143OSM   C11S15613   1.916   3.803   3.260 -0.0796 -0.6240 -0.7988
  143OSM   H11S15614   1.876   3.906   3.265 -0.1319 -0.6021 -1.5280
  143OSM   H11T15615   2.018   3.814   3.215 -0.2990 -0.3007 -1.2259
  143OSM   C12S15616   1.933   3.757   3.406 -0.6500  0.4005 -0.1472
  143OSM   H12S15617   2.011   3.823   3.450  1.9334 -1.2325 -1.9712
  143OSM   H12T15618   1.976   3.654   3.412 -0.2964  0.3525 -2.5102
  143OSM   C13S15619   1.800   3.735   3.484 -0.3149  0.1261 -0.5420
  143OSM   H13S15620   1.741   3.658   3.429  0.1009 -1.7986  1.5415
  143OSM   H13T15621   1.742   3.829   3.501 -3.1973 -1.2858 -1.8229
  143OSM   C14S15622   1.838   3.678   3.624  0.2505  0.3312  0.2103
  143OSM   H14S15623   1.898   3.763   3.663  1.2788 -1.4436  2.7183
  143OSM   H14T15624   1.909   3.594   3.608 -0.9887 -1.0129  1.4573
  143OSM   C15S15625   1.723   3.644   3.708  0.2355  0.5189  0.2995
  143OSM   H15S15626   1.676   3.552   3.667  1.4080 -0.1616  0.4527
  143OSM   H15T15627   1.647   3.726   3.716  0.0731  0.1958  3.1609
  143OSM   C16S15628   1.759   3.593   3.859 -0.1007  0.0795 -0.8854
  143OSM   H16S15629   1.830   3.510   3.839 -0.5309 -0.1169 -1.6823
  143OSM   H16T15630   1.669   3.552   3.909  1.2057 -0.7257  0.8866
  143OSM   C17S15631   1.822   3.706   3.942  0.0732  0.0084 -0.5430
  143OSM   H17S15632   1.747   3.787   3.952 -0.0307 -0.2601  1.1758
  143OSM   H17T15633   1.911   3.748   3.891 -0.2029 -0.3164 -1.3078
  143OSM   C18S15634   1.859   3.660   4.082  0.2259 -0.1035 -0.2079
  143OSM   H18S15635   1.773   3.606   4.128  0.3939 -0.2514 -0.0642
  143OSM   H18T15636   1.883   3.746   4.148 -2.6193  2.1658 -1.9009
  143OSM   H18U15637   1.943   3.586   4.077 -0.3296 -0.6724 -2.1786
  143OSM    C1F15638   1.812   3.472   2.269 -0.9765  0.2314  0.3331
  143OSM     OF15639   1.903   3.503   2.192  0.0402 -0.0758  0.7086
  143OSM    C2F15640   1.792   3.331   2.306 -0.3197 -0.1401  0.1344
  143OSM    H2F15641   1.807   3.266   2.217  0.6157  0.1561  0.0557
  143OSM    H2G15642   1.686   3.311   2.331  0.1127 -3.1341 -0.1166
  143OSM    C3F15643   1.897   3.283   2.406 -0.3835  0.0986  0.3310
  143OSM    H3F15644   2.000   3.274   2.363 -0.3501  0.8974  0.2190
  143OSM    H3G15645   1.864   3.181   2.433  0.7623 -0.2412  0.5152
  143OSM    C4F15646   1.908   3.376   2.526 -1.1125  0.1644 -0.5485
  143OSM    H4F15647   1.804   3.411   2.547  0.2607  4.4884 -0.0322
  143OSM    H4G15648   1.970   3.467   2.512  0.4971 -0.5619  1.3807
  143OSM    C5F15649   1.959   3.307   2.650  0.0962  1.3106 -0.0241
  143OSM    H5F15650   2.068   3.296   2.630  0.1802  0.1778  0.9133
  143OSM    H5G15651   1.912   3.207   2.659  0.7968  1.1193  1.9554
  143OSM    C6F15652   1.933   3.382   2.773  0.2810 -0.2547 -0.6276
  143OSM    H6F15653   1.827   3.378   2.803  0.2922  1.4238 -0.2529
  143OSM    H6G15654   1.958   3.491   2.769  1.2368 -0.3774  1.1520
  143OSM    C7F15655   2.013   3.332   2.890 -0.4910 -0.1011  0.0299
  143OSM    H7F15656   2.118   3.321   2.855 -1.5773 -1.4195 -3.3210
  143OSM    H7G15657   1.978   3.227   2.907 -0.2101 -0.5083 -1.7052
  143OSM    C8F15658   1.988   3.416   3.019 -0.4766  0.2608 -1.0222
  143OSM    H8F15659   1.877   3.408   3.023 -0.4627  0.4605  0.1642
  143OSM    H8G15660   2.026   3.518   3.000 -0.3373  0.4880  0.3693
  143OSM    C9F15661   2.066   3.345   3.127  0.6619 -0.1559 -0.3038
  143OSM    H9F15662   2.176   3.348   3.124  0.6570  2.0013  0.1858
  143OSM   C10F15663   2.017   3.284   3.235  1.0318 -0.6561 -0.2552
  143OSM   H10F15664   2.086   3.246   3.312 -1.0911 -0.5691  1.8151
  143OSM   C11F15665   1.871   3.272   3.283 -0.6621 -1.0310  0.1675
  143OSM   H11F15666   1.852   3.163   3.278  1.3906 -1.3745 -1.6209
  143OSM   H11G15667   1.806   3.310   3.201  0.5460 -1.1832 -0.8928
  143OSM   C12F15668   1.835   3.324   3.420 -0.3413  0.3143 -0.1049
  143OSM   H12F15669   1.726   3.303   3.425 -0.4417  0.5080 -1.1881
  143OSM   H12G15670   1.851   3.434   3.431 -1.7982  0.7082 -1.5695
  143OSM   C13F15671   1.900   3.242   3.534 -0.4783  0.0344  0.8686
  143OSM   H13F15672   2.005   3.276   3.527 -0.5834  0.0877 -4.1956
  143OSM   H13G15673   1.899   3.135   3.506 -1.3245  0.4109 -0.6670
  143OSM   C14F15674   1.827   3.264   3.666  0.1057  0.0022  0.3425
  143OSM   H14F15675   1.735   3.202   3.660  0.3328 -0.2568 -0.7241
  143OSM   H14G15676   1.802   3.372   3.673  1.5972  0.2718  3.2055
  143OSM   C15F15677   1.905   3.222   3.794  0.7277  0.1673  0.1398
  143OSM   H15F15678   1.995   3.286   3.786  0.0296  1.3574  1.5178
  143OSM   H15G15679   1.934   3.114   3.789 -1.1165 -0.4371  1.5487
  143OSM   C16F15680   1.831   3.228   3.921 -0.2900 -0.0320  0.2649
  143OSM   H16F15681   1.809   3.336   3.938 -1.6248 -0.3446  0.6161
  143OSM   H16G15682   1.892   3.191   4.006  0.9074  2.1405  0.4141
  143OSM   C17F15683   1.693   3.156   3.922 -1.0565 -0.7994 -0.5968
  143OSM   H17F15684   1.712   3.046   3.921  0.3056 -0.6346  1.1938
  143OSM   H17G15685   1.643   3.192   3.830 -2.3278  1.5200  0.9221
  143OSM   C18F15686   1.611   3.209   4.045 -0.1142  0.8706 -0.6297
  143OSM   H18F15687   1.518   3.150   4.051  2.0590 -2.7209  2.9302
  143OSM   H18G15688   1.584   3.317   4.046  1.6686  1.5232  3.8890
  143OSM   H18H15689   1.665   3.189   4.140 -0.4596 -0.0914 -0.6271
  144OSM      N15690   3.175   4.344   1.766 -0.2045  0.6371 -0.2584
  144OSM    C1515691   3.259   4.354   1.890  0.5603  0.7208  0.0663
  144OSM   H15A15692   3.359   4.376   1.857  0.4338  0.4380 -0.5045
  144OSM   H15B15693   3.261   4.267   1.953  0.0931  0.0651 -0.8131
  144OSM   H15C15694   3.220   4.435   1.950  0.1423  1.0758 -0.6722
  144OSM    C1415695   3.031   4.364   1.801  0.5588 -0.5758 -0.1144
  144OSM   H14A15696   2.992   4.273   1.842  2.1647 -1.2111  0.0667
  144OSM   H14B15697   2.970   4.374   1.712 -0.2349  1.2984  0.5858
  144OSM   H14C15698   3.013   4.450   1.865  0.4434  0.5044 -1.5412
  144OSM    C1315699   3.223   4.455   1.674 -0.3847  0.7683 -0.0782
  144OSM   H13A15700   3.163   4.457   1.585  1.6239  0.0456 -1.4987
  144OSM   H13B15701   3.330   4.442   1.664 -0.5572 -1.7182  0.7460
  144OSM   H13C15702   3.215   4.554   1.719  1.4728  1.5134 -1.2917
  144OSM    C1215703   3.203   4.201   1.704  0.4180 -0.3780  0.4253
  144OSM   H12A15704   3.310   4.191   1.694  0.3506 -2.7676  1.5828
  144OSM   H12B15705   3.159   4.200   1.605 -0.9048 -0.8035  0.9946
  144OSM    C1115706   3.154   4.065   1.775 -0.3352 -0.4481  0.8087
  144OSM   H11A15707   3.197   4.069   1.877  1.9356  1.7725 -0.1359
  144OSM   H11B15708   3.207   3.981   1.725 -2.3802 -0.0849 -2.2004
  144OSM      P15709   2.936   3.956   1.874  0.0978 -0.3161  0.5349
  144OSM    O1315710   2.792   3.998   1.882 -0.7221  0.0895  0.4499
  144OSM    O1415711   2.955   3.815   1.823  0.3267 -0.2788  0.0816
  144OSM    O1115712   3.001   3.973   2.021  0.1889  0.2010 -0.9203
  144OSM    O1215713   3.015   4.059   1.784  0.6054 -0.4114 -0.8242
  144OSM    C1S15714   2.914   4.035   2.124 -0.7666 -0.2162  0.5596
  144OSM    H1S15715   2.837   3.958   2.147  0.8621 -2.3433 -0.7227
  144OSM    H1T15716   2.873   4.130   2.083 -0.3529 -0.9205 -1.5719
  144OSM     NF15717   2.895   4.107   2.358 -0.6599  0.0205  0.6942
  144OSM    HNF15718   2.862   4.201   2.362  1.5361  0.8295  1.6365
  144OSM    C2S15719   2.992   4.069   2.258  0.7815 -0.7461  0.3591
  144OSM    H2S15720   3.038   3.976   2.297 -0.0935 -1.6990 -0.7735
  144OSM    C3S15721   3.102   4.174   2.223 -0.2114 -0.7207  0.2900
  144OSM    H3S15722   3.043   4.253   2.172 -0.0345 -0.8809 -0.1723
  144OSM     O315723   3.197   4.122   2.131 -0.7362 -0.2497 -0.1733
  144OSM    HO315724   3.141   4.070   2.072 -0.4939  1.5353 -2.0887
  144OSM    C4S15725   3.163   4.224   2.349 -0.4010  0.5236  0.9230
  144OSM    H4S15726   3.217   4.143   2.400 -0.9144 -0.4681 -0.0518
  144OSM    C5S15727   3.151   4.348   2.401 -0.1133 -0.0748 -0.2582
  144OSM    H5S15728   3.080   4.412   2.346  1.1171  1.5430 -0.0246
  144OSM    C6S15729   3.201   4.400   2.535 -0.3967 -0.8690 -0.1241
  144OSM    H6S15730   3.267   4.488   2.524 -4.9137  2.8441 -0.6354
  144OSM    H6T15731   3.242   4.321   2.603 -0.5825  0.5557  1.7159
  144OSM    C7S15732   3.083   4.461   2.617  0.2433 -0.2137  0.6404
  144OSM    H7S15733   2.996   4.392   2.630  2.2974 -2.8485  1.2082
  144OSM    H7T15734   3.056   4.548   2.554  1.0573  0.0519  0.6516
  144OSM    C8S15735   3.130   4.514   2.751  0.3146  0.6101  0.4388
  144OSM    H8S15736   3.074   4.602   2.788 -1.7860 -0.3235 -0.3585
  144OSM    H8T15737   3.239   4.536   2.740  0.2574  0.0421 -1.5753
  144OSM    C9S15738   3.126   4.397   2.854 -0.5149  0.4123  0.3759
  144OSM    H9S15739   3.204   4.321   2.836  0.1820  1.2291 -0.1374
  144OSM    H9T15740   3.025   4.353   2.859 -0.8978  1.1240 -0.6745
  144OSM   C10S15741   3.155   4.453   2.992 -0.0803 -0.3121  0.1958
  144OSM   H10S15742   3.078   4.526   3.023 -1.0807 -0.7788 -1.0712
  144OSM   H10T15743   3.252   4.507   3.000 -1.4803  2.3894  0.0389
  144OSM   C11S15744   3.161   4.348   3.099 -0.6172  0.3863  0.5232
  144OSM   H11S15745   3.239   4.277   3.063 -0.7228  0.9859 -0.9637
  144OSM   H11T15746   3.068   4.289   3.090 -0.1258 -0.2920 -0.2309
  144OSM   C12S15747   3.181   4.396   3.238 -0.4888  0.0109 -0.4320
  144OSM   H12S15748   3.140   4.499   3.251 -1.0662 -0.3680  0.9257
  144OSM   H12T15749   3.289   4.416   3.256 -0.6156 -0.6468  1.2916
  144OSM   C13S15750   3.154   4.302   3.353  0.0680  0.0727  0.0145
  144OSM   H13S15751   3.208   4.209   3.326  0.5371  0.4132 -0.2327
  144OSM   H13T15752   3.044   4.290   3.357 -0.0261  0.3250 -1.4477
  144OSM   C14S15753   3.187   4.352   3.490 -0.4662 -0.1239 -0.6200
  144OSM   H14S15754   3.293   4.385   3.490 -0.5170  0.1127  0.8225
  144OSM   H14T15755   3.172   4.269   3.563 -0.0513  0.7671  0.5263
  144OSM   C15S15756   3.086   4.452   3.528 -0.1006 -0.1181 -1.0222
  144OSM   H15S15757   2.993   4.395   3.550  1.4668 -1.8517  1.7017
  144OSM   H15T15758   3.064   4.530   3.451 -0.4953  3.1724  2.1329
  144OSM   C16S15759   3.116   4.533   3.655  0.5663  0.8311  0.2888
  144OSM   H16S15760   3.025   4.596   3.665  0.6519  0.8652  0.9139
  144OSM   H16T15761   3.197   4.607   3.633 -0.6304  1.0822 -4.1770
  144OSM   C17S15762   3.149   4.476   3.794 -0.2125  0.1199  0.1116
  144OSM   H17S15763   3.146   4.559   3.869 -1.9912 -1.6085  2.0939
  144OSM   H17T15764   3.249   4.428   3.797 -0.6400 -0.8551 -0.7809
  144OSM   C18S15765   3.057   4.360   3.834 -0.1069  0.3049 -0.3797
  144OSM   H18S15766   3.060   4.271   3.767  2.1762  0.7269 -0.9189
  144OSM   H18T15767   2.951   4.394   3.834 -0.9512 -1.9805 -2.1919
  144OSM   H18U15768   3.081   4.314   3.932  2.2814  0.6705 -0.7297
  144OSM    C1F15769   2.805   4.017   2.408 -0.5516  0.4680  0.5954
  144OSM     OF15770   2.829   3.891   2.401 -0.4646 -0.7957  0.3672
  144OSM    C2F15771   2.678   4.073   2.463  0.0571 -0.0846 -1.1932
  144OSM    H2F15772   2.600   4.066   2.385 -0.5759 -0.8758 -0.5084
  144OSM    H2G15773   2.703   4.177   2.490 -2.4237 -0.5290  3.9881
  144OSM    C3F15774   2.625   3.989   2.586 -0.4163 -0.9568  0.8141
  144OSM    H3F15775   2.711   3.957   2.650  1.9418 -0.9381 -2.1094
  144OSM    H3G15776   2.582   3.898   2.538 -0.2469 -0.7751  0.3124
  144OSM    C4F15777   2.515   4.064   2.668 -0.0445  0.2318  0.1807
  144OSM    H4F15778   2.426   4.054   2.601  1.3407  0.5011 -1.8026
  144OSM    H4G15779   2.553   4.167   2.681  2.3980 -0.7593  1.4568
  144OSM    C5F15780   2.478   4.004   2.801  0.0048  0.1738 -0.5217
  144OSM    H5F15781   2.557   4.003   2.879  0.5872 -0.1289 -1.1094
  144OSM    H5G15782   2.465   3.894   2.795 -2.9925  0.3397  1.1110
  144OSM    C6F15783   2.351   4.067   2.865 -0.4528  0.1329 -0.7698
  144OSM    H6F15784   2.282   4.076   2.778  0.9591  1.4254 -1.8377
  144OSM    H6G15785   2.361   4.175   2.889  0.0440  0.2078 -1.2783
  144OSM    C7F15786   2.280   3.987   2.977 -0.0839  0.2061 -0.0899
  144OSM    H7F15787   2.306   3.882   2.952 -2.4376 -0.8475  1.5931
  144OSM    H7G15788   2.172   4.007   2.959 -0.0725  2.3106  1.7583
  144OSM    C8F15789   2.351   4.033   3.108  0.4371  0.3933 -0.0371
  144OSM    H8F15790   2.374   4.142   3.113  3.4733 -0.2094  1.3231
  144OSM    H8G15791   2.456   3.997   3.104  0.7312  1.1732  0.5225
  144OSM    C9F15792   2.279   3.978   3.232 -0.0630 -0.4050  0.0378
  144OSM    H9F15793   2.196   4.032   3.280  0.6301 -0.8550  1.7945
  144OSM   C10F15794   2.290   3.848   3.280  0.3373  0.2607  0.1339
  144OSM   H10F15795   2.243   3.830   3.378 -0.0260  0.7591  0.0562
  144OSM   C11F15796   2.385   3.742   3.225 -0.5085 -0.1546 -0.4749
  144OSM   H11F15797   2.454   3.705   3.305  0.9924  0.5126 -1.4097
  144OSM   H11G15798   2.458   3.793   3.159  0.7016 -2.0154 -0.6503
  144OSM   C12F15799   2.311   3.627   3.153  0.4771  0.2504 -0.0002
  144OSM   H12F15800   2.213   3.657   3.110  0.7783  3.0475  1.0916
  144OSM   H12G15801   2.287   3.554   3.233 -0.7953 -1.2870 -1.6992
  144OSM   C13F15802   2.370   3.537   3.039 -0.3964 -0.1304  0.2497
  144OSM   H13F15803   2.319   3.440   3.019  0.9133 -0.9001  0.5318
  144OSM   H13G15804   2.474   3.518   3.073 -0.1289 -0.6997 -0.8471
  144OSM   C14F15805   2.377   3.611   2.897 -0.2271  0.4105 -0.8953
  144OSM   H14F15806   2.444   3.547   2.836  0.4234 -0.3620  0.5683
  144OSM   H14G15807   2.434   3.706   2.910  0.5852  0.6084 -4.6573
  144OSM   C15F15808   2.242   3.633   2.837  0.0206  0.1107  0.3510
  144OSM   H15F15809   2.179   3.699   2.899  1.9888  1.2502  1.2145
  144OSM   H15G15810   2.182   3.540   2.842  0.2406 -0.0767 -0.3216
  144OSM   C16F15811   2.247   3.697   2.689 -0.0630  0.0329 -0.3909
  144OSM   H16F15812   2.293   3.626   2.617  0.7314  0.1064  0.0315
  144OSM   H16G15813   2.307   3.789   2.705  0.0449 -0.1256  0.1175
  144OSM   C17F15814   2.105   3.728   2.638 -0.4854  0.0009 -0.3786
  144OSM   H17F15815   2.039   3.778   2.712 -2.4312  2.1819 -3.3581
  144OSM   H17G15816   2.063   3.631   2.604  1.4374 -0.6797 -0.9215
  144OSM   C18F15817   2.099   3.821   2.519 -0.3857 -0.0079 -0.0046
  144OSM   H18F15818   2.045   3.786   2.429  2.8661  0.6126 -2.3680
  144OSM   H18G15819   2.197   3.855   2.480 -0.2277  1.2313  1.3851
  144OSM   H18H15820   2.045   3.911   2.555 -2.9534 -1.3972 -0.1280
  145SAPE     N15821   3.163   1.425   6.435 -0.0524 -0.0841 -0.1170
  145SAPE   HN115822   3.214   1.417   6.525  0.1671  1.9980  0.0085
  145SAPE   HN215823   3.170   1.338   6.378  0.7956  0.0631 -0.2470
  145SAPE   HN315824   3.197   1.498   6.369  1.9359 -0.9740 -0.1356
  145SAPE   C1215825   3.018   1.442   6.474 -0.4139  0.6602  0.0372
  145SAPE  H12A15826   3.009   1.529   6.542 -1.2416  0.9815 -0.4653
  145SAPE  H12B15827   2.997   1.347   6.526 -1.0636  0.3862 -0.7076
  145SAPE   C1115828   2.922   1.463   6.360  0.0297  0.3938  0.2089
  145SAPE  H11A15829   2.920   1.367   6.305  2.5186  0.8798 -0.8326
  145SAPE  H11B15830   2.952   1.539   6.284 -1.4782  0.1296 -0.7174
  145SAPE     P15831   2.702   1.410   6.489 -0.1094 -0.0066  0.0069
  145SAPE   O1315832   2.746   1.272   6.474 -0.1065  0.1678  0.2323
  145SAPE   O1415833   2.697   1.461   6.629 -0.1507 -0.6607 -0.1508
  145SAPE   O1215834   2.799   1.495   6.411 -0.1978 -0.5239  0.2791
  145SAPE   O1115835   2.566   1.429   6.421  0.4557  0.2436  0.5771
  145SAPE    C115836   2.529   1.559   6.370 -0.3571  0.3994  0.0266
  145SAPE    HA15837   2.448   1.609   6.427 -1.6212 -1.5157  0.0130
  145SAPE    HB15838   2.613   1.631   6.363 -0.2758  0.2044 -1.3012
  145SAPE    C215839   2.474   1.535   6.220  0.6647 -0.1706 -0.1399
  145SAPE    HS15840   2.450   1.636   6.180 -0.4773  0.2654  1.5375
  145SAPE   O2115841   2.349   1.461   6.236  0.2414 -0.5200  0.2928
  145SAPE   C2115842   2.255   1.479   6.143  0.0927  0.0513  0.0230
  145SAPE   O2215843   2.257   1.560   6.055  0.1185  0.5145 -0.1700
  145SAPE   C2215844   2.136   1.390   6.185 -0.2101  0.8302 -0.2620
  145SAPE   H2R15845   2.137   1.375   6.295 -0.1214 -3.2152 -0.6431
  145SAPE   H2S15846   2.037   1.432   6.159 -0.8270 -0.4513 -0.0621
  145SAPE    C315847   2.573   1.457   6.129  0.4134 -0.2000  0.1998
  145SAPE    HX15848   2.600   1.365   6.185  0.5806  1.2816  2.7145
  145SAPE    HY15849   2.664   1.521   6.119  1.2681 -1.6661 -2.5810
  145SAPE   O3115850   2.511   1.426   6.003  0.0614 -0.1548 -0.6827
  145SAPE   C3115851   2.516   1.533   5.913 -0.4939 -0.3681 -0.3161
  145SAPE   O3215852   2.587   1.631   5.927  0.2864  0.6820  0.8194
  145SAPE   C3215853   2.417   1.517   5.796 -0.2579  0.7146  0.6696
  145SAPE   H2X15854   2.340   1.596   5.813 -1.5662 -0.8297  2.2734
  145SAPE   H2Y15855   2.366   1.419   5.811 -0.8306  1.2697  2.7623
  145SAPE   C2315856   2.147   1.244   6.128 -0.0530  0.3737 -0.3968
  145SAPE   H3R15857   2.082   1.190   6.200  0.4664  1.0228  0.5774
  145SAPE   H3S15858   2.246   1.196   6.134  0.2258  1.0760  1.4078
  145SAPE   C2415859   2.086   1.242   5.985 -0.0898 -0.6680 -0.0343
  145SAPE   H4R15860   2.130   1.337   5.948  0.7105 -0.5133  1.2536
  145SAPE   H4S15861   1.975   1.251   5.986  0.0273  1.1431  0.4099
  145SAPE   C2515862   2.128   1.127   5.904  0.8846  0.0862 -0.9967
  145SAPE   H5R15863   2.180   1.053   5.967  1.7435  0.2798 -1.4608
  145SAPE   C2615864   2.107   1.105   5.773  0.3624 -0.7407  0.0195
  145SAPE   H6R15865   2.136   1.007   5.732  0.5359 -0.1447 -1.3268
  145SAPE   C2715866   2.045   1.210   5.669 -0.4494 -0.0513 -0.3423
  145SAPE   H7R15867   2.052   1.313   5.709  0.7872  0.1029 -0.9135
  145SAPE   H7S15868   1.938   1.181   5.662 -0.0151 -1.4129 -2.1217
  145SAPE   C2815869   2.120   1.188   5.538  0.6966  0.3730  0.2004
  145SAPE   H8R15870   2.222   1.231   5.541  1.0820 -0.4050 -1.0300
  145SAPE   C2915871   2.090   1.100   5.438  0.9344  0.4380 -0.3330
  145SAPE   H9R15872   2.155   1.101   5.349  0.1795  1.0469 -0.8914
  145SAPE  C21015873   1.967   1.012   5.437 -0.0036 -0.2164  0.0328
  145SAPE  H10R15874   1.886   1.055   5.374 -1.2345 -1.1993  0.8924
  145SAPE  H10S15875   1.919   1.002   5.537  0.0562 -0.0032  0.0845
  145SAPE  C21115876   2.006   0.874   5.401  0.3257 -1.0109 -0.9185
  145SAPE  H11R15877   2.077   0.833   5.473 -0.8007 -1.1926  0.1202
  145SAPE  C21215878   1.948   0.797   5.308 -0.2411  0.4002  0.2669
  145SAPE  H12R15879   1.999   0.702   5.285 -0.3720  0.7596 -1.6637
  145SAPE  C21315880   1.843   0.838   5.207 -0.1787 -0.3109  0.2487
  145SAPE  H13R15881   1.849   0.947   5.190  1.2039 -0.2193  1.1628
  145SAPE  H13S15882   1.754   0.804   5.265  0.2953 -0.1314  1.1021
  145SAPE  C21415883   1.865   0.750   5.082  0.2519 -0.2491 -0.2365
  145SAPE  H14R15884   1.974   0.746   5.067  0.6760  0.9468  2.0706
  145SAPE  C21515885   1.775   0.682   5.008  0.8720 -0.4698 -0.4005
  145SAPE  H15R15886   1.811   0.628   4.920  0.8467 -1.0009 -0.0929
  145SAPE  C21615887   1.628   0.708   5.028  0.0715 -0.1366 -0.0515
  145SAPE  H16R15888   1.568   0.728   4.936 -1.4660  0.2609  1.0069
  145SAPE  H16S15889   1.612   0.797   5.092  1.0689  1.9572 -2.5285
  145SAPE  C21715890   1.554   0.588   5.098 -0.1387 -0.2381  0.1989
  145SAPE  H17R15891   1.447   0.615   5.109  0.2426  1.1675  0.6067
  145SAPE  H17S15892   1.597   0.564   5.198  0.1390 -1.0915 -0.1160
  145SAPE  C21815893   1.559   0.456   5.017  0.7843  0.3973 -0.1186
  145SAPE  H18R15894   1.663   0.426   4.996  1.1000  1.6743 -0.5052
  145SAPE  H18S15895   1.504   0.473   4.922 -0.7775  0.4163  0.7401
  145SAPE  C21915896   1.485   0.346   5.098 -0.2293  0.1927  0.5004
  145SAPE  H19R15897   1.390   0.398   5.123  2.0006  3.6876  2.5539
  145SAPE  H19S15898   1.538   0.329   5.194  0.9968  1.1018  0.0065
  145SAPE  C22015899   1.469   0.224   5.010  0.2385  0.5802 -0.5024
  145SAPE  H20R15900   1.429   0.252   4.911 -1.6580  0.6531  0.2447
  145SAPE  H20S15901   1.404   0.141   5.046  1.2684 -0.2987 -0.6184
  145SAPE  H20T15902   1.575   0.191   5.002  0.6925  1.5044  1.1374
  145SAPE   C3315903   2.489   1.523   5.660  0.1311 -0.3312  0.1306
  145SAPE   H3X15904   2.561   1.440   5.649  2.0527  1.0536  1.5950
  145SAPE   H3Y15905   2.543   1.619   5.650 -1.2906  0.5134  0.2845
  145SAPE   C3415906   2.383   1.495   5.550 -0.2981  0.5063 -0.0928
  145SAPE   H4X15907   2.300   1.568   5.557 -1.0574 -0.1936 -1.5204
  145SAPE   H4Y15908   2.332   1.398   5.571 -0.9904  1.5320  3.7809
  145SAPE   C3515909   2.439   1.490   5.408 -0.2339  0.2080 -0.1900
  145SAPE   H5X15910   2.508   1.402   5.414 -1.5001 -0.9105 -1.3626
  145SAPE   H5Y15911   2.508   1.577   5.409 -0.7442  0.6200  1.5317
  145SAPE   C3615912   2.334   1.496   5.301  0.3778  0.9171 -0.0362
  145SAPE   H6X15913   2.274   1.590   5.310  1.5799  1.6833  0.1161
  145SAPE   H6Y15914   2.277   1.401   5.299  1.0888  0.4995 -1.3227
  145SAPE   C3715915   2.415   1.515   5.166 -0.1867  0.3590  0.0855
  145SAPE   H7X15916   2.474   1.421   5.164 -1.0990 -0.2923  1.6952
  145SAPE   H7Y15917   2.483   1.603   5.169  0.7008 -0.2285 -1.5598
  145SAPE   C3815918   2.317   1.527   5.045  0.0043  0.4798  0.1520
  145SAPE   H8X15919   2.260   1.621   5.059 -0.7482  0.1934 -0.9175
  145SAPE   H8Y15920   2.243   1.444   5.046  1.3910 -0.8597  2.2932
  145SAPE   C3915921   2.403   1.546   4.916  0.0865  0.5007 -0.4835
  145SAPE   H9X15922   2.455   1.450   4.896 -2.0138 -1.0832  1.0271
  145SAPE   H9Y15923   2.483   1.622   4.923  0.9016 -0.4440  1.3104
  145SAPE  C31015924   2.322   1.568   4.789 -0.5721  0.7381  0.0585
  145SAPE  H10X15925   2.268   1.665   4.789 -1.0738  0.5373 -2.5908
  145SAPE  H10Y15926   2.239   1.494   4.784 -1.3009  1.6171 -3.3426
  145SAPE  C31115927   2.407   1.549   4.661 -0.1185 -0.1762  0.6630
  145SAPE  H11X15928   2.447   1.447   4.681  1.0864  0.3887  1.2675
  145SAPE  H11Y15929   2.495   1.615   4.651  0.1603 -0.5334  0.7228
  145SAPE  C31215930   2.326   1.551   4.536 -0.3106  0.0624 -0.1578
  145SAPE  H12X15931   2.278   1.650   4.524 -1.0285 -0.4441 -1.7142
  145SAPE  H12Y15932   2.251   1.469   4.544 -0.8285  0.5469  0.0426
  145SAPE  C31315933   2.408   1.537   4.408 -0.0240  0.6632  0.5741
  145SAPE  H13X15934   2.458   1.438   4.408  2.3749  1.7136  3.4500
  145SAPE  H13Y15935   2.478   1.618   4.380 -0.1722  0.6438  0.1378
  145SAPE  C31415936   2.306   1.532   4.286 -0.6055 -0.8616 -0.3123
  145SAPE  H14X15937   2.263   1.632   4.265 -0.2649 -0.3991  1.0446
  145SAPE  H14Y15938   2.215   1.474   4.313  0.0788 -1.0556  1.7629
  145SAPE  C31515939   2.360   1.462   4.161 -0.1409  0.3125  0.4771
  145SAPE  H15X15940   2.269   1.444   4.099 -1.0625  2.7380  1.0129
  145SAPE  H15Y15941   2.411   1.365   4.181  0.6189  0.7494  0.6864
  145SAPE  C31615942   2.454   1.539   4.074 -0.8739  0.0055 -0.2796
  145SAPE  H16X15943   2.428   1.647   4.079 -1.9143 -0.2200 -0.6044
  145SAPE  H16Y15944   2.450   1.514   3.966  1.6115  4.0046 -1.5158
  145SAPE  C31715945   2.595   1.513   4.122  0.0914 -0.2908  0.4628
  145SAPE  H17X15946   2.618   1.404   4.116  3.2489  0.3465 -3.4537
  145SAPE  H17Y15947   2.604   1.549   4.227 -1.3343  0.4429  0.3551
  145SAPE  C31815948   2.694   1.587   4.028  0.7777 -0.1172 -0.5831
  145SAPE  H18X15949   2.660   1.692   4.012 -1.8075 -1.0935 -1.9918
  145SAPE  H18Y15950   2.694   1.537   3.929 -0.7266 -1.7357  0.1844
  145SAPE  H18Z15951   2.795   1.590   4.074 -0.1213  0.5966  1.4805
  146SAPE     N15952   4.968   6.284   6.715 -0.7497  0.3788 -0.0435
  146SAPE   HN115953   4.901   6.220   6.764  0.8150  0.2869  2.1403
  146SAPE   HN215954   5.064   6.247   6.730 -0.5317  1.0552  0.2419
  146SAPE   HN315955   4.966   6.380   6.754 -0.0585  0.9024 -1.2743
  146SAPE   C1215956   4.943   6.286   6.572  0.7316 -0.2874 -0.1977
  146SAPE  H12A15957   4.843   6.331   6.556 -1.2961 -4.2243  0.1873
  146SAPE  H12B15958   4.944   6.182   6.531 -0.1699 -0.3630 -0.0495
  146SAPE   C1115959   5.042   6.380   6.506 -0.0594 -0.2101 -0.1621
  146SAPE  H11A15960   5.022   6.480   6.550  0.4040  1.8923 -4.2469
  146SAPE  H11B15961   5.016   6.399   6.399 -0.7950  2.8984  0.4631
  146SAPE     P15962   5.252   6.224   6.428  0.0689  0.4227 -0.1111
  146SAPE   O1315963   5.399   6.243   6.431 -0.0212  0.1756 -0.2473
  146SAPE   O1415964   5.195   6.095   6.463  0.0713 -0.0735 -0.2079
  146SAPE   O1215965   5.172   6.321   6.526 -1.0342 -0.5779 -0.5408
  146SAPE   O1115966   5.202   6.268   6.293  0.1962  0.1045 -0.5430
  146SAPE    C115967   5.281   6.262   6.176  0.5829 -0.3820  0.9195
  146SAPE    HA15968   5.346   6.172   6.173 -0.7539 -1.5014  3.1518
  146SAPE    HB15969   5.219   6.260   6.083  0.7576  0.2096  0.7866
  146SAPE    C215970   5.377   6.384   6.155 -0.6502 -0.1926  0.5966
  146SAPE    HS15971   5.443   6.388   6.244  1.3427 -1.2682 -0.7460
  146SAPE   O2115972   5.292   6.499   6.139  0.3735  0.3648 -0.1601
  146SAPE   C2115973   5.265   6.565   6.242  0.4467  0.3890 -0.2056
  146SAPE   O2215974   5.325   6.562   6.348  0.2559 -0.0876 -0.3722
  146SAPE   C2215975   5.138   6.653   6.215  0.0680 -0.4384  0.3961
  146SAPE   H2R15976   5.052   6.584   6.223 -0.4966  0.1488 -0.5045
  146SAPE   H2S15977   5.122   6.712   6.308 -1.8272  2.9706 -1.8512
  146SAPE    C315978   5.473   6.371   6.033 -0.6999 -0.6315  0.6406
  146SAPE    HX15979   5.545   6.298   6.075 -1.0314  0.4711  3.3369
  146SAPE    HY15980   5.527   6.468   6.025 -1.1664 -0.4655 -0.8256
  146SAPE   O3115981   5.402   6.343   5.909  0.2246  0.2552 -0.0050
  146SAPE   C3115982   5.474   6.272   5.827  1.0787 -0.0176  0.1472
  146SAPE   O3215983   5.583   6.224   5.855 -0.8311 -0.0136  0.4228
  146SAPE   C3215984   5.403   6.273   5.691 -0.8014 -0.6087  0.0940
  146SAPE   H2X15985   5.403   6.375   5.649  0.6806  0.1522  1.8046
  146SAPE   H2Y15986   5.298   6.238   5.704 -1.0345  0.6783  2.1348
  146SAPE   C2315987   5.142   6.738   6.080 -0.1737  0.3338 -0.4388
  146SAPE   H3R15988   5.134   6.680   5.986  0.4422 -0.7960  0.1884
  146SAPE   H3S15989   5.242   6.787   6.083 -0.0891  0.1080  1.9231
  146SAPE   C2415990   5.037   6.850   6.084 -0.6002  0.0785  0.5011
  146SAPE   H4R15991   5.060   6.923   6.165 -0.3162 -0.6236  1.0588
  146SAPE   H4S15992   4.938   6.811   6.116 -0.7689  2.5158  3.3727
  146SAPE   C2515993   5.030   6.926   5.956  0.0533 -0.0518 -0.6264
  146SAPE   H5R15994   5.092   7.017   5.963  1.8749 -1.3123  0.3631
  146SAPE   C2615995   4.934   6.933   5.859 -0.8201 -0.2912 -0.5543
  146SAPE   H6R15996   4.952   7.008   5.780  0.7618 -0.4749 -0.4085
  146SAPE   C2715997   4.816   6.835   5.855  0.1415 -0.2292  0.0979
  146SAPE   H7R15998   4.820   6.761   5.937 -0.9879 -1.9321 -1.3138
  146SAPE   H7S15999   4.834   6.759   5.776  0.7887  1.2151 -1.1960
  146SAPE   C2816000   4.679   6.900   5.862  0.6669  0.9485  0.8458
  146SAPE   H8R16001   4.637   6.902   5.964 -1.6413 -0.9827  0.0534
  146SAPE   C2916002   4.608   6.948   5.761  0.2628  0.0104  0.4721
  146SAPE   H9R16003   4.509   6.985   5.791  0.8824  1.6703  0.6070
  146SAPE  C21016004   4.634   6.950   5.617 -0.5703 -0.0569 -0.1283
  146SAPE  H10R16005   4.573   6.878   5.558  1.0117 -0.6873 -1.0866
  146SAPE  H10S16006   4.728   6.895   5.591 -2.0195 -2.5903 -0.3340
  146SAPE  C21116007   4.639   7.087   5.555  0.2245  0.1556  0.7383
  146SAPE  H11R16008   4.624   7.179   5.615  1.5343  0.5110  0.5674
  146SAPE  C21216009   4.666   7.108   5.418  0.2666  0.9302 -0.1382
  146SAPE  H12R16010   4.682   7.205   5.368  0.0277 -0.0705 -2.2598
  146SAPE  C21316011   4.677   6.988   5.328 -0.4353  0.5001  0.3471
  146SAPE  H13R16012   4.608   6.904   5.352 -0.3124 -0.7738 -3.1467
  146SAPE  H13S16013   4.774   6.935   5.337  0.3494  1.4712 -1.8324
  146SAPE  C21416014   4.644   7.014   5.183 -0.2139  0.5563  0.6410
  146SAPE  H14R16015   4.537   7.027   5.166 -0.7992 -2.9130  0.8556
  146SAPE  C21516016   4.727   7.042   5.080  0.8908  0.1331 -0.6314
  146SAPE  H15R16017   4.672   7.072   4.990  2.0209  1.9032 -0.7911
  146SAPE  C21616018   4.877   7.043   5.070 -0.3953 -0.1434 -0.4625
  146SAPE  H16R16019   4.921   6.995   5.160  1.2398 -2.1126 -2.2200
  146SAPE  H16S16020   4.927   7.142   5.064  0.5917 -0.6030 -0.0869
  146SAPE  C21716021   4.925   6.975   4.949  0.5552  0.2211 -0.3163
  146SAPE  H17R16022   4.904   6.868   4.966 -0.1271  0.4561  0.3762
  146SAPE  H17S16023   5.036   6.984   4.953  0.4352  2.6062 -0.4920
  146SAPE  C21816024   4.872   7.034   4.813  0.0691  1.0192 -0.4246
  146SAPE  H18R16025   4.863   7.145   4.816  1.1878  1.0967  1.5264
  146SAPE  H18S16026   4.768   6.999   4.796 -0.3033  2.3020 -0.9505
  146SAPE  C21916027   4.957   7.001   4.693 -0.2331  0.5799 -0.6049
  146SAPE  H19R16028   4.913   7.053   4.606 -1.3843 -1.6113 -1.4022
  146SAPE  H19S16029   4.944   6.895   4.664 -1.2695  0.5735 -0.1644
  146SAPE  C22016030   5.111   7.029   4.704  0.7046 -0.1660  0.4615
  146SAPE  H20R16031   5.118   7.140   4.710 -0.8884  0.1208 -1.7070
  146SAPE  H20S16032   5.168   6.993   4.615 -1.1127  1.0068 -1.2764
  146SAPE  H20T16033   5.161   6.986   4.793 -0.7832 -1.2324  0.8290
  146SAPE   C3316034   5.466   6.173   5.583  0.0679  0.2184 -0.4284
  146SAPE   H3X16035   5.449   6.072   5.627  0.5609  0.1509 -0.3816
  146SAPE   H3Y16036   5.574   6.198   5.571  0.4797 -1.6275 -0.9650
  146SAPE   C3416037   5.395   6.180   5.444 -0.4130  0.2250  0.2842
  146SAPE   H4X16038   5.400   6.281   5.397  0.9598 -0.7529 -1.7992
  146SAPE   H4Y16039   5.289   6.147   5.454  0.9328 -5.3766 -0.7554
  146SAPE   C3516040   5.460   6.071   5.360  0.0176 -0.2688 -0.3551
  146SAPE   H5X16041   5.473   5.978   5.419 -0.4219  0.9424  1.7703
  146SAPE   H5Y16042   5.556   6.114   5.323 -0.5883 -0.8009 -2.7272
  146SAPE   C3616043   5.378   6.032   5.242  0.2425  0.0818 -0.5298
  146SAPE   H6X16044   5.292   5.975   5.282 -0.0414  2.0684  1.9456
  146SAPE   H6Y16045   5.436   5.966   5.173 -1.1236  0.8971 -2.5344
  146SAPE   C3716046   5.317   6.139   5.151 -0.0500  1.1022 -0.1921
  146SAPE   H7X16047   5.395   6.215   5.129  2.6872 -1.8485 -1.4821
  146SAPE   H7Y16048   5.225   6.188   5.190 -1.7074 -1.3557 -0.8082
  146SAPE   C3816049   5.274   6.071   5.020  0.0032 -0.1476 -0.0767
  146SAPE   H8X16050   5.213   5.983   5.051 -0.2831 -0.0025 -0.2349
  146SAPE   H8Y16051   5.364   6.022   4.976 -0.3218  0.3583 -1.3372
  146SAPE   C3916052   5.208   6.158   4.909 -0.3202  0.8797 -0.4284
  146SAPE   H9X16053   5.262   6.248   4.872 -0.0020  2.1681  2.8647
  146SAPE   H9Y16054   5.110   6.189   4.949 -0.5960 -0.8669  0.3324
  146SAPE  C31016055   5.172   6.060   4.789  0.2223 -0.1656  0.0476
  146SAPE  H10X16056   5.139   5.963   4.831  1.1411 -0.7210 -0.4936
  146SAPE  H10Y16057   5.259   6.041   4.722  0.8612 -2.4988  1.4198
  146SAPE  C31116058   5.046   6.122   4.717  0.1039  0.7176  0.2828
  146SAPE  H11X16059   5.065   6.228   4.688 -1.0294  0.8169 -0.1093
  146SAPE  H11Y16060   4.973   6.134   4.799 -0.0069  2.4627 -0.0298
  146SAPE  C31216061   4.989   6.036   4.607  0.2117  0.7847  0.1284
  146SAPE  H12X16062   5.060   6.041   4.522  2.2228  1.5218  1.7452
  146SAPE  H12Y16063   4.899   6.093   4.575 -1.3019 -1.8070 -0.4848
  146SAPE  C31316064   4.939   5.893   4.622 -0.1475  0.7134 -0.1054
  146SAPE  H13X16065   4.892   5.878   4.722  2.3058  0.7406  1.1357
  146SAPE  H13Y16066   5.012   5.814   4.599  1.3645  1.0558  3.0128
  146SAPE  C31416067   4.832   5.869   4.515  0.6454  0.6780 -0.6720
  146SAPE  H14X16068   4.738   5.927   4.524  0.5919  0.7809 -1.7614
  146SAPE  H14Y16069   4.799   5.764   4.523 -1.7705  1.3715 -0.8501
  146SAPE  C31516070   4.875   5.890   4.369  0.0292 -0.6882  0.2831
  146SAPE  H15X16071   4.958   5.823   4.341  1.2525  0.7280  0.4048
  146SAPE  H15Y16072   4.913   5.993   4.355 -2.3246  0.2352  0.1384
  146SAPE  C31616073   4.749   5.876   4.274 -0.2256 -0.5888  0.9584
  146SAPE  H16X16074   4.654   5.902   4.324 -1.0763 -1.1097 -0.3420
  146SAPE  H16Y16075   4.734   5.771   4.240 -0.7641 -0.1770 -0.1038
  146SAPE  C31716076   4.765   5.967   4.146  0.3578 -0.4236  0.0163
  146SAPE  H17X16077   4.689   5.926   4.075  0.6131 -0.5603 -0.1792
  146SAPE  H17Y16078   4.870   5.946   4.116  0.7337  0.5802  0.5724
  146SAPE  C31816079   4.750   6.119   4.181  0.0463  0.5174 -0.1698
  146SAPE  H18X16080   4.644   6.143   4.202 -0.1151  0.6119 -1.0776
  146SAPE  H18Y16081   4.781   6.190   4.102  0.0903 -0.4601 -1.0438
  146SAPE  H18Z16082   4.811   6.138   4.272 -0.6437  0.2064  0.3652
  147SAPE     N16083   3.728   4.075   6.564  1.0284 -0.4458  0.1928
  147SAPE   HN116084   3.671   4.038   6.642  1.6756 -0.0260  0.8706
  147SAPE   HN216085   3.824   4.035   6.565  0.9342 -0.8098 -1.5032
  147SAPE   HN316086   3.736   4.179   6.571  2.2930 -0.4523 -0.8225
  147SAPE   C1216087   3.677   4.041   6.424  0.0768  0.2251  0.5732
  147SAPE  H12A16088   3.761   4.069   6.357 -0.7764 -0.7434 -0.9813
  147SAPE  H12B16089   3.585   4.098   6.397 -0.6333 -1.8128 -1.7389
  147SAPE   C1116090   3.651   3.890   6.406  0.2055  0.2874 -0.4191
  147SAPE  H11A16091   3.615   3.872   6.303  0.6819  1.8057 -0.8817
  147SAPE  H11B16092   3.570   3.862   6.476  1.9501  0.8769  1.9766
  147SAPE     P16093   3.803   3.694   6.338 -0.1932 -0.6420 -0.4108
  147SAPE   O1316094   3.926   3.618   6.370  0.1777  0.5136  0.4837
  147SAPE   O1416095   3.675   3.621   6.318 -0.6148  0.2449 -0.2418
  147SAPE   O1216096   3.775   3.812   6.440  0.3289 -0.1148  0.3551
  147SAPE   O1116097   3.831   3.778   6.208  0.0558  0.9659 -0.4509
  147SAPE    C116098   3.936   3.875   6.197  0.0730  0.4494  0.2463
  147SAPE    HA16099   3.889   3.975   6.207 -3.0526 -0.6851 -1.5457
  147SAPE    HB16100   4.022   3.846   6.261  0.5279  0.7530 -0.2260
  147SAPE    C216101   3.995   3.862   6.053  0.1533 -0.0669  0.0867
  147SAPE    HS16102   4.083   3.931   6.053 -0.6219  0.9840  1.5744
  147SAPE   O2116103   3.895   3.888   5.955 -0.7148  0.7395  0.2387
  147SAPE   C2116104   3.922   3.972   5.856 -0.7969  1.0381 -0.5177
  147SAPE   O2216105   4.028   4.024   5.837  0.3945 -0.4318 -0.3135
  147SAPE   C2216106   3.799   3.988   5.767 -0.4327 -0.2637 -0.1368
  147SAPE   H2R16107   3.714   3.973   5.836  0.3500  0.2043  0.9540
  147SAPE   H2S16108   3.802   4.093   5.732 -2.6471 -0.7166 -1.8892
  147SAPE    C316109   4.049   3.715   6.024 -0.5887 -0.4671 -0.1050
  147SAPE    HX16110   3.956   3.655   6.023 -0.8319 -0.1070  0.3404
  147SAPE    HY16111   4.105   3.688   6.116  0.8410  1.2786 -0.4037
  147SAPE   O3116112   4.130   3.713   5.910 -0.5825 -0.0565  0.6508
  147SAPE   C3116113   4.089   3.648   5.806  0.7706  0.3804 -0.2198
  147SAPE   O3216114   3.988   3.579   5.798  0.4464 -0.3682 -0.0263
  147SAPE   C3216115   4.190   3.666   5.699 -0.5234 -0.0422 -0.2782
  147SAPE   H2X16116   4.284   3.627   5.743 -0.0366  0.4315 -0.8899
  147SAPE   H2Y16117   4.215   3.771   5.671  2.3264 -0.7995 -0.8987
  147SAPE   C2316118   3.823   3.895   5.645 -0.0377  0.1128 -0.0299
  147SAPE   H3R16119   3.735   3.902   5.577  0.4121  0.8265 -0.5488
  147SAPE   H3S16120   3.834   3.792   5.686 -1.9202 -0.1601 -0.1037
  147SAPE   C2416121   3.945   3.928   5.557 -0.8030  0.0572 -0.3625
  147SAPE   H4R16122   3.939   3.851   5.478  0.7654 -0.7245  0.2350
  147SAPE   H4S16123   4.033   3.889   5.613 -1.8523  0.4541  1.6362
  147SAPE   C2516124   3.967   4.073   5.514  0.1339  0.1727 -0.1448
  147SAPE   H5R16125   3.889   4.151   5.523 -0.3442 -0.3375  0.2251
  147SAPE   C2616126   4.085   4.122   5.472 -0.0767 -0.1944 -0.7625
  147SAPE   H6R16127   4.097   4.226   5.437  2.7304 -0.1194  0.1721
  147SAPE   C2716128   4.210   4.047   5.453  0.4818 -0.3508 -0.0695
  147SAPE   H7R16129   4.220   3.958   5.518  2.3834 -0.9260 -1.0402
  147SAPE   H7S16130   4.293   4.118   5.474 -0.5614  0.9664 -0.2609
  147SAPE   C2816131   4.201   3.995   5.317 -0.9647  0.2116 -0.3842
  147SAPE   H8R16132   4.101   3.953   5.297 -1.7513 -0.1881  3.4936
  147SAPE   C2916133   4.307   3.990   5.227  0.1317  0.3920  0.4449
  147SAPE   H9R16134   4.285   3.944   5.129  2.7178 -0.2692  0.1054
  147SAPE  C21016135   4.445   4.043   5.244 -0.1240 -0.4791  0.4501
  147SAPE  H10R16136   4.518   3.967   5.279  0.7016 -0.1587 -0.5228
  147SAPE  H10S16137   4.445   4.128   5.316 -1.3741  0.3378 -0.4549
  147SAPE  C21116138   4.504   4.107   5.117 -0.0525  0.5874 -0.0374
  147SAPE  H11R16139   4.585   4.044   5.079 -0.7147  0.0880 -0.6477
  147SAPE  C21216140   4.451   4.213   5.054 -0.9872  0.0291  0.0663
  147SAPE  H12R16141   4.503   4.237   4.960 -1.6217  0.6657 -0.1305
  147SAPE  C21316142   4.325   4.294   5.085 -0.6009 -0.1711  0.6435
  147SAPE  H13R16143   4.368   4.396   5.079  3.6394 -1.8386 -0.7538
  147SAPE  H13S16144   4.275   4.269   5.181 -3.3104  0.8433 -0.3941
  147SAPE  C21416145   4.225   4.287   4.965  0.0854 -0.4381 -0.6757
  147SAPE  H14R16146   4.169   4.193   4.962 -0.4000 -0.1710 -0.1796
  147SAPE  C21516147   4.219   4.364   4.858  0.2126  0.1834  0.0377
  147SAPE  H15R16148   4.143   4.340   4.782 -0.4276 -0.1107  0.7468
  147SAPE  C21616149   4.302   4.478   4.819 -0.5847  0.1216 -0.0401
  147SAPE  H16R16150   4.374   4.510   4.898 -0.8386 -1.4706  0.8660
  147SAPE  H16S16151   4.234   4.566   4.815 -0.4518  0.2368  0.1935
  147SAPE  C21716152   4.385   4.445   4.691 -0.0298 -0.7920 -0.3824
  147SAPE  H17R16153   4.437   4.349   4.711  0.8339 -0.3593 -0.4896
  147SAPE  H17S16154   4.452   4.526   4.656 -1.5799  0.9945  0.5778
  147SAPE  C21816155   4.296   4.408   4.572  0.3661 -0.2987  0.2498
  147SAPE  H18R16156   4.216   4.484   4.554 -2.2087 -3.0385 -0.7003
  147SAPE  H18S16157   4.234   4.316   4.575 -1.0511  0.6271  0.7297
  147SAPE  C21916158   4.370   4.387   4.435 -0.2098 -0.0687 -0.1325
  147SAPE  H19R16159   4.362   4.279   4.409  1.0333 -0.3722  0.6441
  147SAPE  H19S16160   4.479   4.406   4.442  0.0291 -1.5889  0.6211
  147SAPE  C22016161   4.321   4.477   4.324  0.0490 -0.4945  0.1743
  147SAPE  H20R16162   4.370   4.440   4.232 -0.3623 -0.9481  0.1288
  147SAPE  H20S16163   4.355   4.583   4.328 -1.0494 -0.0756 -1.0657
  147SAPE  H20T16164   4.211   4.475   4.310  0.0578 -0.8482  0.1406
  147SAPE   C3316165   4.150   3.597   5.566 -0.2497  0.1818  1.1315
  147SAPE   H3X16166   4.062   3.651   5.523 -0.9157 -0.9753  0.9826
  147SAPE   H3Y16167   4.131   3.492   5.594  0.8099  0.1846  1.9125
  147SAPE   C3416168   4.264   3.616   5.460  0.2242  0.4194  0.3417
  147SAPE   H4X16169   4.361   3.571   5.489  0.1185  0.8752  1.4735
  147SAPE   H4Y16170   4.293   3.723   5.464  2.7325 -0.1873 -0.0608
  147SAPE   C3516171   4.211   3.563   5.328 -0.5525  0.1825  0.7400
  147SAPE   H5X16172   4.162   3.646   5.273 -1.8326  1.5261  3.6564
  147SAPE   H5Y16173   4.136   3.485   5.350 -2.5479  1.1498 -2.0479
  147SAPE   C3616174   4.323   3.505   5.232  0.1510  0.1062  0.4809
  147SAPE   H6X16175   4.273   3.485   5.135  0.3286  0.3451  0.3389
  147SAPE   H6Y16176   4.350   3.400   5.257 -2.0366 -0.2737  1.4806
  147SAPE   C3716177   4.443   3.596   5.206  0.2455 -0.5591  0.1247
  147SAPE   H7X16178   4.497   3.627   5.298  0.0628 -0.5919  0.2421
  147SAPE   H7Y16179   4.399   3.681   5.150  0.9374  0.3137  0.8689
  147SAPE   C3816180   4.559   3.521   5.126  0.4644 -1.0442 -0.3819
  147SAPE   H8X16181   4.587   3.436   5.192  0.1627  0.0044  1.1656
  147SAPE   H8Y16182   4.647   3.582   5.098 -0.4556  0.1843 -0.7183
  147SAPE   C3916183   4.512   3.487   4.983 -0.9987  0.2849 -0.2029
  147SAPE   H9X16184   4.463   3.573   4.933 -2.2594 -1.1070 -1.4465
  147SAPE   H9Y16185   4.437   3.405   4.982  0.0846 -0.7349 -0.8184
  147SAPE  C31016186   4.627   3.438   4.891  0.5276 -0.0993  0.0878
  147SAPE  H10X16187   4.681   3.353   4.937 -0.4289 -0.3407  0.7870
  147SAPE  H10Y16188   4.699   3.521   4.870 -1.3808  1.7709  0.6299
  147SAPE  C31116189   4.578   3.410   4.745  0.4012 -0.0300 -0.0128
  147SAPE  H11X16190   4.637   3.467   4.670  1.1275 -0.4578  0.2302
  147SAPE  H11Y16191   4.472   3.445   4.747  0.0862 -0.9141  2.1034
  147SAPE  C31216192   4.580   3.263   4.710 -0.3319 -0.0679  0.1162
  147SAPE  H12X16193   4.499   3.220   4.773  0.7428 -1.4378  0.6100
  147SAPE  H12Y16194   4.672   3.211   4.744  0.2660 -0.2619 -1.7109
  147SAPE  C31316195   4.539   3.238   4.567 -0.3421  0.7188  0.4689
  147SAPE  H13X16196   4.609   3.270   4.486  1.8716 -2.6562  0.8555
  147SAPE  H13Y16197   4.441   3.289   4.554 -0.3950  2.3493  5.3939
  147SAPE  C31416198   4.495   3.092   4.547  0.5358  0.7221 -0.2604
  147SAPE  H14X16199   4.459   3.080   4.442  2.6713  1.4014 -1.1261
  147SAPE  H14Y16200   4.412   3.079   4.619  0.5528 -0.7191 -0.4581
  147SAPE  C31516201   4.598   2.977   4.578 -0.0638  0.0056 -0.5491
  147SAPE  H15X16202   4.610   2.981   4.688 -0.6115  0.3334 -0.4996
  147SAPE  H15Y16203   4.695   2.999   4.528  0.2297  0.7443  0.3296
  147SAPE  C31616204   4.549   2.834   4.557 -0.3316 -0.5656  0.2298
  147SAPE  H16X16205   4.585   2.806   4.456 -1.1755 -2.1125  0.3398
  147SAPE  H16Y16206   4.439   2.845   4.549 -0.5136 -1.7793  0.8535
  147SAPE  C31716207   4.598   2.744   4.661 -0.6592  1.1599  0.4904
  147SAPE  H17X16208   4.549   2.768   4.758 -2.7957 -4.2492  1.1129
  147SAPE  H17Y16209   4.708   2.749   4.676 -0.6540  0.9952  0.5134
  147SAPE  C31816210   4.566   2.594   4.632 -0.3286 -1.0355  0.0898
  147SAPE  H18X16211   4.457   2.585   4.646 -0.3638  0.9030  1.4565
  147SAPE  H18Y16212   4.612   2.521   4.701  0.0132 -1.3561 -0.4760
  147SAPE  H18Z16213   4.577   2.569   4.524 -0.7847  0.8590 -0.4440
  148SAPE     N16214   1.204   4.803   6.007  0.2933  0.4017 -0.0046
  148SAPE   HN116215   1.102   4.820   6.023  0.1354  1.1870 -1.6963
  148SAPE   HN216216   1.219   4.736   5.929 -0.0676 -0.3120  0.5237
  148SAPE   HN316217   1.242   4.757   6.092 -0.5846 -0.1505  0.1120
  148SAPE   C1216218   1.268   4.931   5.975 -0.0151  0.7879  0.7589
  148SAPE  H12A16219   1.284   4.982   6.073  4.2968 -1.9393  1.7572
  148SAPE  H12B16220   1.203   4.989   5.905  1.6121 -0.0636 -1.5672
  148SAPE   C1116221   1.401   4.901   5.904  0.0797 -0.2845  0.0025
  148SAPE  H11A16222   1.442   4.995   5.861  1.0849 -0.5800  0.3004
  148SAPE  H11B16223   1.375   4.835   5.818  0.3270 -1.9904  1.1914
  148SAPE     P16224   1.590   4.900   6.089 -0.0187 -0.1591  0.0291
  148SAPE   O1316225   1.515   4.923   6.211 -0.2129 -0.1124 -0.3334
  148SAPE   O1416226   1.707   4.813   6.100  0.2375  0.5953 -0.2119
  148SAPE   O1216227   1.498   4.836   5.984  0.0717 -0.0217 -0.2009
  148SAPE   O1116228   1.635   5.040   6.035  0.1087  0.4710  0.4997
  148SAPE    C116229   1.772   5.072   6.014 -0.5001 -0.7151 -0.2947
  148SAPE    HA16230   1.799   5.163   6.073  1.0909 -2.8027  2.4230
  148SAPE    HB16231   1.843   4.998   6.057  1.5761 -0.6438 -3.3240
  148SAPE    C216232   1.817   5.102   5.866  0.4770  0.1886  0.5692
  148SAPE    HS16233   1.922   5.066   5.856  0.0220 -0.9318 -0.3810
  148SAPE   O2116234   1.799   5.246   5.834 -0.7627 -0.1121  0.5898
  148SAPE   C2116235   1.905   5.315   5.873 -0.6077  0.4767  0.7356
  148SAPE   O2216236   2.013   5.271   5.900  0.2400  0.7114  0.3725
  148SAPE   C2216237   1.855   5.458   5.889 -0.6047  0.0529  0.2509
  148SAPE   H2R16238   1.782   5.483   5.809 -0.2613 -2.0713 -0.8181
  148SAPE   H2S16239   1.793   5.442   5.980  0.1341 -2.3301  0.4216
  148SAPE    C316240   1.737   5.022   5.760 -0.0535 -0.2689 -0.0699
  148SAPE    HX16241   1.639   5.076   5.763  0.7398  1.2842 -0.6770
  148SAPE    HY16242   1.725   4.915   5.788  1.4133 -1.3192 -3.0551
  148SAPE   O3116243   1.795   5.028   5.625  0.1707 -0.0971  0.1437
  148SAPE   C3116244   1.755   5.132   5.551  0.8753 -0.3590 -0.5478
  148SAPE   O3216245   1.649   5.195   5.567 -0.1276 -0.4072 -0.8765
  148SAPE   C3216246   1.861   5.161   5.445 -0.0773 -0.8031 -0.2657
  148SAPE   H2X16247   1.945   5.220   5.488  0.5553  1.3195 -3.9516
  148SAPE   H2Y16248   1.810   5.223   5.368  0.7654  1.1880  0.6860
  148SAPE   C2316249   1.958   5.563   5.910  0.2607 -0.1474 -0.2105
  148SAPE   H3R16250   2.023   5.530   5.993  0.3438  0.1689 -0.1468
  148SAPE   H3S16251   1.893   5.649   5.939  1.7283  1.0860 -0.4504
  148SAPE   C2416252   2.049   5.598   5.795  0.4691 -0.3293 -0.3964
  148SAPE   H4R16253   2.100   5.505   5.764 -1.8959 -1.2983 -1.6862
  148SAPE   H4S16254   2.130   5.665   5.830  0.5062 -0.3534 -0.4368
  148SAPE   C2516255   1.980   5.672   5.675  0.0534  0.1074 -0.1683
  148SAPE   H5R16256   1.957   5.776   5.703  3.0600  0.5460  1.0503
  148SAPE   C2616257   1.945   5.627   5.551 -0.3353 -0.0005 -0.4537
  148SAPE   H6R16258   1.888   5.697   5.488  1.0151 -0.4727 -2.3036
  148SAPE   C2716259   1.952   5.490   5.493  0.0187  0.7362  0.4336
  148SAPE   H7R16260   1.880   5.484   5.409 -0.3527 -1.6923  0.8553
  148SAPE   H7S16261   1.928   5.408   5.564 -0.0304 -0.5015 -0.9743
  148SAPE   C2816262   2.092   5.455   5.461  0.1344 -0.7897  0.0758
  148SAPE   H8R16263   2.161   5.451   5.547  0.7885 -1.3392 -0.4629
  148SAPE   C2916264   2.133   5.439   5.336 -0.1058 -0.1361 -0.0963
  148SAPE   H9R16265   2.238   5.413   5.320 -0.2290 -0.3019 -0.6611
  148SAPE  C21016266   2.057   5.434   5.205  0.5493  0.1286 -0.1830
  148SAPE  H10R16267   2.077   5.528   5.149  1.5554  0.7635  1.1901
  148SAPE  H10S16268   1.948   5.430   5.227  0.3122  2.0460 -0.8076
  148SAPE  C21116269   2.103   5.316   5.125 -0.0924  0.1975 -0.2240
  148SAPE  H11R16270   2.046   5.222   5.133  1.8414 -1.1723 -1.5590
  148SAPE  C21216271   2.207   5.331   5.037 -0.6216  0.9061  0.4335
  148SAPE  H12R16272   2.234   5.239   4.983 -1.2979 -0.2424  1.9785
  148SAPE  C21316273   2.290   5.452   5.004  0.0314 -0.2224  0.2158
  148SAPE  H13R16274   2.398   5.427   5.006  0.1236  0.1515  2.2200
  148SAPE  H13S16275   2.271   5.536   5.075 -1.2259  0.0921 -0.4668
  148SAPE  C21416276   2.249   5.499   4.868 -0.7396 -0.2107  0.1826
  148SAPE  H14R16277   2.165   5.570   4.862 -1.7378 -1.3356  0.4316
  148SAPE  C21516278   2.301   5.439   4.755 -0.0567  0.5156  0.1159
  148SAPE  H15R16279   2.259   5.467   4.657 -0.0934  0.8050  0.2133
  148SAPE  C21616280   2.417   5.341   4.755 -1.0221  0.2292  0.3276
  148SAPE  H16R16281   2.376   5.258   4.693 -0.4607 -0.5517  0.9884
  148SAPE  H16S16282   2.442   5.294   4.852 -0.5843 -1.5480 -0.5804
  148SAPE  C21716283   2.538   5.395   4.687 -0.4461  0.2878  0.7956
  148SAPE  H17R16284   2.621   5.321   4.684  0.1929  1.0157 -2.0106
  148SAPE  H17S16285   2.574   5.494   4.723 -3.2315  1.3804  0.7967
  148SAPE  C21816286   2.524   5.415   4.529  0.4602 -0.4218 -0.1403
  148SAPE  H18R16287   2.446   5.493   4.516  3.2214  2.2913 -1.7842
  148SAPE  H18S16288   2.495   5.318   4.483  2.1364 -1.4436  0.8237
  148SAPE  C21916289   2.652   5.477   4.461 -0.0112  0.4053  0.6182
  148SAPE  H19R16290   2.654   5.585   4.486  0.0355  0.5712 -0.0756
  148SAPE  H19S16291   2.647   5.470   4.350  2.4644  1.1806  0.3938
  148SAPE  C22016292   2.784   5.415   4.499 -0.2110  0.1019 -0.3132
  148SAPE  H20R16293   2.873   5.474   4.467  0.4451 -0.9747 -0.5220
  148SAPE  H20S16294   2.797   5.312   4.461  1.6694 -0.2993  1.2541
  148SAPE  H20T16295   2.792   5.401   4.609 -0.9798 -2.5184 -0.5297
  148SAPE   C3316296   1.927   5.036   5.377 -0.0546  0.2289 -0.4981
  148SAPE   H3X16297   1.978   4.959   5.439 -1.4957  0.8325  1.5425
  148SAPE   H3Y16298   2.001   5.084   5.310  1.0481 -0.1537  0.4101
  148SAPE   C3416299   1.847   4.960   5.265  0.2514  0.0842  0.5154
  148SAPE   H4X16300   1.766   4.924   5.333 -0.3301  1.4521  0.5893
  148SAPE   H4Y16301   1.912   4.875   5.235 -0.9214 -1.0192  0.9946
  148SAPE   C3516302   1.797   5.036   5.141 -0.0446 -0.2208 -0.1716
  148SAPE   H5X16303   1.782   5.143   5.164 -0.9962 -0.5842  1.0315
  148SAPE   H5Y16304   1.695   4.996   5.120 -0.6966 -0.0643  2.3414
  148SAPE   C3616305   1.889   5.028   5.023  0.0338 -0.7286  0.3634
  148SAPE   H6X16306   1.934   4.927   5.013  2.1117 -0.0283  1.9220
  148SAPE   H6Y16307   1.974   5.099   5.034  0.3269 -1.1118  0.5688
  148SAPE   C3716308   1.805   5.063   4.892  0.6074 -0.1779 -0.3858
  148SAPE   H7X16309   1.771   5.168   4.904 -0.6407 -0.6463  0.4086
  148SAPE   H7Y16310   1.710   5.004   4.891 -1.4184  2.8324 -0.0738
  148SAPE   C3816311   1.875   5.056   4.756  0.6426  0.7114  0.2875
  148SAPE   H8X16312   1.800   5.053   4.674  0.5616  0.4177  0.3714
  148SAPE   H8Y16313   1.925   4.958   4.743 -2.1653 -0.5618 -2.3781
  148SAPE   C3916314   1.977   5.165   4.737 -0.1860 -0.3621 -0.1021
  148SAPE   H9X16315   2.066   5.153   4.802 -0.1624 -1.0297 -0.2560
  148SAPE   H9Y16316   1.937   5.263   4.773  1.6491 -0.4386  2.4632
  148SAPE  C31016317   2.030   5.180   4.595 -0.2851  0.1707  0.0919
  148SAPE  H10X16318   2.082   5.278   4.586  2.4392 -1.1487  0.3794
  148SAPE  H10Y16319   1.940   5.172   4.531  0.3457 -3.3174 -0.5941
  148SAPE  C31116320   2.124   5.065   4.563  0.0648 -0.2944 -0.0225
  148SAPE  H11X16321   2.076   4.967   4.582 -0.4216  0.2890  1.9667
  148SAPE  H11Y16322   2.217   5.063   4.624 -0.8839 -1.9117  1.4450
  148SAPE  C31216323   2.154   5.074   4.414  0.1449 -0.1092  0.5304
  148SAPE  H12X16324   2.197   5.172   4.385 -1.9503  0.6528 -0.2166
  148SAPE  H12Y16325   2.055   5.066   4.364  0.5208 -0.1934 -0.2255
  148SAPE  C31316326   2.234   4.949   4.367  0.3084  0.5054 -0.3934
  148SAPE  H13X16327   2.261   4.961   4.260  2.2762  0.3495  0.0598
  148SAPE  H13Y16328   2.177   4.854   4.375  0.3388  0.1811 -2.9775
  148SAPE  C31416329   2.371   4.917   4.439  0.1665 -0.9921  0.1055
  148SAPE  H14X16330   2.404   4.811   4.437 -0.5376 -1.2027 -0.3869
  148SAPE  H14Y16331   2.372   4.931   4.550  1.4748  0.1062 -0.0123
  148SAPE  C31516332   2.466   5.013   4.374 -0.2111  0.1639 -0.3243
  148SAPE  H15X16333   2.431   5.118   4.382 -1.2060 -0.1173 -0.8416
  148SAPE  H15Y16334   2.472   4.984   4.267  1.1867 -1.3117  0.1021
  148SAPE  C31616335   2.607   5.018   4.438  0.1928  0.6441 -0.0167
  148SAPE  H16X16336   2.597   5.064   4.538  1.6777  0.6519  0.1510
  148SAPE  H16Y16337   2.657   5.095   4.375 -0.0001 -0.5037 -1.6455
  148SAPE  C31716338   2.676   4.887   4.420  0.1082  0.1114  0.5017
  148SAPE  H17X16339   2.668   4.845   4.317 -1.5447 -1.6204  1.2886
  148SAPE  H17Y16340   2.648   4.800   4.483  1.8786 -2.1743 -1.6396
  148SAPE  C31816341   2.827   4.916   4.435  0.5751 -0.6725  0.3214
  148SAPE  H18X16342   2.842   4.972   4.530  0.5924  0.0930 -0.1262
  148SAPE  H18Y16343   2.864   4.977   4.350 -1.9501  0.5762  0.0413
  148SAPE  H18Z16344   2.891   4.827   4.449 -0.1871 -0.9850  2.1157
  149SAPE     N16345   3.078   2.174   6.690 -0.2001 -0.2422  0.0008
  149SAPE   HN116346   3.120   2.101   6.751  0.7416 -0.1186 -0.4777
  149SAPE   HN216347   3.121   2.160   6.596 -1.8766 -0.9177 -0.7027
  149SAPE   HN316348   3.097   2.272   6.721 -2.0995  0.3542 -0.5825
  149SAPE   C1216349   2.928   2.175   6.689 -0.0682  0.3505  0.3446
  149SAPE  H12A16350   2.883   2.212   6.784  0.5200 -3.1831  2.1405
  149SAPE  H12B16351   2.887   2.072   6.679  2.6112 -0.7268 -0.3320
  149SAPE   C1116352   2.881   2.243   6.554 -0.3974 -0.4075  0.1685
  149SAPE  H11A16353   2.916   2.348   6.541 -2.4739  0.2437 -0.5632
  149SAPE  H11B16354   2.770   2.251   6.561 -0.2910  2.2248 -0.0894
  149SAPE     P16355   2.881   2.221   6.294 -0.0141  0.2448  0.4403
  149SAPE   O1316356   2.924   2.362   6.283  0.5132  0.2089  0.2013
  149SAPE   O1416357   2.934   2.130   6.187 -0.2733  0.6571  0.2921
  149SAPE   O1216358   2.914   2.167   6.434 -0.1324 -0.1955  0.0106
  149SAPE   O1116359   2.720   2.214   6.290 -0.2117  0.2549  0.1336
  149SAPE    C116360   2.672   2.081   6.303  0.1853  0.5525 -0.5556
  149SAPE    HA16361   2.741   2.004   6.343  0.7436  1.2213 -0.2151
  149SAPE    HB16362   2.595   2.087   6.383  1.2594  1.4513  0.4252
  149SAPE    C216363   2.588   2.022   6.185  0.8306  0.3533  0.0936
  149SAPE    HS16364   2.540   1.925   6.210  1.2223  0.6072  2.0059
  149SAPE   O2116365   2.673   2.001   6.071 -0.2133  0.0681 -0.3055
  149SAPE   C2116366   2.760   1.896   6.079  0.5317 -0.0422  0.2101
  149SAPE   O2216367   2.769   1.821   6.175 -0.0314 -0.6693  0.3334
  149SAPE   C2216368   2.855   1.908   5.962 -0.2129 -0.5693 -0.1008
  149SAPE   H2R16369   2.927   1.988   5.987 -0.6845 -0.7165  1.9612
  149SAPE   H2S16370   2.907   1.811   5.946  2.3334  0.4719  1.3249
  149SAPE    C316371   2.480   2.113   6.123  0.3761  0.0825 -0.4919
  149SAPE    HX16372   2.524   2.214   6.115  1.9542 -0.4301  1.0204
  149SAPE    HY16373   2.393   2.109   6.192  1.5695 -0.8513  1.0246
  149SAPE   O3116374   2.435   2.069   5.990 -0.2130 -0.2915  0.1655
  149SAPE   C3116375   2.337   1.983   5.994  0.1726 -0.3036  0.4703
  149SAPE   O3216376   2.254   1.957   6.087 -0.0253  0.3819 -0.4016
  149SAPE   C3216377   2.327   1.902   5.863 -0.9472 -0.2141 -0.9430
  149SAPE   H2X16378   2.222   1.867   5.852 -1.1646  0.4169 -0.9231
  149SAPE   H2Y16379   2.393   1.816   5.886 -1.4519 -0.2113  0.6215
  149SAPE   C2316380   2.786   1.939   5.829  0.6719  0.0736 -0.7436
  149SAPE   H3R16381   2.740   2.040   5.842 -1.0821 -0.8718  0.9403
  149SAPE   H3S16382   2.701   1.869   5.815  0.9172 -0.2557 -0.6020
  149SAPE   C2416383   2.878   1.932   5.712 -0.5167 -0.4486 -0.1865
  149SAPE   H4R16384   2.922   1.832   5.693 -0.4391 -0.3297 -0.6420
  149SAPE   H4S16385   2.964   2.002   5.720  0.2027 -1.2290 -0.7884
  149SAPE   C2516386   2.801   1.983   5.594 -0.6218 -0.1856 -0.6045
  149SAPE   H5R16387   2.728   2.062   5.617  0.1937  0.8132 -1.3479
  149SAPE   C2616388   2.796   1.933   5.470  0.7091  0.1098 -0.3999
  149SAPE   H6R16389   2.732   1.983   5.395 -0.3858 -0.3284  0.2333
  149SAPE   C2716390   2.881   1.815   5.419  0.2241  0.1972  0.1534
  149SAPE   H7R16391   2.820   1.737   5.369 -1.5866  0.4689  1.8143
  149SAPE   H7S16392   2.944   1.768   5.497 -0.3182 -0.2284  0.3444
  149SAPE   C2816393   2.976   1.876   5.318 -0.2301  0.3071  0.1674
  149SAPE   H8R16394   3.070   1.909   5.365  0.4423 -0.4826 -0.5901
  149SAPE   C2916395   2.958   1.905   5.187  0.1534  0.2966  0.0258
  149SAPE   H9R16396   3.036   1.954   5.126 -0.0175 -2.3548 -2.5316
  149SAPE  C21016397   2.840   1.871   5.100  0.1342  0.0302  0.2670
  149SAPE  H10R16398   2.793   1.968   5.075 -0.4833 -0.2330  0.3992
  149SAPE  H10S16399   2.769   1.815   5.164  0.4545 -0.8208 -0.0959
  149SAPE  C21116400   2.884   1.787   4.984 -0.0981  0.6121 -0.2784
  149SAPE  H11R16401   2.972   1.721   4.996  0.5180  1.3337 -0.7489
  149SAPE  C21216402   2.866   1.811   4.856 -0.3050  0.0672  0.3020
  149SAPE  H12R16403   2.902   1.737   4.783 -0.1825 -2.0092  2.3303
  149SAPE  C21316404   2.782   1.924   4.807  0.0059 -0.4280  0.3532
  149SAPE  H13R16405   2.845   2.014   4.790  1.8208 -1.5319  0.9909
  149SAPE  H13S16406   2.697   1.955   4.872 -1.6420  0.8773 -2.2552
  149SAPE  C21416407   2.720   1.882   4.670 -0.1565  0.1683 -0.2685
  149SAPE  H14R16408   2.611   1.865   4.668 -0.1616  0.1824 -0.1287
  149SAPE  C21516409   2.775   1.853   4.551  0.0382 -0.5218  0.8720
  149SAPE  H15R16410   2.703   1.819   4.475 -0.3074 -1.9176  1.7961
  149SAPE  C21616411   2.922   1.853   4.520 -0.1518 -0.0456 -0.4824
  149SAPE  H16R16412   2.951   1.753   4.480  0.2134 -0.7550  1.4358
  149SAPE  H16S16413   2.972   1.863   4.619  0.7212 -2.5497 -0.5826
  149SAPE  C21716414   2.979   1.955   4.418 -0.3591  0.7313 -0.4587
  149SAPE  H17R16415   3.020   2.039   4.478 -1.7266  0.4789  0.9037
  149SAPE  H17S16416   2.903   2.002   4.351  1.9416  0.5573 -3.3682
  149SAPE  C21816417   3.096   1.901   4.342  0.3167 -0.1108  0.6198
  149SAPE  H18R16418   3.144   1.810   4.385 -0.4035 -0.2217  1.2113
  149SAPE  H18S16419   3.184   1.969   4.346  1.0091 -0.7720 -1.9465
  149SAPE  C21916420   3.060   1.879   4.196  0.2013  0.6506  0.8838
  149SAPE  H19R16421   3.012   1.969   4.153 -0.1124  0.1204  0.0959
  149SAPE  H19S16422   2.986   1.798   4.176 -0.2404  1.3027 -0.2037
  149SAPE  C22016423   3.178   1.851   4.097  0.1679  0.7676 -0.5798
  149SAPE  H20R16424   3.269   1.906   4.129  1.1443 -0.9001 -0.3735
  149SAPE  H20S16425   3.158   1.875   3.990  1.1474 -2.4707 -1.6156
  149SAPE  H20T16426   3.208   1.744   4.101 -0.5875  0.4597 -2.3144
  149SAPE   C3316427   2.375   1.988   5.737 -0.0000 -0.2878 -0.0102
  149SAPE   H3X16428   2.482   2.020   5.740  0.3966 -1.1547 -2.5185
  149SAPE   H3Y16429   2.308   2.075   5.721 -0.4960 -0.7614 -0.4954
  149SAPE   C3416430   2.364   1.910   5.604  0.5974  0.3149  0.3652
  149SAPE   H4X16431   2.259   1.884   5.581  0.9069  0.2063 -1.0165
  149SAPE   H4Y16432   2.418   1.814   5.616  1.5478  0.8715  0.6693
  149SAPE   C3516433   2.410   1.983   5.481  0.0155 -0.1965 -0.1903
  149SAPE   H5X16434   2.515   2.014   5.502 -1.1599  3.4356  1.0993
  149SAPE   H5Y16435   2.342   2.070   5.484  0.3539  0.0847 -0.5711
  149SAPE   C3616436   2.396   1.912   5.355  0.6023  0.4439 -0.1595
  149SAPE   H6X16437   2.291   1.876   5.345  0.9920 -0.6917 -0.3972
  149SAPE   H6Y16438   2.458   1.819   5.351  1.9260  1.3259 -0.7505
  149SAPE   C3716439   2.428   1.995   5.236  0.2207 -0.0306  0.0984
  149SAPE   H7X16440   2.528   2.040   5.251  1.0220 -2.3618  2.6513
  149SAPE   H7Y16441   2.353   2.076   5.224  0.0163 -0.1545  0.5100
  149SAPE   C3816442   2.419   1.899   5.111  0.1654 -0.0381  0.2994
  149SAPE   H8X16443   2.333   1.829   5.117 -1.1028  1.5234  0.9841
  149SAPE   H8Y16444   2.512   1.840   5.099 -0.1523 -0.9521  2.0886
  149SAPE   C3916445   2.391   1.977   4.984  0.5071 -0.0447  1.1963
  149SAPE   H9X16446   2.463   2.058   4.960  0.8041 -0.8727 -0.9414
  149SAPE   H9Y16447   2.294   2.028   5.004 -0.8122 -2.1052  0.3928
  149SAPE  C31016448   2.375   1.907   4.848 -0.6724 -0.6768  0.3210
  149SAPE  H10X16449   2.284   1.842   4.852 -0.7862 -0.8089 -2.6024
  149SAPE  H10Y16450   2.461   1.839   4.830  0.9658  0.5767  2.8753
  149SAPE  C31116451   2.379   1.998   4.725 -0.0759  0.2704  0.2756
  149SAPE  H11X16452   2.484   2.033   4.719  0.8706 -2.2453  0.6695
  149SAPE  H11Y16453   2.310   2.080   4.754  1.0220  1.0165  0.8185
  149SAPE  C31216454   2.335   1.928   4.600  0.4339  0.6263 -0.0813
  149SAPE  H12X16455   2.226   1.907   4.606  0.4863  0.3875  0.0501
  149SAPE  H12Y16456   2.385   1.829   4.594  0.3662  0.6427 -1.2073
  149SAPE  C31316457   2.375   1.987   4.465  0.3584  0.6968  0.0049
  149SAPE  H13X16458   2.475   1.951   4.432  0.7056  0.4948  1.2351
  149SAPE  H13Y16459   2.367   2.097   4.470 -0.9553  0.5692  1.9791
  149SAPE  C31416460   2.274   1.948   4.349  1.0754 -0.3501 -0.2082
  149SAPE  H14X16461   2.173   1.971   4.389  0.5583 -1.1437 -1.0175
  149SAPE  H14Y16462   2.268   1.837   4.342  4.1874 -0.6276  0.2779
  149SAPE  C31516463   2.309   2.010   4.220  0.4527 -0.5764  0.1543
  149SAPE  H15X16464   2.418   1.990   4.209  0.8143  0.8432  0.8909
  149SAPE  H15Y16465   2.302   2.121   4.220  4.5974 -0.1387  1.7501
  149SAPE  C31616466   2.224   1.951   4.111  0.8311  0.2150 -0.2456
  149SAPE  H16X16467   2.199   1.843   4.125  0.3229  0.4151  0.4254
  149SAPE  H16Y16468   2.271   1.964   4.011 -0.0589  2.4022 -0.4235
  149SAPE  C31716469   2.086   2.031   4.101  0.1520  0.0635  0.5009
  149SAPE  H17X16470   2.120   2.133   4.075 -0.6733  0.0598 -0.6981
  149SAPE  H17Y16471   2.048   2.045   4.204 -0.0956  2.0138  0.1781
  149SAPE  C31816472   1.984   1.968   4.008  0.8065  0.0886 -0.4406
  149SAPE  H18X16473   1.884   2.005   4.040  0.6037 -0.5718 -0.3119
  149SAPE  H18Y16474   1.976   1.860   4.031 -0.5365  0.4153  0.7224
  149SAPE  H18Z16475   1.996   1.999   3.901  0.2892  0.6098 -0.3542
  150SAPE     N16476   5.743   0.848   6.270  0.0630  0.0348 -0.0338
  150SAPE   HN116477   5.807   0.767   6.279 -0.8482 -0.8523 -1.2213
  150SAPE   HN216478   5.696   0.861   6.178  1.2777 -3.1394 -1.2364
  150SAPE   HN316479   5.797   0.936   6.283 -1.4917  0.8930  1.0057
  150SAPE   C1216480   5.647   0.849   6.385 -0.6200 -0.0545 -0.6995
  150SAPE  H12A16481   5.578   0.762   6.376 -1.5487  0.6070 -0.1289
  150SAPE  H12B16482   5.587   0.940   6.364  0.3556  0.3508 -1.8422
  150SAPE   C1116483   5.718   0.853   6.523  0.3170 -0.5743  0.1115
  150SAPE  H11A16484   5.734   0.747   6.550 -1.4127 -0.8558  0.1688
  150SAPE  H11B16485   5.644   0.896   6.595  2.1497  2.3915  0.4096
  150SAPE     P16486   5.856   1.069   6.539 -0.2194 -0.1651  0.0350
  150SAPE   O1316487   5.726   1.135   6.523  0.1163  0.0829  0.0681
  150SAPE   O1416488   5.929   1.093   6.662  0.2041  0.6563 -0.1271
  150SAPE   O1216489   5.837   0.915   6.519 -0.3184 -0.2975  0.7343
  150SAPE   O1116490   5.934   1.104   6.407  0.0362  0.1159  0.5019
  150SAPE    C116491   6.071   1.058   6.394  0.3158  0.4654  0.1606
  150SAPE    HA16492   6.133   1.116   6.466  1.0331  0.2773 -0.2950
  150SAPE    HB16493   6.070   0.948   6.413  0.5485  0.3918 -0.2408
  150SAPE    C216494   6.126   1.095   6.244 -0.7020  0.3586 -0.0880
  150SAPE    HS16495   6.119   1.202   6.217  1.8927  0.7188  0.3670
  150SAPE   O2116496   6.045   1.008   6.149  0.4518  0.2878 -0.1088
  150SAPE   C2116497   6.037   1.059   6.027  0.3161 -0.5267 -0.2950
  150SAPE   O2216498   6.092   1.160   5.981 -0.3739  0.0210  0.1218
  150SAPE   C2216499   5.953   0.967   5.943  0.2773 -0.4102 -0.7741
  150SAPE   H2R16500   5.877   0.915   6.005  0.9628  0.9977  1.3524
  150SAPE   H2S16501   5.896   1.032   5.872 -2.7666  1.3502  2.9295
  150SAPE    C316502   6.277   1.055   6.241  0.2933 -0.1796 -0.1859
  150SAPE    HX16503   6.288   0.948   6.268 -0.0392 -0.1448  0.1038
  150SAPE    HY16504   6.332   1.112   6.318  0.2849  0.0182 -0.3280
  150SAPE   O3116505   6.336   1.072   6.110 -0.0284  0.2661 -0.3103
  150SAPE   C3116506   6.409   1.183   6.085  0.0625 -0.0981  0.1643
  150SAPE   O3216507   6.433   1.263   6.169  0.3725  0.3388  0.1364
  150SAPE   C3216508   6.449   1.189   5.938 -0.2624  0.2321  0.5686
  150SAPE   H2X16509   6.398   1.102   5.890 -1.5306  1.1431  0.1905
  150SAPE   H2Y16510   6.557   1.173   5.921 -0.4676  0.9439 -1.8522
  150SAPE   C2316511   6.047   0.860   5.876 -0.3604  0.1799  0.0044
  150SAPE   H3R16512   5.993   0.773   5.833  2.5809 -0.8074 -1.9524
  150SAPE   H3S16513   6.105   0.823   5.964 -0.2381 -0.1656 -0.2214
  150SAPE   C2416514   6.142   0.919   5.774  0.0684 -0.0988 -0.7560
  150SAPE   H4R16515   6.209   0.837   5.739  0.1801 -1.0003  1.4383
  150SAPE   H4S16516   6.203   0.991   5.833 -2.1485  0.9236  0.3944
  150SAPE   C2516517   6.076   0.989   5.657 -0.4476  0.5216 -0.5356
  150SAPE   H5R16518   6.064   1.097   5.667  1.3493  0.8436 -1.4443
  150SAPE   C2616519   6.058   0.936   5.530  0.4069 -0.0961 -0.4328
  150SAPE   H6R16520   6.018   0.999   5.450  2.4376  1.3341 -0.3829
  150SAPE   C2716521   6.074   0.792   5.487  0.1469  0.2491  0.1175
  150SAPE   H7R16522   6.101   0.723   5.569 -1.5886 -2.6141 -1.5460
  150SAPE   H7S16523   6.164   0.788   5.423  0.6211 -0.1373  0.8046
  150SAPE   C2816524   5.957   0.738   5.411 -0.2638  0.2729 -1.0749
  150SAPE   H8R16525   5.869   0.702   5.467 -0.7054  0.3345 -1.7190
  150SAPE   C2916526   5.943   0.725   5.273  0.3454 -0.0744 -0.4420
  150SAPE   H9R16527   5.848   0.673   5.253 -1.4750  2.1516  1.6980
  150SAPE  C21016528   6.037   0.757   5.164  0.0055 -0.1742 -0.2043
  150SAPE  H10R16529   6.055   0.664   5.105 -0.3280  1.0073 -2.2777
  150SAPE  H10S16530   6.139   0.771   5.206  0.6944 -1.3559 -1.4135
  150SAPE  C21116531   5.994   0.872   5.066  0.0779 -1.3277  0.0235
  150SAPE  H11R16532   5.988   0.967   5.122 -1.9800 -1.5788  0.2814
  150SAPE  C21216533   5.998   0.873   4.933  0.0344  0.2932  1.0126
  150SAPE  H12R16534   5.986   0.970   4.883 -0.5729 -0.5055 -0.4650
  150SAPE  C21316535   6.031   0.750   4.845 -1.1745  0.1536 -0.3733
  150SAPE  H13R16536   6.010   0.660   4.906 -0.3500  0.0847 -0.1906
  150SAPE  H13S16537   6.140   0.755   4.825 -0.9658  1.0451  0.8984
  150SAPE  C21416538   5.942   0.734   4.721 -0.1515 -0.0123  0.5165
  150SAPE  H14R16539   5.843   0.689   4.741  0.3192 -1.7416 -0.7957
  150SAPE  C21516540   5.976   0.770   4.597  0.7938 -0.0356  0.4395
  150SAPE  H15R16541   5.893   0.752   4.527  0.9345  2.9343 -0.6196
  150SAPE  C21616542   6.098   0.835   4.543 -0.0373  0.0730  0.0311
  150SAPE  H16R16543   6.167   0.836   4.630 -2.4125  1.7467  2.0513
  150SAPE  H16S16544   6.072   0.940   4.520  0.0981 -0.0306 -0.6021
  150SAPE  C21716545   6.146   0.766   4.412 -0.3128 -0.1154 -0.3656
  150SAPE  H17R16546   6.217   0.842   4.375 -1.0568  0.9633  0.3738
  150SAPE  H17S16547   6.068   0.758   4.334 -0.7806 -1.2524  0.1849
  150SAPE  C21816548   6.218   0.629   4.426  0.8931  1.0343 -0.4723
  150SAPE  H18R16549   6.253   0.605   4.323  1.2980 -0.3013 -0.0386
  150SAPE  H18S16550   6.128   0.568   4.451  0.9415  0.8432 -0.7577
  150SAPE  C21916551   6.329   0.615   4.524 -0.1345  0.0011  0.3742
  150SAPE  H19R16552   6.321   0.677   4.616  2.9463  0.2295  0.5871
  150SAPE  H19S16553   6.415   0.672   4.482 -1.2507 -0.1069 -2.3012
  150SAPE  C22016554   6.357   0.470   4.543  0.0734 -0.1666 -0.2127
  150SAPE  H20R16555   6.380   0.429   4.443  0.3764  0.1514 -0.2732
  150SAPE  H20S16556   6.270   0.413   4.582  0.7726 -0.6534  0.6927
  150SAPE  H20T16557   6.452   0.447   4.597  0.1840 -3.4100 -1.5596
  150SAPE   C3316558   6.409   1.320   5.872  0.1695 -0.4533 -0.6519
  150SAPE   H3X16559   6.451   1.407   5.928 -1.2787  0.3787 -0.7976
  150SAPE   H3Y16560   6.299   1.336   5.883  0.2566 -0.6706  0.7036
  150SAPE   C3416561   6.468   1.331   5.733  0.0460 -0.8386  0.2841
  150SAPE   H4X16562   6.570   1.289   5.748 -0.1949 -0.9482  1.7751
  150SAPE   H4Y16563   6.470   1.436   5.698 -1.5339 -1.0741 -0.5728
  150SAPE   C3516564   6.377   1.250   5.639  0.3240 -0.5659  0.7539
  150SAPE   H5X16565   6.285   1.306   5.612  0.2439 -0.8614  0.3992
  150SAPE   H5Y16566   6.342   1.157   5.689 -1.3245  0.0079  0.7347
  150SAPE   C3616567   6.457   1.208   5.512  0.1077  0.6544  0.0238
  150SAPE   H6X16568   6.545   1.145   5.537 -1.4084 -1.1922  0.9871
  150SAPE   H6Y16569   6.501   1.303   5.474  1.6546 -0.5570 -1.3790
  150SAPE   C3716570   6.376   1.144   5.390 -0.3853 -0.1887 -0.6237
  150SAPE   H7X16571   6.299   1.220   5.368  1.6533  1.2803 -3.3946
  150SAPE   H7Y16572   6.330   1.044   5.405 -1.1113 -0.4675 -3.8972
  150SAPE   C3816573   6.465   1.133   5.267 -0.2747 -0.0232 -0.5967
  150SAPE   H8X16574   6.542   1.054   5.283 -1.3242 -1.1234 -0.7912
  150SAPE   H8Y16575   6.503   1.237   5.261 -2.6215  0.9532 -0.0038
  150SAPE   C3916576   6.387   1.101   5.143  0.1824  0.1387  0.4533
  150SAPE   H9X16577   6.286   1.145   5.134 -1.0283 -2.7278 -1.0316
  150SAPE   H9Y16578   6.362   0.993   5.139 -1.1043  0.4431 -0.9376
  150SAPE  C31016579   6.468   1.138   5.015 -0.2704 -0.1105  0.6436
  150SAPE  H10X16580   6.558   1.075   5.011 -0.2128 -0.2156  2.6561
  150SAPE  H10Y16581   6.497   1.245   5.025  1.9408 -0.5725 -0.4154
  150SAPE  C31116582   6.383   1.125   4.892 -0.2330 -0.4000 -0.1663
  150SAPE  H11X16583   6.315   1.212   4.888  1.8503  1.4571  1.7813
  150SAPE  H11Y16584   6.328   1.028   4.884 -0.4982 -0.2410 -0.2896
  150SAPE  C31216585   6.474   1.124   4.774 -0.4965  0.0137 -0.6996
  150SAPE  H12X16586   6.550   1.043   4.772 -1.4650 -1.0242  1.3959
  150SAPE  H12Y16587   6.534   1.218   4.780  1.1123 -1.0257  0.8248
  150SAPE  C31316588   6.405   1.140   4.638  0.3218 -0.3348 -0.0499
  150SAPE  H13X16589   6.311   1.195   4.660  0.9190  1.1072 -0.8820
  150SAPE  H13Y16590   6.382   1.039   4.600 -0.0936 -0.9009  1.6428
  150SAPE  C31416591   6.474   1.234   4.544  0.5950 -0.2623  0.3123
  150SAPE  H14X16592   6.568   1.187   4.507 -0.5367 -0.7162 -2.1431
  150SAPE  H14Y16593   6.515   1.327   4.590  0.7050 -0.1694  0.0293
  150SAPE  C31516594   6.391   1.277   4.413  0.1124  0.0309 -0.5528
  150SAPE  H15X16595   6.444   1.347   4.345 -1.1628 -0.2687 -1.9115
  150SAPE  H15Y16596   6.297   1.324   4.448  0.7119 -0.2741  1.5796
  150SAPE  C31616597   6.360   1.145   4.320 -0.9096  0.2954 -0.7197
  150SAPE  H16X16598   6.301   1.178   4.232  0.4072  1.8264 -1.0872
  150SAPE  H16Y16599   6.294   1.085   4.386 -1.6790  2.1262  0.2322
  150SAPE  C31716600   6.477   1.063   4.274 -0.5662  0.0191 -0.0967
  150SAPE  H17X16601   6.550   1.032   4.352  0.5549  1.8706 -0.3418
  150SAPE  H17Y16602   6.541   1.124   4.206 -0.3976 -0.8365 -0.7293
  150SAPE  C31816603   6.430   0.933   4.198 -0.1243 -1.2093 -0.3112
  150SAPE  H18X16604   6.387   0.858   4.269  2.6835 -1.1067  1.6733
  150SAPE  H18Y16605   6.510   0.889   4.134  1.1377  1.4223 -0.6549
  150SAPE  H18Z16606   6.343   0.950   4.132  0.8943 -1.5949 -1.8086
  151SAPE     N16607   4.632   0.613   6.679 -0.4450 -0.5941 -0.6869
  151SAPE   HN116608   4.578   0.628   6.591 -0.7466 -1.7019 -0.6985
  151SAPE   HN216609   4.667   0.700   6.724 -1.1141 -0.9545  0.5965
  151SAPE   HN316610   4.717   0.555   6.670 -0.6905 -1.2066  0.6773
  151SAPE   C1216611   4.540   0.544   6.780  0.8431  0.2446 -0.0308
  151SAPE  H12A16612   4.487   0.622   6.839  1.9400  0.8387  0.1912
  151SAPE  H12B16613   4.608   0.487   6.846  1.5977 -0.8674 -1.6982
  151SAPE   C1116614   4.425   0.459   6.706 -0.0493  0.5372  0.5456
  151SAPE  H11A16615   4.345   0.529   6.673 -1.0337 -1.6998 -2.1906
  151SAPE  H11B16616   4.382   0.401   6.791  2.5144  1.0558  2.3208
  151SAPE     P16617   4.563   0.249   6.603  0.0789 -0.2370  0.1963
  151SAPE   O1316618   4.703   0.288   6.584 -0.1056  0.2758 -0.0756
  151SAPE   O1416619   4.537   0.181   6.734  0.3144  0.5134  0.1503
  151SAPE   O1216620   4.470   0.383   6.592  0.6475 -0.3315 -0.0661
  151SAPE   O1116621   4.523   0.159   6.492 -0.3407 -0.4167  0.0270
  151SAPE    C116622   4.399   0.094   6.485  0.0394  0.1347  0.4555
  151SAPE    HA16623   4.393   0.020   6.569 -0.8592 -1.5968 -1.0521
  151SAPE    HB16624   4.311   0.161   6.502 -0.8316 -0.9024  0.1739
  151SAPE    C216625   4.388   0.024   6.343  0.4930  0.4106  0.4146
  151SAPE    HS16626   4.487  -0.021   6.320 -0.0130 -0.7605  0.4981
  151SAPE   O2116627   4.321   0.116   6.252 -0.7443 -0.0016 -0.9770
  151SAPE   C2116628   4.377   0.113   6.129 -0.4270 -0.1222 -0.5533
  151SAPE   O2216629   4.459   0.023   6.101 -0.2510 -0.4152  1.2333
  151SAPE   C2216630   4.331   0.228   6.046 -0.0453  0.6625  0.0655
  151SAPE   H2R16631   4.221   0.217   6.043 -0.0669  0.6885  0.6483
  151SAPE   H2S16632   4.346   0.327   6.093  1.8236  0.4327  0.0600
  151SAPE    C316633   4.299  -0.101   6.360 -0.1710 -0.5386  0.6137
  151SAPE    HX16634   4.209  -0.071   6.418 -0.7705 -2.0815  0.5391
  151SAPE    HY16635   4.352  -0.177   6.421  0.0365 -0.8101  0.1000
  151SAPE   O3116636   4.270  -0.154   6.230 -0.2156  0.6780  0.4090
  151SAPE   C3116637   4.146  -0.180   6.197  0.0097  0.4807 -0.0282
  151SAPE   O3216638   4.046  -0.161   6.267  0.0357  0.1982  0.4261
  151SAPE   C3216639   4.148  -0.254   6.060  0.5635 -0.2945  0.0214
  151SAPE   H2X16640   4.046  -0.298   6.059  0.1578  0.4914  2.1342
  151SAPE   H2Y16641   4.217  -0.341   6.065 -1.6437 -2.1531 -0.3041
  151SAPE   C2316642   4.378   0.222   5.894  0.4541  0.2531 -0.4251
  151SAPE   H3R16643   4.341   0.122   5.860 -2.6223  1.1526 -0.0201
  151SAPE   H3S16644   4.489   0.226   5.893  0.4097  2.7140 -1.6380
  151SAPE   C2416645   4.324   0.351   5.822  1.0470  0.9311  0.0356
  151SAPE   H4R16646   4.358   0.438   5.882  2.2603  0.2674  0.3409
  151SAPE   H4S16647   4.213   0.353   5.831  1.0111 -2.8910  3.7351
  151SAPE   C2516648   4.382   0.357   5.682 -0.2568  0.4443  0.4827
  151SAPE   H5R16649   4.491   0.363   5.665 -0.4782  0.1431 -1.2452
  151SAPE   C2616650   4.310   0.344   5.568 -0.0078 -0.3839 -0.5874
  151SAPE   H6R16651   4.371   0.356   5.477  1.1848  0.0819  0.2356
  151SAPE   C2716652   4.160   0.336   5.545  0.0641  0.2728 -0.2401
  151SAPE   H7R16653   4.110   0.285   5.630 -0.4268  0.8594 -0.1705
  151SAPE   H7S16654   4.132   0.274   5.458  3.2203 -0.3106 -0.9559
  151SAPE   C2816655   4.108   0.479   5.532  0.3171 -0.0180 -0.4815
  151SAPE   H8R16656   4.080   0.525   5.628  2.1734 -1.7798  0.9941
  151SAPE   C2916657   4.087   0.547   5.418 -0.5647 -0.0988 -0.2500
  151SAPE   H9R16658   4.052   0.651   5.420  1.5871  0.6701  0.5112
  151SAPE  C21016659   4.123   0.493   5.278  0.9485 -1.0236  0.3656
  151SAPE  H10R16660   4.064   0.552   5.205 -0.1965  1.4300  3.0767
  151SAPE  H10S16661   4.092   0.387   5.260  1.3378 -0.9483 -0.8193
  151SAPE  C21116662   4.263   0.502   5.233 -0.9011  0.6836 -0.2531
  151SAPE  H11R16663   4.328   0.570   5.290  1.0098  0.6941 -2.2928
  151SAPE  C21216664   4.314   0.424   5.132 -0.6946 -0.1742 -1.0130
  151SAPE  H12R16665   4.423   0.429   5.123 -0.5774 -0.4514  0.1205
  151SAPE  C21316666   4.258   0.317   5.041 -0.9719  0.1927  0.1942
  151SAPE  H13R16667   4.155   0.349   5.015 -1.0464 -0.0642  0.1742
  151SAPE  H13S16668   4.239   0.217   5.087 -0.9992 -2.0410 -4.2080
  151SAPE  C21416669   4.346   0.318   4.925 -0.6694  0.6787  0.0858
  151SAPE  H14R16670   4.421   0.237   4.931  0.4044  1.6012 -0.4834
  151SAPE  C21516671   4.343   0.390   4.810 -0.2376  0.5529  0.2796
  151SAPE  H15R16672   4.428   0.380   4.741  1.0963 -0.2260  1.9301
  151SAPE  C21616673   4.242   0.499   4.772  0.8072  1.5063  0.4916
  151SAPE  H16R16674   4.291   0.569   4.702 -2.2638  1.3041 -2.1226
  151SAPE  H16S16675   4.190   0.552   4.855 -1.1755  1.2028 -0.5024
  151SAPE  C21716676   4.127   0.428   4.690  0.6759  0.2017 -0.1351
  151SAPE  H17R16677   4.033   0.488   4.694 -0.4343 -1.5365  1.8835
  151SAPE  H17S16678   4.092   0.336   4.742 -0.7638  0.4885 -0.5433
  151SAPE  C21816679   4.158   0.400   4.542  1.2274  0.6251 -0.3798
  151SAPE  H18R16680   4.265   0.384   4.519  1.1537 -1.2978  0.3822
  151SAPE  H18S16681   4.130   0.482   4.473  2.1109 -0.6434 -2.3257
  151SAPE  C21916682   4.073   0.277   4.493 -0.6909  0.1231  0.2376
  151SAPE  H19R16683   4.030   0.218   4.577 -0.1075  1.3894  1.4826
  151SAPE  H19S16684   4.146   0.211   4.441  1.0969  2.7530 -0.8166
  151SAPE  C22016685   3.962   0.315   4.395  0.4521  0.1059 -0.1936
  151SAPE  H20R16686   3.899   0.227   4.369 -0.6506  0.3705  1.4075
  151SAPE  H20S16687   4.001   0.362   4.302  0.3921 -0.8335 -0.7033
  151SAPE  H20T16688   3.886   0.388   4.430  0.0241 -0.4478  0.0528
  151SAPE   C3316689   4.188  -0.159   5.942 -1.1734  0.0436 -0.4744
  151SAPE   H3X16690   4.286  -0.116   5.972 -0.2317 -0.6224 -2.4507
  151SAPE   H3Y16691   4.121  -0.070   5.953 -1.3706 -0.4590  5.0224
  151SAPE   C3416692   4.187  -0.237   5.805 -0.1879 -0.4031  0.1291
  151SAPE   H4X16693   4.081  -0.266   5.788 -0.4516 -0.3041  1.5485
  151SAPE   H4Y16694   4.254  -0.326   5.805 -0.5896 -0.7601 -1.7975
  151SAPE   C3516695   4.229  -0.142   5.693  0.4018 -0.1046 -0.4411
  151SAPE   H5X16696   4.339  -0.132   5.687  0.1692  4.7311 -0.8926
  151SAPE   H5Y16697   4.181  -0.044   5.716  0.6968 -0.0406 -0.1035
  151SAPE   C3616698   4.178  -0.196   5.559 -0.1054  0.4095 -0.0710
  151SAPE   H6X16699   4.068  -0.204   5.568  0.0751 -2.6064  0.5071
  151SAPE   H6Y16700   4.210  -0.301   5.544  0.6337  0.5593  0.3646
  151SAPE   C3716701   4.212  -0.112   5.434  0.1595  0.6643 -0.5825
  151SAPE   H7X16702   4.315  -0.069   5.428  1.1021 -0.7907  2.8734
  151SAPE   H7Y16703   4.146  -0.023   5.434  0.0113  0.5542 -0.0372
  151SAPE   C3816704   4.173  -0.178   5.299 -0.8365 -0.2338  0.7093
  151SAPE   H8X16705   4.067  -0.213   5.302 -1.0830  0.5257  1.3505
  151SAPE   H8Y16706   4.239  -0.264   5.277 -0.9290  0.0519 -0.7575
  151SAPE   C3916707   4.179  -0.078   5.183 -0.8123 -0.1246 -0.0796
  151SAPE   H9X16708   4.282  -0.046   5.158 -0.0025 -0.5976  2.3561
  151SAPE   H9Y16709   4.113   0.008   5.210 -0.5460 -0.1443  0.6559
  151SAPE  C31016710   4.111  -0.145   5.061 -0.5824  0.0242 -0.2258
  151SAPE  H10X16711   4.006  -0.151   5.097 -0.1687 -2.2438  0.7824
  151SAPE  H10Y16712   4.154  -0.246   5.039 -0.7176  0.1634 -1.1659
  151SAPE  C31116713   4.124  -0.059   4.941 -0.2765 -0.3713 -0.3519
  151SAPE  H11X16714   4.088   0.046   4.953  3.0170  0.8892 -0.4373
  151SAPE  H11Y16715   4.069  -0.107   4.857 -0.6692 -0.0761 -0.2677
  151SAPE  C31216716   4.263  -0.053   4.875 -0.5076 -0.0174  0.2953
  151SAPE  H12X16717   4.305  -0.155   4.862  0.8716  0.6761 -0.9816
  151SAPE  H12Y16718   4.328   0.014   4.935  0.4165  1.8446 -2.5970
  151SAPE  C31316719   4.266   0.006   4.731 -0.1789 -0.6175  0.3688
  151SAPE  H13X16720   4.227   0.110   4.739 -0.1396 -0.5859  0.1415
  151SAPE  H13Y16721   4.209  -0.054   4.657 -0.2689  0.1535 -0.1953
  151SAPE  C31416722   4.404   0.012   4.675  0.0150 -0.0869  0.5243
  151SAPE  H14X16723   4.447  -0.090   4.678  2.2329  0.7670 -0.2642
  151SAPE  H14Y16724   4.468   0.071   4.744  1.3781 -1.1192  0.1710
  151SAPE  C31516725   4.409   0.067   4.532 -0.3298 -0.0405  0.0674
  151SAPE  H15X16726   4.349   0.160   4.531  1.1168  0.9306  0.3515
  151SAPE  H15Y16727   4.373  -0.002   4.453 -0.7437 -0.8122  0.9191
  151SAPE  C31616728   4.554   0.093   4.481  0.2344 -0.1892  0.4247
  151SAPE  H16X16729   4.619   0.002   4.476 -1.7114 -1.5948 -3.5672
  151SAPE  H16Y16730   4.597   0.169   4.549 -0.5235  1.2146 -0.6355
  151SAPE  C31716731   4.542   0.146   4.340 -0.7451  0.0671  0.1972
  151SAPE  H17X16732   4.495   0.246   4.343 -0.3505  0.3143 -0.9886
  151SAPE  H17Y16733   4.479   0.076   4.281  2.2548 -1.3142 -1.6611
  151SAPE  C31816734   4.673   0.150   4.267 -0.8795 -0.0021  0.1735
  151SAPE  H18X16735   4.660   0.186   4.163 -2.2152  1.2410  0.7408
  151SAPE  H18Y16736   4.718   0.049   4.260  0.8967  0.8321 -0.8835
  151SAPE  H18Z16737   4.746   0.223   4.308 -0.1873 -0.7996  0.3854
  152SAPE     N16738   1.620   6.965   6.699  0.3993 -0.3152 -0.6359
  152SAPE   HN116739   1.588   7.064   6.703 -0.0918 -0.4418 -1.2019
  152SAPE   HN216740   1.544   6.904   6.735 -2.2527  2.0599 -1.8070
  152SAPE   HN316741   1.697   6.959   6.768  1.6330  0.4078 -1.9049
  152SAPE   C1216742   1.674   6.919   6.567  0.1894 -0.3720 -0.1825
  152SAPE  H12A16743   1.769   6.861   6.577  0.1849 -0.7449 -1.9976
  152SAPE  H12B16744   1.697   7.011   6.509  2.4521 -0.7712 -0.0366
  152SAPE   C1116745   1.575   6.834   6.475 -0.3086  0.2925  0.4760
  152SAPE  H11A16746   1.567   6.729   6.509  0.2736  0.1026  0.0515
  152SAPE  H11B16747   1.619   6.835   6.373 -0.6373  1.0174  0.3380
  152SAPE     P16748   1.365   6.941   6.347 -0.4282 -0.0836 -0.2980
  152SAPE   O1316749   1.338   6.819   6.262  0.3683 -0.6413 -0.2622
  152SAPE   O1416750   1.245   7.016   6.394 -0.3313  0.0165 -0.1045
  152SAPE   O1216751   1.452   6.903   6.478 -0.2605  0.0235  0.0967
  152SAPE   O1116752   1.459   7.046   6.265 -0.2277  0.0397  0.4811
  152SAPE    C116753   1.413   7.167   6.212  0.1984  0.3742 -0.2938
  152SAPE    HA16754   1.367   7.242   6.280  2.4689  2.1209 -0.5806
  152SAPE    HB16755   1.501   7.218   6.170  0.9833  3.1157  4.0201
  152SAPE    C216756   1.320   7.148   6.087 -0.9524  0.3098  0.0420
  152SAPE    HS16757   1.228   7.109   6.134 -0.3623 -1.1270  0.0458
  152SAPE   O2116758   1.395   7.061   5.998 -0.4791 -0.4211 -0.4414
  152SAPE   C2116759   1.311   6.976   5.938 -1.0646  0.2947  0.6470
  152SAPE   O2216760   1.200   6.939   5.977 -0.2202  0.2228  0.2477
  152SAPE   C2216761   1.395   6.918   5.814  0.1897 -0.5516 -1.1952
  152SAPE   H2R16762   1.396   6.995   5.733 -0.3361 -0.4493 -1.1030
  152SAPE   H2S16763   1.491   6.891   5.863 -1.1650 -0.7611  1.5178
  152SAPE    C316764   1.294   7.286   6.020  1.4414 -0.2577  0.2645
  152SAPE    HX16765   1.388   7.319   5.971  0.1623  3.6977  0.1414
  152SAPE    HY16766   1.271   7.358   6.100  2.7956 -0.2424  0.6637
  152SAPE   O3116767   1.186   7.260   5.924 -0.3112  0.6027  0.4562
  152SAPE   C3116768   1.074   7.338   5.928 -0.4568  0.3309 -0.0731
  152SAPE   O3216769   1.053   7.426   6.007  0.2756  0.1659  0.2873
  152SAPE   C3216770   0.971   7.293   5.815  0.3119  0.1010  0.3918
  152SAPE   H2X16771   0.940   7.192   5.849  0.1092 -0.5317 -1.5673
  152SAPE   H2Y16772   1.041   7.276   5.731  0.4405 -1.5694  0.8068
  152SAPE   C2316773   1.318   6.801   5.760 -0.2240 -0.4136  0.1455
  152SAPE   H3R16774   1.218   6.831   5.721  0.6911  1.7212 -0.6795
  152SAPE   H3S16775   1.307   6.725   5.840 -0.8639  1.9009  2.3654
  152SAPE   C2416776   1.391   6.735   5.636  0.2801  0.7203  0.1579
  152SAPE   H4R16777   1.382   6.810   5.554  3.7828  0.2790 -0.7616
  152SAPE   H4S16778   1.318   6.658   5.604  0.2879  0.0608  1.6574
  152SAPE   C2516779   1.526   6.673   5.660 -0.0264  0.0860  0.9307
  152SAPE   H5R16780   1.597   6.729   5.722  2.6014 -2.0828  0.0541
  152SAPE   C2616781   1.572   6.554   5.614 -0.5187 -0.0394 -0.3368
  152SAPE   H6R16782   1.680   6.537   5.627  0.3591  3.2727 -1.9560
  152SAPE   C2716783   1.497   6.441   5.537  0.0636  0.7608 -0.7095
  152SAPE   H7R16784   1.389   6.442   5.565 -0.0392  0.8198 -1.1121
  152SAPE   H7S16785   1.542   6.344   5.566  0.8773  1.5055  0.5933
  152SAPE   C2816786   1.514   6.455   5.389  0.0315 -1.0812 -0.5087
  152SAPE   H8R16787   1.572   6.542   5.353 -2.6301  1.1066  0.1170
  152SAPE   C2916788   1.460   6.378   5.295  0.2557 -0.1378 -0.4690
  152SAPE   H9R16789   1.481   6.409   5.192 -0.7188  0.4074 -0.5199
  152SAPE  C21016790   1.376   6.246   5.321  0.4404  0.6375 -0.0510
  152SAPE  H10R16791   1.343   6.229   5.426 -0.2078 -3.3456 -0.7589
  152SAPE  H10S16792   1.443   6.159   5.306  0.8982  1.0799 -0.6031
  152SAPE  C21116793   1.260   6.228   5.222 -0.1435  0.0734 -0.1586
  152SAPE  H11R16794   1.159   6.227   5.266  0.1140 -2.9397  0.6077
  152SAPE  C21216795   1.279   6.216   5.088  0.6835  0.0284  0.7659
  152SAPE  H12R16796   1.181   6.203   5.039  1.2970  0.5700 -0.6671
  152SAPE  C21316797   1.409   6.198   5.005  0.1880 -0.8895 -0.2219
  152SAPE  H13R16798   1.474   6.277   5.047 -2.7472  0.8298  1.4551
  152SAPE  H13S16799   1.413   6.228   4.898 -0.7449  0.5297  0.1138
  152SAPE  C21416800   1.447   6.053   4.997 -0.1544 -0.3609 -0.2866
  152SAPE  H14R16801   1.375   5.992   4.941  0.3316 -0.4166 -0.8596
  152SAPE  C21516802   1.549   5.987   5.055 -0.2683 -0.1251 -0.7405
  152SAPE  H15R16803   1.566   5.879   5.043  2.4348  0.2527 -0.8888
  152SAPE  C21616804   1.656   6.055   5.141  0.2815  0.4224  0.2164
  152SAPE  H16R16805   1.633   6.164   5.144 -3.1464 -0.2263  2.0415
  152SAPE  H16S16806   1.755   6.030   5.096 -0.2737 -1.6836  0.0881
  152SAPE  C21716807   1.669   5.999   5.278 -0.6861 -0.8980 -0.3962
  152SAPE  H17R16808   1.702   5.893   5.282  1.9979 -0.1387 -0.5456
  152SAPE  H17S16809   1.570   6.004   5.329 -1.8034 -1.3935 -2.4463
  152SAPE  C21816810   1.780   6.071   5.367  0.6044 -0.4703  0.0609
  152SAPE  H18R16811   1.753   6.045   5.472  3.1821  1.6302  1.3801
  152SAPE  H18S16812   1.771   6.179   5.345 -1.0956 -0.7952 -0.9778
  152SAPE  C21916813   1.926   6.026   5.364  0.1449 -0.7623 -0.1939
  152SAPE  H19R16814   1.979   6.064   5.275  2.9759 -1.4209  1.0929
  152SAPE  H19S16815   1.933   5.915   5.360  1.4647 -0.6492 -3.5424
  152SAPE  C22016816   1.994   6.079   5.493  1.0019 -0.5590  0.1230
  152SAPE  H20R16817   1.994   6.189   5.500  1.5391 -0.4806 -0.8363
  152SAPE  H20S16818   2.103   6.054   5.498  1.3041  0.6694 -0.0626
  152SAPE  H20T16819   1.940   6.040   5.582 -3.0406 -0.9094 -2.2561
  152SAPE   C3316820   0.853   7.388   5.783 -0.2209 -0.0838  0.4539
  152SAPE   H3X16821   0.798   7.422   5.874 -1.1708  1.0907 -0.5209
  152SAPE   H3Y16822   0.773   7.337   5.725  0.1753  0.8321 -0.9503
  152SAPE   C3416823   0.889   7.501   5.685  0.2460 -0.1406 -0.1086
  152SAPE   H4X16824   0.959   7.572   5.734  0.9318  0.1429 -1.4413
  152SAPE   H4Y16825   0.789   7.543   5.659 -0.0790 -1.0264 -0.3275
  152SAPE   C3516826   0.961   7.463   5.547  1.0039 -0.1700  0.5342
  152SAPE   H5X16827   0.904   7.376   5.507  0.3966  1.2794 -1.9280
  152SAPE   H5Y16828   1.068   7.436   5.566  1.1444  0.7627  1.1324
  152SAPE   C3616829   0.947   7.563   5.436  0.3814 -0.4697 -0.1324
  152SAPE   H6X16830   1.002   7.660   5.439 -1.5831  0.8903 -3.2259
  152SAPE   H6Y16831   0.839   7.588   5.432  0.0618 -1.8983 -1.0842
  152SAPE   C3716832   0.956   7.509   5.295 -0.5586 -0.2113  0.3568
  152SAPE   H7X16833   0.904   7.411   5.294 -0.9187 -0.0660 -2.4667
  152SAPE   H7Y16834   1.062   7.489   5.269  0.0505  2.6176  0.3558
  152SAPE   C3816835   0.897   7.590   5.178 -0.0596  0.4729 -0.4296
  152SAPE   H8X16836   0.943   7.691   5.169  1.1730  0.1162  1.4944
  152SAPE   H8Y16837   0.789   7.612   5.196 -0.5240 -1.2878 -0.9189
  152SAPE   C3916838   0.921   7.525   5.042  0.3317 -0.0414  1.4430
  152SAPE   H9X16839   0.878   7.423   5.039  0.0998  0.0770  0.1903
  152SAPE   H9Y16840   1.029   7.506   5.022  0.3063 -0.0498  1.3159
  152SAPE  C31016841   0.870   7.594   4.914 -0.8135  0.2307  0.0343
  152SAPE  H10X16842   0.918   7.546   4.825  0.2450 -1.4175  1.4316
  152SAPE  H10Y16843   0.892   7.702   4.923  1.7857 -0.2670  0.3445
  152SAPE  C31116844   0.716   7.580   4.889 -0.7378 -0.6446 -0.1231
  152SAPE  H11X16845   0.666   7.624   4.978  0.0922  1.8254 -0.7809
  152SAPE  H11Y16846   0.693   7.472   4.885  0.3931 -0.8648 -1.6606
  152SAPE  C31216847   0.659   7.648   4.759  0.6870  0.3035  0.4588
  152SAPE  H12X16848   0.676   7.758   4.755 -1.5308  0.7159  0.8553
  152SAPE  H12Y16849   0.549   7.629   4.757  1.0149 -1.7836 -0.4440
  152SAPE  C31316850   0.719   7.576   4.633  0.0336 -0.0014 -0.2974
  152SAPE  H13X16851   0.739   7.469   4.654 -3.1865 -0.8658 -1.1917
  152SAPE  H13Y16852   0.826   7.606   4.619 -0.1678  1.4977  1.1001
  152SAPE  C31416853   0.642   7.602   4.503  0.2703 -0.0823 -0.4594
  152SAPE  H14X16854   0.539   7.559   4.503 -0.2324  1.0554 -0.0410
  152SAPE  H14Y16855   0.691   7.556   4.415  1.2261  1.4245 -0.7490
  152SAPE  C31516856   0.633   7.750   4.470  0.4051  0.1063  0.0677
  152SAPE  H15X16857   0.561   7.794   4.543  0.1381 -0.3763  0.0992
  152SAPE  H15Y16858   0.583   7.763   4.372 -0.2193  0.2886  0.3999
  152SAPE  C31616859   0.766   7.827   4.468  0.5419  0.1710 -0.3109
  152SAPE  H16X16860   0.825   7.808   4.560 -0.6028 -2.7775 -0.0763
  152SAPE  H16Y16861   0.754   7.935   4.444  1.2884  0.6187  1.2308
  152SAPE  C31716862   0.862   7.777   4.359 -1.0187  1.0614 -1.1958
  152SAPE  H17X16863   0.871   7.667   4.373  1.5173  1.5015  1.7991
  152SAPE  H17Y16864   0.963   7.821   4.374 -1.3441  1.1430  1.0555
  152SAPE  C31816865   0.819   7.801   4.215  0.5543 -0.3718  0.3174
  152SAPE  H18X16866   0.881   7.743   4.143 -0.4161 -2.2144  0.9066
  152SAPE  H18Y16867   0.814   7.910   4.193 -2.0557 -0.2830  1.0349
  152SAPE  H18Z16868   0.715   7.764   4.207 -0.1814  1.2610  1.6785
  153SAPE     N16869   0.212   6.132   6.650 -0.3371  0.0253  0.3229
  153SAPE   HN116870   0.201   6.223   6.601  0.8123  0.5939  1.0914
  153SAPE   HN216871   0.215   6.145   6.753 -3.2876 -1.8009  0.7618
  153SAPE   HN316872   0.306   6.108   6.611 -0.3847  1.5046 -0.7574
  153SAPE   C1216873   0.106   6.046   6.598  0.2608 -0.2027 -0.6969
  153SAPE  H12A16874   0.030   6.024   6.676  2.0901  1.4853  1.7155
  153SAPE  H12B16875   0.153   5.950   6.568  0.2446 -0.7447  0.8872
  153SAPE   C1116876   0.038   6.100   6.469  0.7895  0.3358 -0.0702
  153SAPE  H11A16877  -0.030   6.185   6.491 -0.2029 -0.6050  0.6210
  153SAPE  H11B16878  -0.032   6.021   6.434 -1.0318  2.1986 -0.8392
  153SAPE     P16879   0.226   6.041   6.291 -0.1113 -0.0300 -0.0656
  153SAPE   O1316880   0.339   6.013   6.383 -0.4066 -0.2254  0.3745
  153SAPE   O1416881   0.144   5.922   6.257  0.2816  0.4277 -0.0359
  153SAPE   O1216882   0.127   6.141   6.366 -0.0352 -0.0037  0.2105
  153SAPE   O1116883   0.287   6.124   6.170  0.3007 -0.0140  0.1631
  153SAPE    C116884   0.205   6.145   6.054 -0.0962 -0.8887 -1.0559
  153SAPE    HA16885   0.115   6.080   6.057 -1.2635  0.6992  0.3108
  153SAPE    HB16886   0.172   6.249   6.075  0.1825 -1.0495  0.2595
  153SAPE    C216887   0.278   6.140   5.913 -0.0622 -0.7318  0.0584
  153SAPE    HS16888   0.230   6.206   5.838 -0.3924  0.5686  1.3551
  153SAPE   O2116889   0.293   6.004   5.885  0.4893  0.3095  0.7041
  153SAPE   C2116890   0.184   5.958   5.837  0.0788  0.7845 -0.2409
  153SAPE   O2216891   0.091   6.023   5.792 -0.0184  0.1081 -0.1853
  153SAPE   C2216892   0.197   5.805   5.833 -0.0885  0.0347 -0.5554
  153SAPE   H2R16893   0.270   5.777   5.913 -0.2272  0.4340 -0.2851
  153SAPE   H2S16894   0.102   5.757   5.864 -0.2833  0.5649 -0.3115
  153SAPE    C316895   0.422   6.215   5.933  0.9184  0.6814 -0.9123
  153SAPE    HX16896   0.468   6.150   6.011 -2.7885 -0.8713  0.2028
  153SAPE    HY16897   0.410   6.317   5.978  2.9829 -0.2289  2.0163
  153SAPE   O3116898   0.498   6.231   5.813 -0.4354 -0.5963 -0.3051
  153SAPE   C3116899   0.563   6.134   5.759  0.3978  0.2480  0.3336
  153SAPE   O3216900   0.598   6.026   5.811  0.4185 -0.0269  0.0787
  153SAPE   C3216901   0.598   6.167   5.615 -0.3609 -0.1680  0.1370
  153SAPE   H2X16902   0.669   6.252   5.621  1.3812 -1.5972  0.7726
  153SAPE   H2Y16903   0.505   6.194   5.562  0.0495 -1.5246 -1.3548
  153SAPE   C2316904   0.257   5.743   5.701 -0.5649  0.3958 -0.5203
  153SAPE   H3R16905   0.258   5.632   5.708  0.6964  0.4632  0.7968
  153SAPE   H3S16906   0.357   5.788   5.687 -0.6352  0.3619 -1.1629
  153SAPE   C2416907   0.180   5.779   5.572 -0.9037 -0.1520  0.5697
  153SAPE   H4R16908   0.213   5.882   5.547  0.5627 -0.7118  0.1383
  153SAPE   H4S16909   0.071   5.775   5.596 -1.2015  1.0665 -0.4239
  153SAPE   C2516910   0.205   5.670   5.464  0.1982  0.3286 -0.1791
  153SAPE   H5R16911   0.272   5.594   5.506  2.7160  2.6073  0.1577
  153SAPE   C2616912   0.175   5.682   5.338 -0.2067 -0.2629  0.3400
  153SAPE   H6R16913   0.199   5.591   5.279 -0.4842  0.3333 -0.7254
  153SAPE   C2716914   0.086   5.783   5.268 -0.0560  0.7509 -0.2759
  153SAPE   H7R16915   0.141   5.855   5.204 -0.9875 -1.1231 -3.4239
  153SAPE   H7S16916   0.024   5.841   5.340 -0.2730 -2.3497  2.2772
  153SAPE   C2816917  -0.008   5.712   5.170  0.7564  0.0089 -0.0515
  153SAPE   H8R16918   0.032   5.621   5.123  1.8928  0.4764 -0.0200
  153SAPE   C2916919  -0.120   5.759   5.120  0.0636  0.5689  0.6197
  153SAPE   H9R16920  -0.175   5.709   5.039 -3.0361  0.6032  2.5604
  153SAPE  C21016921  -0.188   5.883   5.167  0.3579 -0.6264 -0.2623
  153SAPE  H10R16922  -0.112   5.964   5.172  1.3545 -1.5388 -0.3301
  153SAPE  H10S16923  -0.216   5.868   5.273  2.0751 -2.6793 -0.0373
  153SAPE  C21116924  -0.306   5.925   5.085  0.4500 -0.7260  0.3485
  153SAPE  H11R16925  -0.316   5.885   4.982  2.1173  3.1355 -1.5111
  153SAPE  C21216926  -0.395   6.025   5.114 -0.5518 -0.0011  0.4808
  153SAPE  H12R16927  -0.457   6.061   5.031  0.8137  0.2047 -0.4795
  153SAPE  C21316928  -0.386   6.097   5.245 -0.5673  0.7200 -0.0395
  153SAPE  H13R16929  -0.299   6.164   5.258 -1.1898  1.4747  0.3052
  153SAPE  H13S16930  -0.372   6.016   5.321  0.3860  1.6007  0.7464
  153SAPE  C21416931  -0.512   6.158   5.293  0.8098 -0.6429 -0.0797
  153SAPE  H14R16932  -0.600   6.106   5.253 -0.6793  1.4924  0.2796
  153SAPE  C21516933  -0.519   6.271   5.359 -0.4759  0.5376 -1.2608
  153SAPE  H15R16934  -0.622   6.296   5.388 -0.2513 -0.2829  0.3302
  153SAPE  C21616935  -0.404   6.357   5.402  0.8832  0.1324  0.0771
  153SAPE  H16R16936  -0.322   6.357   5.327 -0.1918  1.7918 -1.1665
  153SAPE  H16S16937  -0.359   6.324   5.498  0.2345  0.2148  0.4106
  153SAPE  C21716938  -0.451   6.501   5.418  0.6499 -0.2562 -0.2317
  153SAPE  H17R16939  -0.367   6.553   5.469  1.5096  2.1385 -3.7866
  153SAPE  H17S16940  -0.536   6.511   5.490  0.0355 -2.0365 -0.6625
  153SAPE  C21816941  -0.479   6.573   5.283  0.0673 -0.1537 -0.0271
  153SAPE  H18R16942  -0.583   6.541   5.261 -0.1538 -0.0983  0.9089
  153SAPE  H18S16943  -0.408   6.534   5.206  1.9192  0.4698  1.2798
  153SAPE  C21916944  -0.462   6.726   5.295 -0.2599 -0.1183 -0.0339
  153SAPE  H19R16945  -0.373   6.755   5.355  0.7403 -0.3614 -1.3619
  153SAPE  H19S16946  -0.549   6.758   5.356 -2.0604  0.0113 -2.5023
  153SAPE  C22016947  -0.469   6.806   5.164  0.2647 -0.4601  0.3716
  153SAPE  H20R16948  -0.390   6.778   5.091 -2.3344  0.1958 -2.9354
  153SAPE  H20S16949  -0.435   6.910   5.186 -0.2281 -0.5677  1.7089
  153SAPE  H20T16950  -0.570   6.804   5.118 -0.1832 -1.6534  1.3650
  153SAPE   C3316951   0.663   6.045   5.545  0.1969 -0.0972  0.9297
  153SAPE   H3X16952   0.596   5.957   5.555 -0.2157  0.0503 -0.3957
  153SAPE   H3Y16953   0.764   6.031   5.589  2.2112 -0.2727 -3.2669
  153SAPE   C3416954   0.681   6.068   5.390 -0.5684  0.3535 -0.0964
  153SAPE   H4X16955   0.724   5.972   5.353  2.1891  1.0027  1.1510
  153SAPE   H4Y16956   0.753   6.152   5.376 -2.0419  2.0172  1.8227
  153SAPE   C3516957   0.550   6.096   5.316  0.3115 -0.1915 -0.6071
  153SAPE   H5X16958   0.490   6.184   5.348  0.2902 -0.0514 -1.0256
  153SAPE   H5Y16959   0.502   6.006   5.361  0.4862 -0.2411 -0.5178
  153SAPE   C3616960   0.548   6.091   5.162 -0.0748  0.3653 -0.8302
  153SAPE   H6X16961   0.617   6.010   5.128  0.5563  0.0789  1.0351
  153SAPE   H6Y16962   0.585   6.190   5.127 -0.2267  2.3240  3.8106
  153SAPE   C3716963   0.410   6.049   5.106  0.0157  0.3465  0.3252
  153SAPE   H7X16964   0.344   6.137   5.126  0.1908  0.4941  0.2637
  153SAPE   H7Y16965   0.366   5.961   5.157 -1.0123 -0.2461 -1.4957
  153SAPE   C3816966   0.415   6.009   4.954  0.5569 -0.1112  0.1178
  153SAPE   H8X16967   0.492   5.931   4.938  0.5341  0.0988 -1.0915
  153SAPE   H8Y16968   0.444   6.101   4.899  2.3758 -0.4198  0.4864
  153SAPE   C3916969   0.279   5.976   4.904  0.1575  0.1625 -0.0331
  153SAPE   H9X16970   0.218   6.069   4.909 -0.9152 -0.5858  1.5541
  153SAPE   H9Y16971   0.228   5.899   4.965 -1.5126  0.9627 -0.3588
  153SAPE  C31016972   0.288   5.913   4.766 -0.5742 -0.2339  0.4250
  153SAPE  H10X16973   0.380   5.853   4.780 -0.4038 -0.2048 -0.4991
  153SAPE  H10Y16974   0.305   6.002   4.701 -0.4166 -0.5374  0.0415
  153SAPE  C31116975   0.179   5.817   4.718 -0.2782  0.8225  0.1353
  153SAPE  H11X16976   0.205   5.768   4.621 -2.6444  1.8415 -1.1072
  153SAPE  H11Y16977   0.093   5.878   4.681  0.2734 -0.8461 -4.7168
  153SAPE  C31216978   0.152   5.700   4.813  0.5978  0.4707  1.0228
  153SAPE  H12X16979   0.103   5.727   4.909 -0.0906 -0.2928  0.8975
  153SAPE  H12Y16980   0.244   5.645   4.842 -1.4857 -3.7908  0.3262
  153SAPE  C31316981   0.063   5.592   4.738 -0.4683 -0.0672  0.4423
  153SAPE  H13X16982   0.110   5.545   4.649 -2.1057  0.9080 -1.0023
  153SAPE  H13Y16983  -0.024   5.648   4.699  2.1007  1.3548 -3.8564
  153SAPE  C31416984   0.022   5.479   4.833 -0.2470  0.2723  0.3755
  153SAPE  H14X16985  -0.036   5.522   4.917 -0.6017 -0.7068  0.6479
  153SAPE  H14Y16986   0.106   5.430   4.886  0.9372 -0.7199 -2.2067
  153SAPE  C31516987  -0.066   5.374   4.741 -0.3877 -0.6110 -0.2828
  153SAPE  H15X16988  -0.002   5.327   4.663 -2.1659 -1.5641 -1.2136
  153SAPE  H15Y16989  -0.148   5.423   4.686 -1.0785 -0.6524  0.6915
  153SAPE  C31616990  -0.138   5.273   4.824 -0.2950 -0.2746  0.3679
  153SAPE  H16X16991  -0.216   5.332   4.878 -1.3929 -1.5056  0.1627
  153SAPE  H16Y16992  -0.084   5.226   4.909  2.5841 -0.7574 -1.5953
  153SAPE  C31716993  -0.189   5.164   4.737 -0.3453  0.1924  0.3945
  153SAPE  H17X16994  -0.111   5.106   4.683 -1.7923 -0.7101 -0.7955
  153SAPE  H17Y16995  -0.254   5.216   4.663  0.3732  0.5354 -0.0061
  153SAPE  C31816996  -0.272   5.065   4.817 -0.0413  1.4905  0.4096
  153SAPE  H18X16997  -0.232   5.061   4.921 -0.4913  3.0110  0.6723
  153SAPE  H18Y16998  -0.283   4.962   4.777  1.9278  0.7441  1.6756
  153SAPE  H18Z16999  -0.372   5.110   4.836 -0.7223 -0.0362  0.5521
  154SAPE     N17000   4.098   5.395   6.455  0.1826 -0.7002  0.4697
  154SAPE   HN117001   4.116   5.314   6.391 -0.1992 -0.5978  0.2268
  154SAPE   HN217002   4.043   5.351   6.532 -0.2291  0.8896  1.1065
  154SAPE   HN317003   4.029   5.456   6.407 -0.4121 -2.2213 -0.7430
  154SAPE   C1217004   4.224   5.460   6.499  0.3531  0.1535 -0.3022
  154SAPE  H12A17005   4.270   5.505   6.408 -1.1681  0.6196 -0.8757
  154SAPE  H12B17006   4.285   5.373   6.530 -0.5833 -1.4113 -2.6034
  154SAPE   C1117007   4.208   5.569   6.606 -0.2965  0.1335 -0.2057
  154SAPE  H11A17008   4.309   5.593   6.645  1.3577 -2.0115 -2.8384
  154SAPE  H11B17009   4.148   5.540   6.695  1.1004  1.4876  1.2285
  154SAPE     P17010   4.239   5.806   6.506  0.5676 -0.0274  0.3915
  154SAPE   O1317011   4.153   5.915   6.455 -0.0516  0.1248  0.4823
  154SAPE   O1417012   4.328   5.851   6.609  0.1499  0.0448 -0.2656
  154SAPE   O1217013   4.144   5.691   6.555 -0.2660  0.6477  0.4820
  154SAPE   O1117014   4.320   5.732   6.400  0.2727 -0.1373  0.2028
  154SAPE    C117015   4.363   5.796   6.283 -0.1855  0.0961  0.4698
  154SAPE    HA17016   4.287   5.868   6.246 -2.7224 -1.7145  1.8372
  154SAPE    HB17017   4.454   5.849   6.317  0.0110 -0.7062  1.2192
  154SAPE    C217018   4.392   5.694   6.166 -0.2791  0.0221 -0.7252
  154SAPE    HS17019   4.464   5.624   6.213  0.9154  1.0526 -0.9815
  154SAPE   O2117020   4.447   5.763   6.052  0.2694  0.2445 -0.3439
  154SAPE   C2117021   4.584   5.772   6.057 -0.4709  0.0686 -0.1142
  154SAPE   O2217022   4.654   5.722   6.140  0.1185 -0.2295  0.3195
  154SAPE   C2217023   4.629   5.836   5.926  0.1396  0.7715 -0.1353
  154SAPE   H2R17024   4.546   5.846   5.852 -1.1044 -0.3518  1.0547
  154SAPE   H2S17025   4.688   5.927   5.951 -2.1838  2.6967 -1.1514
  154SAPE    C317026   4.267   5.618   6.112  0.7609  0.3880  0.0265
  154SAPE    HX17027   4.192   5.693   6.077 -0.9074 -1.3207 -0.2160
  154SAPE    HY17028   4.228   5.562   6.200  1.4044 -2.0961 -1.1716
  154SAPE   O3117029   4.297   5.530   6.007 -0.5002 -0.2285  0.3285
  154SAPE   C3117030   4.358   5.415   6.053  0.9006  0.6244 -0.3530
  154SAPE   O3217031   4.379   5.389   6.167 -0.1151 -0.5735  0.4520
  154SAPE   C3217032   4.390   5.327   5.930  0.0122 -0.6752 -0.1521
  154SAPE   H2X17033   4.473   5.381   5.880  0.7077 -2.2394 -0.7174
  154SAPE   H2Y17034   4.297   5.338   5.870 -0.4509 -2.0666  0.2929
  154SAPE   C2317035   4.728   5.744   5.852 -0.4022 -0.3144 -0.3918
  154SAPE   H3R17036   4.812   5.717   5.919 -1.2793 -3.5474 -0.4110
  154SAPE   H3S17037   4.765   5.797   5.762 -0.7044 -1.4731 -1.2163
  154SAPE   C2417038   4.669   5.613   5.793 -0.6615  0.1511 -0.3209
  154SAPE   H4R17039   4.669   5.543   5.879 -1.6879  1.9281  1.2061
  154SAPE   H4S17040   4.743   5.561   5.728 -1.6513 -0.0958 -1.2961
  154SAPE   C2517041   4.540   5.627   5.726  0.7462  0.5006 -0.1233
  154SAPE   H5R17042   4.449   5.603   5.783 -0.7708  1.1040 -2.1714
  154SAPE   C2617043   4.522   5.666   5.595  0.2091  0.3698 -0.2371
  154SAPE   H6R17044   4.420   5.669   5.555 -0.0181  3.0376  0.3532
  154SAPE   C2717045   4.629   5.704   5.498  0.2431 -0.5483 -0.2895
  154SAPE   H7R17046   4.705   5.765   5.551  1.2382 -0.4038 -1.8253
  154SAPE   H7S17047   4.587   5.787   5.437  0.1627 -0.6940 -0.4325
  154SAPE   C2817048   4.686   5.582   5.416  0.1827 -0.4273 -0.2922
  154SAPE   H8R17049   4.770   5.533   5.469 -1.6537  0.5854  3.9230
  154SAPE   C2917050   4.635   5.554   5.298  0.3790 -0.1229  0.1989
  154SAPE   H9R17051   4.658   5.456   5.253  2.7050 -0.1403  1.2537
  154SAPE  C21017052   4.520   5.623   5.227 -0.0923 -0.2240  0.2098
  154SAPE  H10R17053   4.456   5.689   5.289  1.3643  0.4906  1.0137
  154SAPE  H10S17054   4.442   5.551   5.194  0.3462 -1.3348  1.4848
  154SAPE  C21117055   4.563   5.707   5.115  0.2175  0.5896 -0.1842
  154SAPE  H11R17056   4.575   5.809   5.156  0.1487  0.1734  0.8846
  154SAPE  C21217057   4.568   5.687   4.978  0.3235  0.1567  0.0889
  154SAPE  H12R17058   4.586   5.779   4.921  0.2373  0.9172  1.2370
  154SAPE  C21317059   4.546   5.560   4.904 -0.1438  0.2103  0.0583
  154SAPE  H13R17060   4.461   5.567   4.832 -2.2314  1.0684  2.4597
  154SAPE  H13S17061   4.517   5.473   4.967 -0.1150 -0.7349 -1.1936
  154SAPE  C21417062   4.671   5.539   4.820 -0.0067 -0.7526 -1.0778
  154SAPE  H14R17063   4.768   5.566   4.865 -0.8247 -0.6343  0.6782
  154SAPE  C21517064   4.681   5.477   4.702  0.8223  0.3695  0.4760
  154SAPE  H15R17065   4.780   5.464   4.654  0.2419  1.9314 -1.2402
  154SAPE  C21617066   4.569   5.417   4.620  0.2938  0.2996 -0.1084
  154SAPE  H16R17067   4.472   5.457   4.654  1.4032  1.9923  1.1711
  154SAPE  H16S17068   4.566   5.308   4.642 -1.7528  0.0774 -1.2111
  154SAPE  C21717069   4.585   5.439   4.466 -0.4059 -0.4856  0.4353
  154SAPE  H17R17070   4.683   5.400   4.430 -0.9092 -1.6409  0.2880
  154SAPE  H17S17071   4.594   5.550   4.456 -1.1724 -0.4851 -0.2983
  154SAPE  C21817072   4.466   5.384   4.385  0.7041  0.4184 -0.4458
  154SAPE  H18R17073   4.458   5.423   4.281 -0.6232  1.0123 -0.1440
  154SAPE  H18S17074   4.380   5.426   4.443  0.9246 -0.0323  0.2144
  154SAPE  C21917075   4.464   5.234   4.405 -0.2118 -0.1339  0.2721
  154SAPE  H19R17076   4.426   5.203   4.505  0.8449 -0.6208  0.5421
  154SAPE  H19S17077   4.571   5.207   4.391 -0.5900 -0.3107 -3.0703
  154SAPE  C22017078   4.380   5.153   4.308  0.8241 -0.9958 -0.0832
  154SAPE  H20R17079   4.395   5.197   4.207 -1.7708 -0.0268 -0.1302
  154SAPE  H20S17080   4.274   5.172   4.333  0.8571  0.5383 -0.9811
  154SAPE  H20T17081   4.398   5.044   4.308  0.5479 -1.1741 -3.4837
  154SAPE   C3317082   4.415   5.180   5.958  0.0481  0.9898  0.3202
  154SAPE   H3X17083   4.486   5.158   6.040  0.1605  1.2262  0.2877
  154SAPE   H3Y17084   4.466   5.140   5.868 -0.3784 -2.1940  1.3664
  154SAPE   C3417085   4.289   5.087   5.977  0.5327 -0.6783 -0.1448
  154SAPE   H4X17086   4.238   5.127   6.067 -0.6502  2.0499 -1.9105
  154SAPE   H4Y17087   4.352   4.997   5.995  1.3958  0.0550  0.6431
  154SAPE   C3517088   4.196   5.061   5.863 -0.6741  0.6413 -0.2893
  154SAPE   H5X17089   4.269   5.057   5.780 -1.4901  1.8426 -1.0956
  154SAPE   H5Y17090   4.123   5.139   5.833 -3.3375 -1.1476  1.1209
  154SAPE   C3617091   4.122   4.922   5.874  0.7015  0.1639  0.0624
  154SAPE   H6X17092   4.033   4.952   5.933 -0.2379  0.7781 -1.6057
  154SAPE   H6Y17093   4.180   4.834   5.911 -1.1271 -2.3354 -2.5877
  154SAPE   C3717094   4.077   4.866   5.736 -0.2959  0.8583 -1.0190
  154SAPE   H7X17095   4.004   4.794   5.777  1.9706  0.2789  2.4131
  154SAPE   H7Y17096   4.161   4.809   5.691 -0.0025  1.1426 -0.8405
  154SAPE   C3817097   4.023   4.975   5.646  0.1119 -0.8303 -0.0358
  154SAPE   H8X17098   4.107   5.041   5.616  0.5328 -0.7058  1.3513
  154SAPE   H8Y17099   3.943   5.031   5.698  1.9907  2.1157 -0.0866
  154SAPE   C3917100   3.970   4.920   5.513 -0.1307  0.8499 -0.0867
  154SAPE   H9X17101   3.863   4.889   5.515 -0.1779  0.6600 -2.5927
  154SAPE   H9Y17102   4.047   4.840   5.505 -0.1144  0.3595  3.2799
  154SAPE  C31017103   3.976   5.020   5.398  0.6581 -0.2225  0.7147
  154SAPE  H10X17104   3.965   5.121   5.444 -0.3009  0.5907 -1.2109
  154SAPE  H10Y17105   3.888   4.987   5.340  1.7775 -2.6861  0.2996
  154SAPE  C31117106   4.109   5.026   5.329  0.4408 -0.0654  0.4773
  154SAPE  H11X17107   4.125   4.934   5.269 -0.3155  1.7115 -2.6988
  154SAPE  H11Y17108   4.181   5.017   5.413  0.4643 -0.5090  0.4091
  154SAPE  C31217109   4.131   5.155   5.252  0.3516 -0.1426 -0.2996
  154SAPE  H12X17110   4.242   5.162   5.252  0.5496 -2.2939  1.5995
  154SAPE  H12Y17111   4.089   5.242   5.307  1.8478 -0.1724  0.9540
  154SAPE  C31317112   4.086   5.147   5.106  0.1699 -0.1968  0.3926
  154SAPE  H13X17113   3.986   5.099   5.095 -0.2944  0.6471  0.8623
  154SAPE  H13Y17114   4.159   5.076   5.061 -0.6804  1.3247 -3.7813
  154SAPE  C31417115   4.087   5.276   5.020 -0.1714 -0.0643 -0.3930
  154SAPE  H14X17116   4.007   5.338   5.066  0.3214 -0.7628  1.4720
  154SAPE  H14Y17117   4.076   5.259   4.911 -0.5921 -1.0307 -0.2025
  154SAPE  C31517118   4.203   5.369   5.031  0.0123  0.6544 -0.1338
  154SAPE  H15X17119   4.297   5.311   5.018  0.2342  0.6977  1.1233
  154SAPE  H15Y17120   4.218   5.407   5.134  0.1890 -1.0355  0.4876
  154SAPE  C31617121   4.197   5.491   4.944  0.5325  0.3837 -0.0665
  154SAPE  H16X17122   4.272   5.569   4.966 -0.3738  1.3950 -0.4274
  154SAPE  H16Y17123   4.102   5.547   4.957 -0.6561 -1.7719  1.0410
  154SAPE  C31717124   4.193   5.465   4.794 -0.3269  0.7826  0.4481
  154SAPE  H17X17125   4.107   5.399   4.768 -1.2920  1.7989  1.0184
  154SAPE  H17Y17126   4.282   5.411   4.756 -1.8531 -1.0971 -0.6665
  154SAPE  C31817127   4.188   5.599   4.719 -0.0774 -0.4097 -0.3900
  154SAPE  H18X17128   4.275   5.656   4.758 -1.4143  0.8023  0.9889
  154SAPE  H18Y17129   4.092   5.650   4.741  0.9822  0.6786  2.0766
  154SAPE  H18Z17130   4.181   5.593   4.609 -1.7668  0.6013 -0.3707
  155SAPE     N17131   6.790   5.141   6.139 -0.6139  0.0365  0.3755
  155SAPE   HN117132   6.872   5.101   6.189  2.4798  0.1918 -4.0579
  155SAPE   HN217133   6.773   5.234   6.182  1.3695  1.0687 -0.9615
  155SAPE   HN317134   6.701   5.087   6.137 -0.7245  0.2462 -0.4566
  155SAPE   C1217135   6.839   5.168   6.001  0.2560 -0.1123  0.8888
  155SAPE  H12A17136   6.834   5.079   5.935  0.6601  0.1219  0.5305
  155SAPE  H12B17137   6.949   5.182   6.005  0.7440 -3.2864  1.0080
  155SAPE   C1117138   6.760   5.287   5.938 -0.8532  0.1236 -0.8862
  155SAPE  H11A17139   6.657   5.246   5.935 -1.1719  0.2670  2.9673
  155SAPE  H11B17140   6.794   5.309   5.834 -0.1653  1.0290 -0.4859
  155SAPE     P17141   6.844   5.522   6.017  0.3459 -0.3558 -0.3226
  155SAPE   O1317142   6.801   5.631   6.109  0.0635  0.1231 -0.0924
  155SAPE   O1417143   6.987   5.481   6.023  0.0762 -0.7636  0.0206
  155SAPE   O1217144   6.753   5.399   6.027  0.2746  0.1778  0.0200
  155SAPE   O1117145   6.827   5.563   5.865 -0.5880 -0.1437  0.5074
  155SAPE    C117146   6.829   5.710   5.831  0.4948 -0.0820 -0.0317
  155SAPE    HA17147   6.870   5.780   5.908  0.1468  1.2647 -1.0444
  155SAPE    HB17148   6.891   5.721   5.740  0.9230 -2.2540 -0.0673
  155SAPE    C217149   6.685   5.761   5.806 -0.1797 -0.3897  0.3027
  155SAPE    HS17150   6.629   5.749   5.901 -0.9396 -0.0370 -0.0936
  155SAPE   O2117151   6.633   5.683   5.699  0.6954 -0.0658 -0.5479
  155SAPE   C2117152   6.497   5.682   5.688  0.4650  0.1373 -0.1667
  155SAPE   O2217153   6.425   5.726   5.776  0.0565  0.2196  0.6553
  155SAPE   C2217154   6.452   5.626   5.555 -0.6344 -0.4455  0.6714
  155SAPE   H2R17155   6.503   5.528   5.541 -0.8090 -0.6180  1.2429
  155SAPE   H2S17156   6.341   5.623   5.564 -0.7425 -0.9562 -0.5673
  155SAPE    C317157   6.690   5.908   5.765  0.2809  0.2428  0.0717
  155SAPE    HX17158   6.703   5.971   5.855 -0.3273 -1.0350  1.0929
  155SAPE    HY17159   6.591   5.939   5.724 -0.5130 -2.9137 -0.6921
  155SAPE   O3117160   6.791   5.927   5.665 -0.1068 -0.0553  0.1785
  155SAPE   C3117161   6.804   6.057   5.641  0.5692 -0.3036  0.6020
  155SAPE   O3217162   6.745   6.143   5.704 -0.1788 -0.2689  0.5673
  155SAPE   C3217163   6.898   6.085   5.521 -0.2168 -0.3628  0.2874
  155SAPE   H2X17164   6.834   6.077   5.430 -0.0574 -2.8001  0.3200
  155SAPE   H2Y17165   6.984   6.015   5.525  0.7473  0.6570 -1.2038
  155SAPE   C2317166   6.500   5.728   5.445  0.6342 -0.2332 -0.5288
  155SAPE   H3R17167   6.611   5.735   5.446  0.5813  0.7604 -0.8313
  155SAPE   H3S17168   6.470   5.833   5.461  1.7861  0.1097 -0.5699
  155SAPE   C2417169   6.447   5.688   5.310 -0.2824  0.7160  0.6226
  155SAPE   H4R17170   6.472   5.778   5.251  1.0870  1.3624  2.1190
  155SAPE   H4S17171   6.337   5.670   5.305 -0.1321 -0.0911  0.0378
  155SAPE   C2517172   6.515   5.569   5.238  0.3517 -0.4493  0.5023
  155SAPE   H5R17173   6.550   5.498   5.315 -0.0381 -1.4289 -0.2007
  155SAPE   C2617174   6.526   5.546   5.107 -0.3647  0.6400 -1.0119
  155SAPE   H6R17175   6.583   5.456   5.080  0.0053  0.8438 -0.9098
  155SAPE   C2717176   6.475   5.636   5.002 -0.0951  0.1633  0.2673
  155SAPE   H7R17177   6.502   5.740   5.030  0.2690 -0.1262  1.0192
  155SAPE   H7S17178   6.365   5.625   4.991  0.1205 -1.0250 -0.9821
  155SAPE   C2817179   6.550   5.616   4.874  0.4825 -0.0054 -0.0333
  155SAPE   H8R17180   6.620   5.532   4.866 -0.3528 -0.5574 -2.7614
  155SAPE   C2917181   6.532   5.678   4.756  0.3859  0.3980 -0.4581
  155SAPE   H9R17182   6.585   5.637   4.669  1.4029 -1.8139  1.0974
  155SAPE  C21017183   6.433   5.788   4.727 -0.4502 -0.8090 -1.0142
  155SAPE  H10R17184   6.487   5.882   4.704 -1.7539  0.5425  1.1417
  155SAPE  H10S17185   6.373   5.817   4.815  0.5700 -0.9473 -0.2524
  155SAPE  C21117186   6.346   5.764   4.601  0.5973  0.0078 -0.1175
  155SAPE  H11R17187   6.240   5.740   4.613  0.2390 -1.2971 -4.2372
  155SAPE  C21217188   6.383   5.766   4.475 -0.3640 -0.4836  0.0616
  155SAPE  H12R17189   6.315   5.732   4.396  1.3961 -1.6375 -1.0378
  155SAPE  C21317190   6.517   5.797   4.415 -0.0063 -0.1954  0.1549
  155SAPE  H13R17191   6.580   5.837   4.497 -0.8213  1.1000  0.1849
  155SAPE  H13S17192   6.515   5.886   4.348  0.1578 -1.0268 -0.9991
  155SAPE  C21417193   6.591   5.686   4.339 -0.1649 -0.9061 -0.0078
  155SAPE  H14R17194   6.527   5.639   4.261 -2.3233  1.1914  0.3882
  155SAPE  C21517195   6.721   5.663   4.347 -0.2732  0.1736 -0.5622
  155SAPE  H15R17196   6.761   5.577   4.293 -0.5889 -0.8408  0.7646
  155SAPE  C21617197   6.813   5.744   4.428 -0.3308 -0.4541 -0.3402
  155SAPE  H16R17198   6.909   5.687   4.422  0.8645  1.2135  1.4352
  155SAPE  H16S17199   6.781   5.756   4.534 -2.7912 -1.1065 -0.9422
  155SAPE  C21717200   6.825   5.881   4.360 -0.4619  0.4826  1.0568
  155SAPE  H17R17201   6.737   5.946   4.378 -1.4588 -0.6405  0.3703
  155SAPE  H17S17202   6.829   5.873   4.250 -2.1785 -1.1384  1.0683
  155SAPE  C21817203   6.944   5.961   4.424 -0.1653  0.6698 -0.3879
  155SAPE  H18R17204   7.034   5.900   4.402  0.1295  1.3743 -1.1613
  155SAPE  H18S17205   6.923   5.950   4.533  1.2040 -0.1017 -0.1827
  155SAPE  C21917206   6.970   6.101   4.377  0.2718 -0.7170 -0.0232
  155SAPE  H19R17207   6.886   6.170   4.401  0.7849  0.1850 -0.7689
  155SAPE  H19S17208   6.984   6.102   4.267 -1.3845 -3.5031 -0.3774
  155SAPE  C22017209   7.103   6.162   4.434 -0.9738 -0.3271 -0.5209
  155SAPE  H20R17210   7.103   6.271   4.414 -2.1040 -0.0201  0.9519
  155SAPE  H20S17211   7.197   6.119   4.394 -0.9075 -1.1324  0.4709
  155SAPE  H20T17212   7.115   6.142   4.543 -1.4359  1.5484 -0.0781
  155SAPE   C3317213   6.939   6.235   5.534 -0.1022  0.0453 -0.4121
  155SAPE   H3X17214   6.977   6.247   5.638  1.1038 -1.2908 -0.6733
  155SAPE   H3Y17215   6.853   6.299   5.505  0.2482  0.4329 -0.6049
  155SAPE   C3417216   7.039   6.274   5.420 -0.2164 -0.0992  0.1348
  155SAPE   H4X17217   7.132   6.214   5.413  0.6455  1.1407  0.7156
  155SAPE   H4Y17218   7.068   6.377   5.447 -1.6412  0.1460  0.8238
  155SAPE   C3517219   6.974   6.277   5.280 -0.0776  0.1612 -0.0074
  155SAPE   H5X17220   6.879   6.333   5.289  0.2429  0.4424  2.1679
  155SAPE   H5Y17221   6.937   6.178   5.244  0.1621  0.2204 -0.4253
  155SAPE   C3617222   7.064   6.349   5.181  0.4958  0.7504 -0.9683
  155SAPE   H6X17223   7.160   6.296   5.160  0.1106 -0.4952  0.2621
  155SAPE   H6Y17224   7.093   6.448   5.222 -0.3964  0.9648 -0.8349
  155SAPE   C3717225   6.976   6.382   5.053  0.0419 -0.0191  0.5888
  155SAPE   H7X17226   7.024   6.465   4.997  2.4219 -0.3194  2.0681
  155SAPE   H7Y17227   6.875   6.417   5.086  0.5385  0.5631  1.5446
  155SAPE   C3817228   6.964   6.257   4.964 -0.4794 -0.0676  0.3315
  155SAPE   H8X17229   6.921   6.176   5.026  0.1649  0.7422  1.9007
  155SAPE   H8Y17230   7.068   6.223   4.941 -0.2850 -0.8330  2.2268
  155SAPE   C3917231   6.885   6.272   4.842 -0.5402 -0.4149  0.8514
  155SAPE   H9X17232   6.931   6.358   4.789 -1.0008 -0.5250  0.2592
  155SAPE   H9Y17233   6.785   6.305   4.876 -0.8834 -1.2026  0.6317
  155SAPE  C31017234   6.873   6.151   4.747 -0.0570  0.9724  0.1822
  155SAPE  H10X17235   6.859   6.063   4.814  1.1563  0.2992 -0.4053
  155SAPE  H10Y17236   6.970   6.133   4.695  0.4269  0.5998  1.1887
  155SAPE  C31117237   6.761   6.167   4.648  0.6200  0.0284 -0.4569
  155SAPE  H11X17238   6.761   6.076   4.583  1.5642 -0.8554  0.7246
  155SAPE  H11Y17239   6.779   6.257   4.587 -4.5817  1.6497 -0.1028
  155SAPE  C31217240   6.622   6.179   4.711 -0.3109 -0.3530 -0.1996
  155SAPE  H12X17241   6.600   6.278   4.756  0.7498  0.4594 -1.3941
  155SAPE  H12Y17242   6.597   6.102   4.788 -2.6471  1.4931  1.0273
  155SAPE  C31317243   6.513   6.149   4.609  0.3010 -0.5107 -0.0549
  155SAPE  H13X17244   6.548   6.055   4.562 -0.4562 -0.3064 -1.0682
  155SAPE  H13Y17245   6.518   6.224   4.527 -0.7625 -0.4202 -0.0541
  155SAPE  C31417246   6.368   6.139   4.673 -0.0460 -0.4360 -0.2297
  155SAPE  H14X17247   6.362   6.229   4.738  3.4897  0.5522 -1.0997
  155SAPE  H14Y17248   6.356   6.051   4.740 -0.5340 -0.5635 -0.4786
  155SAPE  C31517249   6.248   6.132   4.575  0.5079 -0.2426  0.7542
  155SAPE  H15X17250   6.152   6.132   4.631  0.9275 -1.5734  1.5166
  155SAPE  H15Y17251   6.253   6.039   4.514  1.9819 -0.5427  1.3005
  155SAPE  C31617252   6.229   6.254   4.481  0.4085  0.2822 -0.4709
  155SAPE  H16X17253   6.327   6.265   4.428  1.0107 -0.7573  0.3821
  155SAPE  H16Y17254   6.218   6.351   4.535 -0.4211  0.4645 -0.9618
  155SAPE  C31717255   6.120   6.239   4.373 -0.9089 -0.5727  0.0577
  155SAPE  H17X17256   6.147   6.156   4.305 -0.7387 -1.2636  0.9365
  155SAPE  H17Y17257   6.137   6.321   4.300 -1.1014 -0.0648  0.5689
  155SAPE  C31817258   5.977   6.225   4.428  0.0728 -0.3286  0.1845
  155SAPE  H18X17259   5.916   6.206   4.337 -1.1727  1.0546  0.6833
  155SAPE  H18Y17260   5.950   6.321   4.477  1.8800  0.4511 -0.2619
  155SAPE  H18Z17261   5.973   6.138   4.498 -0.1179 -0.6124 -0.1735
  156SAPE     N17262   0.872   0.612   6.418 -0.0202  0.1527 -0.2895
  156SAPE   HN117263   0.807   0.535   6.442 -2.2672  1.9883 -0.1014
  156SAPE   HN217264   0.810   0.692   6.393  0.5069  0.0806 -1.9218
  156SAPE   HN317265   0.924   0.586   6.332 -1.3078  1.3484 -1.4867
  156SAPE   C1217266   0.970   0.640   6.536  0.0638 -0.0317 -0.4503
  156SAPE  H12A17267   1.042   0.555   6.531  1.9232  1.2834  1.9386
  156SAPE  H12B17268   0.904   0.646   6.625  1.2119 -0.4094  0.4441
  156SAPE   C1117269   1.052   0.771   6.523  0.2645  0.6422  0.9169
  156SAPE  H11A17270   1.137   0.759   6.452  0.3351 -1.2691  1.2687
  156SAPE  H11B17271   1.104   0.781   6.621  1.6192 -0.7389  0.3930
  156SAPE     P17272   0.956   1.004   6.420  0.0797  0.0523  0.0481
  156SAPE   O1317273   0.817   1.029   6.365  0.0461 -0.3057  0.0174
  156SAPE   O1417274   1.025   1.117   6.482  0.1149 -0.5222 -0.1594
  156SAPE   O1217275   0.965   0.880   6.516  0.8412 -0.1155 -0.0437
  156SAPE   O1117276   1.038   0.959   6.289 -0.2544 -0.1104  0.2736
  156SAPE    C117277   1.043   1.039   6.173  0.3672 -0.0107 -0.4591
  156SAPE    HA17278   0.981   1.131   6.176  0.2602 -0.0995  0.3047
  156SAPE    HB17279   1.148   1.074   6.167  0.5943 -0.6474 -0.2061
  156SAPE    C217280   0.994   0.967   6.040 -0.4354 -0.2118 -0.3000
  156SAPE    HS17281   0.899   0.913   6.060 -0.8167 -0.0719 -1.6100
  156SAPE   O2117282   1.110   0.887   5.992 -0.0570 -0.3198  0.0651
  156SAPE   C2117283   1.080   0.782   5.924 -0.2571 -0.0479  0.3184
  156SAPE   O2217284   0.970   0.731   5.912  0.1737  0.6555 -0.1043
  156SAPE   C2217285   1.207   0.719   5.861 -0.2430 -0.0308  0.3237
  156SAPE   H2R17286   1.292   0.717   5.933  0.4057  1.4164 -0.3560
  156SAPE   H2S17287   1.169   0.615   5.848 -0.2825  0.0609 -0.3257
  156SAPE    C317288   0.970   1.075   5.929  0.1221 -0.3299 -0.0286
  156SAPE    HX17289   1.051   1.148   5.910 -1.2871  1.1083 -0.8110
  156SAPE    HY17290   0.892   1.144   5.969 -0.7062  1.0881 -3.6723
  156SAPE   O3117291   0.922   1.010   5.806  0.2879 -0.6154  0.1787
  156SAPE   C3117292   0.793   0.959   5.807 -0.3834 -0.2531 -0.5979
  156SAPE   O3217293   0.713   0.969   5.895 -0.6770  0.0095  0.4606
  156SAPE   C3217294   0.769   0.897   5.668  0.3746 -0.2904 -0.1434
  156SAPE   H2X17295   0.826   0.802   5.659 -0.4057 -0.6503 -1.7426
  156SAPE   H2Y17296   0.809   0.968   5.592  0.8693  1.3055  1.5438
  156SAPE   C2317297   1.246   0.803   5.742  0.7652 -0.1502  0.3361
  156SAPE   H3R17298   1.350   0.781   5.711  1.9088  1.0164  3.0193
  156SAPE   H3S17299   1.238   0.912   5.758 -1.7803 -0.6533  3.6386
  156SAPE   C2417300   1.171   0.761   5.615 -0.6729 -0.1849  0.6110
  156SAPE   H4R17301   1.064   0.781   5.635 -0.5525  0.6527  0.4747
  156SAPE   H4S17302   1.182   0.650   5.609  0.3498 -0.1433  1.4770
  156SAPE   C2517303   1.247   0.837   5.505  0.7186  0.7937 -0.3223
  156SAPE   H5R17304   1.355   0.818   5.505  0.6029 -0.0972  1.2366
  156SAPE   C2617305   1.188   0.915   5.413  0.1489 -0.2570 -0.1321
  156SAPE   H6R17306   1.253   0.969   5.344  0.5589 -0.8311 -0.1972
  156SAPE   C2717307   1.043   0.954   5.399  1.1874 -0.4987  0.4593
  156SAPE   H7R17308   0.976   0.895   5.465  1.6235 -1.6839 -0.1365
  156SAPE   H7S17309   0.999   0.935   5.299 -1.7227  0.8403  1.3770
  156SAPE   C2817310   1.019   1.101   5.434  0.1576 -0.3954  0.0481
  156SAPE   H8R17311   1.029   1.120   5.542  1.0457  0.9101 -0.2425
  156SAPE   C2917312   0.971   1.198   5.351 -0.7755 -0.8870 -0.3825
  156SAPE   H9R17313   0.954   1.297   5.395 -1.0215 -0.4957 -1.3351
  156SAPE  C21017314   0.941   1.192   5.207  0.4000  0.1459 -0.2272
  156SAPE  H10R17315   0.845   1.245   5.188 -0.7123 -0.8136  2.2627
  156SAPE  H10S17316   0.914   1.090   5.172  1.8135 -0.0807 -0.7156
  156SAPE  C21117317   1.056   1.242   5.124 -0.0639 -0.1046  0.3135
  156SAPE  H11R17318   1.069   1.351   5.127 -2.0708  0.1634  0.7416
  156SAPE  C21217319   1.117   1.179   5.020 -0.9236 -0.2264 -0.2089
  156SAPE  H12R17320   1.199   1.223   4.961  0.4062  0.8688  2.2486
  156SAPE  C21317321   1.093   1.036   4.989  0.1440  0.3850 -0.0239
  156SAPE  H13R17322   1.001   1.003   5.043  0.8981 -0.6759  0.6459
  156SAPE  H13S17323   1.161   0.966   5.041 -2.2699 -2.0072  0.1161
  156SAPE  C21417324   1.072   0.994   4.842  0.5229 -0.1116  0.5245
  156SAPE  H14R17325   1.015   1.066   4.782  0.1822 -1.0973 -0.3591
  156SAPE  C21517326   1.106   0.880   4.784  0.6877 -0.8464  0.5617
  156SAPE  H15R17327   1.078   0.874   4.678  0.7130 -0.4476  0.5294
  156SAPE  C21617328   1.166   0.755   4.844  0.7090  0.1684 -0.6616
  156SAPE  H16R17329   1.114   0.661   4.814  0.3453  0.3104 -0.4837
  156SAPE  H16S17330   1.150   0.743   4.954  0.2339 -2.1266 -0.9363
  156SAPE  C21717331   1.317   0.743   4.820  0.2352  0.1407  0.7393
  156SAPE  H17R17332   1.356   0.661   4.885 -1.7552 -0.8716  0.7569
  156SAPE  H17S17333   1.368   0.839   4.840 -2.5977  1.5790  1.7001
  156SAPE  C21817334   1.360   0.699   4.675 -0.1278  0.5465 -0.1143
  156SAPE  H18R17335   1.322   0.778   4.607 -1.5351 -0.0459 -0.0438
  156SAPE  H18S17336   1.303   0.610   4.640  1.7719 -0.6556 -0.3288
  156SAPE  C21917337   1.514   0.675   4.661  0.9488  0.0276  0.2549
  156SAPE  H19R17338   1.522   0.582   4.721 -2.2288 -0.6946 -0.2417
  156SAPE  H19S17339   1.555   0.763   4.714  0.7359 -0.0020  0.4698
  156SAPE  C22017340   1.561   0.659   4.520 -0.5056 -0.1168 -0.4253
  156SAPE  H20R17341   1.577   0.761   4.479  1.4312  0.5034  1.6445
  156SAPE  H20S17342   1.490   0.602   4.456 -1.4752  0.4317  0.1356
  156SAPE  H20T17343   1.666   0.624   4.511 -0.3069 -0.3142  1.9031
  156SAPE   C3317344   0.616   0.870   5.627 -0.1829 -0.1667 -0.4018
  156SAPE   H3X17345   0.580   0.975   5.633 -0.7705 -0.3474 -0.7071
  156SAPE   H3Y17346   0.579   0.812   5.715  2.7657 -2.6512 -0.6237
  156SAPE   C3417347   0.600   0.795   5.501  0.1093  0.2782 -0.1543
  156SAPE   H4X17348   0.492   0.783   5.479  0.3972  0.1535 -1.5794
  156SAPE   H4Y17349   0.645   0.694   5.502 -0.1672  0.1579  0.2474
  156SAPE   C3517350   0.662   0.878   5.389  0.2434  0.3056  0.4206
  156SAPE   H5X17351   0.772   0.874   5.379  0.2142  1.6645 -0.7436
  156SAPE   H5Y17352   0.652   0.985   5.416  3.0047  0.0314  3.0553
  156SAPE   C3617353   0.607   0.840   5.252  0.2749  0.1370  0.3012
  156SAPE   H6X17354   0.498   0.857   5.254 -0.3788 -3.3075  2.8832
  156SAPE   H6Y17355   0.617   0.731   5.233 -0.0183 -0.0127  0.9693
  156SAPE   C3717356   0.670   0.929   5.143 -0.1655 -0.3908 -0.6742
  156SAPE   H7X17357   0.755   0.865   5.111 -0.8779 -1.5782 -0.2353
  156SAPE   H7Y17358   0.699   1.019   5.201  2.3284 -3.3928  3.2671
  156SAPE   C3817359   0.600   0.965   5.011  0.1502 -0.2838  0.0661
  156SAPE   H8X17360   0.505   1.009   5.047  0.1532 -1.7495  2.0180
  156SAPE   H8Y17361   0.571   0.876   4.950 -2.3623 -0.9041  1.9897
  156SAPE   C3917362   0.690   1.050   4.924  0.5497 -0.0174  0.8645
  156SAPE   H9X17363   0.774   0.986   4.889  1.3305 -0.2088  2.9567
  156SAPE   H9Y17364   0.729   1.137   4.980 -2.7088  1.9251  0.3802
  156SAPE  C31017365   0.621   1.104   4.797 -1.2990  0.6672 -0.0473
  156SAPE  H10X17366   0.567   1.194   4.833  0.3969  1.2149  1.2455
  156SAPE  H10Y17367   0.549   1.036   4.745 -2.7783  2.0003  0.1797
  156SAPE  C31117368   0.733   1.165   4.704  0.1102 -0.0941 -0.4627
  156SAPE  H11X17369   0.800   1.084   4.669  0.9368  0.9613 -1.4125
  156SAPE  H11Y17370   0.793   1.238   4.762 -0.5607  0.5794 -0.6075
  156SAPE  C31217371   0.677   1.223   4.577 -0.3404  0.3077  0.2094
  156SAPE  H12X17372   0.629   1.320   4.602  0.4242  0.7164  0.1219
  156SAPE  H12Y17373   0.595   1.162   4.533  1.3165 -1.3594 -0.6712
  156SAPE  C31317374   0.782   1.256   4.478 -0.1523 -0.2450  0.1240
  156SAPE  H13X17375   0.822   1.165   4.428  1.9470 -0.4933  2.0920
  156SAPE  H13Y17376   0.866   1.300   4.536  1.2232 -1.4816 -0.8419
  156SAPE  C31417377   0.736   1.352   4.368  0.8259  0.4325 -0.6955
  156SAPE  H14X17378   0.693   1.445   4.412 -0.8153 -1.0800  1.0852
  156SAPE  H14Y17379   0.646   1.301   4.327 -0.2812  1.4917  0.2977
  156SAPE  C31517380   0.842   1.391   4.272  0.1997 -0.2181 -0.1161
  156SAPE  H15X17381   0.879   1.291   4.240  2.7526  0.3961  0.7082
  156SAPE  H15Y17382   0.916   1.448   4.332  0.3975 -0.5733 -0.0242
  156SAPE  C31617383   0.785   1.458   4.147  0.1020  0.2427 -0.2037
  156SAPE  H16X17384   0.705   1.393   4.105 -2.6490  2.4875  1.2632
  156SAPE  H16Y17385   0.869   1.476   4.077  1.5407 -1.6339  0.9188
  156SAPE  C31717386   0.703   1.594   4.164  0.3938 -0.3290 -0.3547
  156SAPE  H17X17387   0.747   1.657   4.244  0.6590 -0.5873 -0.2957
  156SAPE  H17Y17388   0.599   1.573   4.198  0.5998 -1.8676 -0.6155
  156SAPE  C31817389   0.695   1.680   4.036  0.0410 -0.1717 -0.0543
  156SAPE  H18X17390   0.640   1.774   4.060  2.1746  0.7745  1.4118
  156SAPE  H18Y17391   0.644   1.616   3.960  0.6247 -1.4412  0.6048
  156SAPE  H18Z17392   0.793   1.711   3.994  0.8465 -2.2778  0.1937
  157SAPE     N17393   0.636   5.961   6.222 -0.1975  0.1810 -0.1102
  157SAPE   HN117394   0.608   5.933   6.318 -0.8648 -1.1314 -0.6610
  157SAPE   HN217395   0.734   5.926   6.215 -0.9654 -1.6726 -2.8015
  157SAPE   HN317396   0.647   6.062   6.198  1.5238  0.0454 -0.0236
  157SAPE   C1217397   0.562   5.892   6.112 -0.2717 -0.1602  0.1068
  157SAPE  H12A17398   0.636   5.875   6.032 -0.2757  1.0183 -0.1627
  157SAPE  H12B17399   0.482   5.961   6.077  0.4572 -0.0889 -1.4804
  157SAPE   C1117400   0.513   5.747   6.152 -0.2409 -0.4841 -0.2674
  157SAPE  H11A17401   0.474   5.703   6.057 -0.9284  0.8306 -0.6151
  157SAPE  H11B17402   0.428   5.762   6.222 -1.2633  1.7462 -1.8809
  157SAPE     P17403   0.670   5.531   6.180  0.2110  0.3558  0.2380
  157SAPE   O1317404   0.800   5.500   6.242  0.2487  0.4324 -0.1360
  157SAPE   O1417405   0.554   5.446   6.208  0.1072  0.0998 -0.1928
  157SAPE   O1217406   0.628   5.681   6.212  0.8991  0.1027 -0.0343
  157SAPE   O1117407   0.685   5.540   6.017  0.1088 -0.3660 -0.4663
  157SAPE    C117408   0.764   5.445   5.950  0.4745  0.1701 -0.0085
  157SAPE    HA17409   0.858   5.429   6.008  1.5730 -0.7991 -1.9580
  157SAPE    HB17410   0.730   5.339   5.952  1.5415 -0.1851  0.3384
  157SAPE    C217411   0.802   5.489   5.808 -0.5711  0.3822 -0.1750
  157SAPE    HS17412   0.867   5.578   5.819  0.0354  0.3434 -2.6995
  157SAPE   O2117413   0.686   5.501   5.720 -0.2089 -0.2487  0.4408
  157SAPE   C2117414   0.711   5.600   5.634  0.4613 -0.5117 -0.9315
  157SAPE   O2217415   0.803   5.684   5.647  0.6375  0.8352  0.1070
  157SAPE   C2217416   0.593   5.610   5.539  0.2401 -0.4276 -0.2916
  157SAPE   H2R17417   0.541   5.513   5.529  1.0248 -0.7754 -1.1008
  157SAPE   H2S17418   0.524   5.683   5.586 -0.0270  0.0368 -1.3670
  157SAPE    C317419   0.907   5.389   5.753 -0.0705  0.4906  0.1334
  157SAPE    HX17420   0.869   5.285   5.742  2.9805 -0.6403 -0.9054
  157SAPE    HY17421   0.993   5.371   5.822 -0.4187 -1.1902  0.1774
  157SAPE   O3117422   0.959   5.441   5.627  0.4377  0.2292 -0.2447
  157SAPE   C3117423   1.071   5.517   5.642  0.0011 -0.2791 -0.6280
  157SAPE   O3217424   1.109   5.569   5.741  0.8687  0.6630 -1.0973
  157SAPE   C3217425   1.130   5.544   5.508 -0.1286  0.4796 -0.0388
  157SAPE   H2X17426   1.223   5.602   5.525  0.1298  0.4171 -1.1416
  157SAPE   H2Y17427   1.067   5.609   5.444 -0.2307  0.9613  0.5369
  157SAPE   C2317428   0.644   5.645   5.404  0.3046  0.6729  0.4184
  157SAPE   H3R17429   0.679   5.544   5.373  0.0512  1.1307 -1.4414
  157SAPE   H3S17430   0.728   5.716   5.388  1.1163  0.4503  3.2116
  157SAPE   C2417431   0.525   5.685   5.315  0.9438  0.6254 -0.9289
  157SAPE   H4R17432   0.463   5.771   5.348  0.0530 -0.5627  0.6278
  157SAPE   H4S17433   0.451   5.602   5.328  0.2724  1.3761  0.1539
  157SAPE   C2517434   0.548   5.696   5.170  0.0336  0.4550  0.4337
  157SAPE   H5R17435   0.573   5.799   5.139  0.0843  1.0427  2.3008
  157SAPE   C2617436   0.515   5.609   5.077  0.5415  1.0092  0.4004
  157SAPE   H6R17437   0.530   5.640   4.972 -0.8261  0.6484  0.0860
  157SAPE   C2717438   0.467   5.468   5.074 -0.0931  0.0428 -0.0921
  157SAPE   H7R17439   0.386   5.470   4.998 -0.6940 -0.1818  0.5319
  157SAPE   H7S17440   0.417   5.437   5.168 -1.6462 -0.3179 -0.9985
  157SAPE   C2817441   0.568   5.365   5.036  0.8216  0.0348 -0.2041
  157SAPE   H8R17442   0.664   5.395   5.081  0.1530  1.1761  0.5136
  157SAPE   C2917443   0.533   5.245   4.992 -0.8111 -0.3151 -0.1297
  157SAPE   H9R17444   0.617   5.178   4.967 -1.2106 -0.8768  0.0225
  157SAPE  C21017445   0.400   5.187   4.964  0.7309  0.1266  0.3919
  157SAPE  H10R17446   0.384   5.232   4.864  1.0733 -0.1350  0.2167
  157SAPE  H10S17447   0.326   5.232   5.034 -0.8609  0.3814 -1.3731
  157SAPE  C21117448   0.397   5.037   4.960  0.2109  0.3639  0.0219
  157SAPE  H11R17449   0.370   4.990   5.056 -3.4151  3.9752  1.0323
  157SAPE  C21217450   0.418   4.957   4.853  0.0125 -0.8113 -0.0858
  157SAPE  H12R17451   0.393   4.851   4.869 -1.1544 -0.7904 -1.5523
  157SAPE  C21317452   0.451   4.994   4.710  0.5794 -0.3179  0.7619
  157SAPE  H13R17453   0.522   4.928   4.655 -0.2117  0.3711 -1.1676
  157SAPE  H13S17454   0.502   5.093   4.711  0.9594 -0.4866 -0.4762
  157SAPE  C21417455   0.323   5.009   4.637 -0.4682 -0.3859  0.1151
  157SAPE  H14R17456   0.242   5.026   4.709 -1.3132 -1.0727 -0.6573
  157SAPE  C21517457   0.307   5.017   4.501  0.0538 -0.6602 -0.2375
  157SAPE  H15R17458   0.208   5.034   4.458 -0.7493 -1.5195  1.1999
  157SAPE  C21617459   0.421   5.015   4.399  0.1259  0.5813  0.0503
  157SAPE  H16R17460   0.521   5.031   4.445  0.4416  1.2080 -0.8449
  157SAPE  H16S17461   0.411   5.101   4.329  0.3020 -1.3647 -2.5311
  157SAPE  C21717462   0.428   4.902   4.295 -0.5688  0.1609 -0.7243
  157SAPE  H17R17463   0.502   4.931   4.217  0.5469  0.8448  0.5535
  157SAPE  H17S17464   0.330   4.889   4.244  0.4606  0.9389 -3.0824
  157SAPE  C21817465   0.471   4.764   4.352 -0.1152 -1.0423  0.1196
  157SAPE  H18R17466   0.400   4.752   4.437 -0.8876  1.0618 -0.1625
  157SAPE  H18S17467   0.574   4.771   4.393  0.2484 -0.8587 -0.7867
  157SAPE  C21917468   0.467   4.655   4.251  0.1741  0.3287 -0.2671
  157SAPE  H19R17469   0.534   4.578   4.295 -0.4966  1.0329  2.1241
  157SAPE  H19S17470   0.506   4.684   4.151  0.8532 -0.4499 -0.2420
  157SAPE  C22017471   0.329   4.598   4.238  0.6818  0.0323 -0.4614
  157SAPE  H20R17472   0.293   4.572   4.340  0.7435  0.5107 -0.3171
  157SAPE  H20S17473   0.323   4.506   4.176 -4.0573  0.4831 -1.0620
  157SAPE  H20T17474   0.256   4.671   4.196 -0.6251 -0.2798  1.1442
  157SAPE   C3317475   1.172   5.424   5.435  0.5451  0.6593  0.5730
  157SAPE   H3X17476   1.110   5.336   5.463  1.7492 -0.7094 -0.8110
  157SAPE   H3Y17477   1.279   5.397   5.449  0.7505  1.0098 -0.2750
  157SAPE   C3417478   1.144   5.429   5.277 -0.5706 -0.4266  0.5821
  157SAPE   H4X17479   1.189   5.524   5.240 -0.5207 -0.1979  1.2104
  157SAPE   H4Y17480   1.035   5.440   5.255 -0.2618 -1.0969 -1.4808
  157SAPE   C3517481   1.205   5.301   5.211  0.6997  0.2698  0.2064
  157SAPE   H5X17482   1.128   5.221   5.216 -2.1397  2.7839 -0.3331
  157SAPE   H5Y17483   1.289   5.272   5.277  0.9741  0.0676 -0.2307
  157SAPE   C3617484   1.260   5.315   5.067  0.1474 -0.6056  0.3388
  157SAPE   H6X17485   1.302   5.217   5.034 -3.3669 -1.5964 -1.7093
  157SAPE   H6Y17486   1.334   5.398   5.058 -0.8094  0.3335  0.9322
  157SAPE   C3717487   1.157   5.357   4.960  0.5080  0.6395 -0.5578
  157SAPE   H7X17488   1.203   5.342   4.860  0.0863 -2.1545 -0.4365
  157SAPE   H7Y17489   1.132   5.464   4.971 -1.2853  0.1767  0.1765
  157SAPE   C3817490   1.026   5.280   4.971  0.3876 -0.1619 -0.2093
  157SAPE   H8X17491   1.006   5.268   5.079  1.7774 -0.8977 -0.0019
  157SAPE   H8Y17492   1.055   5.183   4.923  1.9536  0.8208 -1.3581
  157SAPE   C3917493   0.895   5.337   4.906 -0.0008  0.3145 -0.1761
  157SAPE   H9X17494   0.869   5.422   4.972 -0.3508  1.2923 -1.5117
  157SAPE   H9Y17495   0.819   5.258   4.922 -1.3226  1.9743  2.4499
  157SAPE  C31017496   0.914   5.371   4.762  0.1026  0.3706 -0.8169
  157SAPE  H10X17497   0.942   5.283   4.701  0.0630 -1.1625  1.2866
  157SAPE  H10Y17498   0.992   5.449   4.749 -0.2768  0.7048 -1.0991
  157SAPE  C31117499   0.792   5.425   4.693 -0.2323  0.1843  0.8535
  157SAPE  H11X17500   0.817   5.477   4.598 -1.4133  0.8224  0.8594
  157SAPE  H11Y17501   0.738   5.489   4.767 -2.4291 -0.8731  0.2693
  157SAPE  C31217502   0.691   5.314   4.645 -0.5468  0.1159 -0.3604
  157SAPE  H12X17503   0.701   5.223   4.707  1.1512  0.2082 -0.4361
  157SAPE  H12Y17504   0.717   5.285   4.541 -0.0851  1.7984 -0.7608
  157SAPE  C31317505   0.534   5.345   4.623 -0.2224  0.2447  0.0149
  157SAPE  H13X17506   0.492   5.362   4.724 -0.6867 -2.8529  0.4362
  157SAPE  H13Y17507   0.487   5.252   4.584 -0.3014  0.8304 -1.3487
  157SAPE  C31417508   0.511   5.459   4.528  0.3748 -0.1349  0.1564
  157SAPE  H14X17509   0.575   5.438   4.440 -0.2392  2.2587 -0.9431
  157SAPE  H14Y17510   0.558   5.539   4.590  1.5008  0.7041 -1.7187
  157SAPE  C31517511   0.359   5.488   4.502 -0.2986  0.6225 -0.3905
  157SAPE  H15X17512   0.316   5.512   4.602 -0.6834 -1.2445 -0.0710
  157SAPE  H15Y17513   0.320   5.387   4.477 -0.7326  0.6148  0.2661
  157SAPE  C31617514   0.336   5.600   4.405  0.5388  0.2356  0.1345
  157SAPE  H16X17515   0.397   5.590   4.313 -0.1228 -0.3011 -0.2545
  157SAPE  H16Y17516   0.377   5.694   4.448 -1.4548  1.8088 -1.2205
  157SAPE  C31717517   0.203   5.624   4.357  0.0163 -0.8861 -0.4009
  157SAPE  H17X17518   0.135   5.645   4.443 -0.2343 -2.5256 -0.1763
  157SAPE  H17Y17519   0.155   5.531   4.321  3.1407 -2.6365 -0.4257
  157SAPE  C31817520   0.189   5.728   4.243 -0.1364 -0.4904 -0.6353
  157SAPE  H18X17521   0.197   5.675   4.146  0.6996  0.1557 -0.9283
  157SAPE  H18Y17522   0.257   5.816   4.251 -2.7900  1.8723 -2.1088
  157SAPE  H18Z17523   0.091   5.780   4.250  0.1217  0.1843 -1.8488
  158SAPE     N17524   2.442   3.907   6.233  0.2743 -0.1703 -0.3782
  158SAPE   HN117525   2.512   3.830   6.225 -0.1784 -1.2672  3.7961
  158SAPE   HN217526   2.420   3.934   6.135  2.1670  0.3869 -0.6858
  158SAPE   HN317527   2.482   3.982   6.292  1.7109 -1.3240  0.1770
  158SAPE   C1217528   2.324   3.857   6.310  0.2189  0.0767 -0.6803
  158SAPE  H12A17529   2.285   3.767   6.257  1.8308 -0.2767 -1.3207
  158SAPE  H12B17530   2.247   3.937   6.314 -1.3075 -1.3776  1.1115
  158SAPE   C1117531   2.369   3.818   6.454 -0.1953  0.3291  0.6648
  158SAPE  H11A17532   2.284   3.799   6.523  0.6969  0.1035  1.7355
  158SAPE  H11B17533   2.417   3.906   6.501 -3.7672  1.6078  2.2338
  158SAPE     P17534   2.408   3.557   6.468  0.0836  0.1774  0.3078
  158SAPE   O1317535   2.534   3.474   6.462  0.2810  0.5261  0.1587
  158SAPE   O1417536   2.316   3.539   6.581 -0.3643 -0.1625  0.4601
  158SAPE   O1217537   2.455   3.707   6.460  0.6960 -0.0683  0.1612
  158SAPE   O1117538   2.331   3.538   6.330 -0.7400 -0.0582 -0.0287
  158SAPE    C117539   2.409   3.520   6.215  0.6447  0.3670  0.2202
  158SAPE    HA17540   2.447   3.616   6.174  0.8585  0.2054  0.0371
  158SAPE    HB17541   2.490   3.449   6.242 -0.5952 -0.0468  3.2326
  158SAPE    C217542   2.321   3.458   6.101 -0.5562  0.1780 -0.5034
  158SAPE    HS17543   2.311   3.349   6.122 -0.7006  0.3079  0.1143
  158SAPE   O2117544   2.397   3.476   5.981  0.1352 -0.1738  0.5338
  158SAPE   C2117545   2.497   3.386   5.963 -0.2440  0.1233  0.9108
  158SAPE   O2217546   2.509   3.282   6.025 -0.7718 -0.3142 -0.3451
  158SAPE   C2217547   2.597   3.452   5.870 -0.8479  0.6312 -0.2406
  158SAPE   H2R17548   2.552   3.545   5.829  0.5931  1.7787  0.6310
  158SAPE   H2S17549   2.686   3.481   5.930 -1.4483  1.7454  0.1354
  158SAPE    C317550   2.181   3.517   6.085  0.2154  0.7468  0.2509
  158SAPE    HX17551   2.203   3.595   6.009  1.0556  0.6478  0.3772
  158SAPE    HY17552   2.137   3.562   6.177 -0.4918  0.7350 -0.0826
  158SAPE   O3117553   2.086   3.423   6.027 -0.1670  0.1147  0.7909
  158SAPE   C3117554   2.052   3.319   6.096  0.0256 -0.8966 -0.0924
  158SAPE   O3217555   2.100   3.291   6.206  0.1224  0.5584 -0.2174
  158SAPE   C3217556   1.948   3.246   6.015  0.3923  0.9410 -0.2336
  158SAPE   H2X17557   1.844   3.282   6.031 -0.7752 -2.4970  0.8831
  158SAPE   H2Y17558   1.945   3.144   6.059 -0.2867  1.5753  1.2914
  158SAPE   C2317559   2.649   3.369   5.756  0.3921  0.6440  0.4554
  158SAPE   H3R17560   2.561   3.343   5.694  1.1134 -0.6905 -0.0519
  158SAPE   H3S17561   2.698   3.274   5.787  0.8251  1.0802  1.1325
  158SAPE   C2417562   2.746   3.449   5.669 -0.6213 -0.3165  0.1906
  158SAPE   H4R17563   2.831   3.469   5.738 -0.4604 -0.7418  0.1171
  158SAPE   H4S17564   2.702   3.549   5.648 -1.1318 -0.1763  1.8027
  158SAPE   C2517565   2.802   3.384   5.545 -0.2934  0.2981 -0.4884
  158SAPE   H5R17566   2.820   3.278   5.572  0.3692  0.8873  1.5395
  158SAPE   C2617567   2.810   3.428   5.417  0.6977 -0.5304 -0.2980
  158SAPE   H6R17568   2.858   3.360   5.345  1.3747  0.7557 -1.1022
  158SAPE   C2717569   2.778   3.567   5.368  0.5669 -0.9258  0.5230
  158SAPE   H7R17570   2.816   3.644   5.438  1.4852 -1.0821  0.2134
  158SAPE   H7S17571   2.667   3.571   5.368  0.6107  0.6264  0.7423
  158SAPE   C2817572   2.827   3.588   5.222  0.0530  0.1291  0.3332
  158SAPE   H8R17573   2.751   3.601   5.144  1.5750  1.4786 -1.0006
  158SAPE   C2917574   2.953   3.612   5.185 -0.2286 -0.0512 -0.5102
  158SAPE   H9R17575   2.990   3.629   5.083  0.8809  0.1067 -0.0967
  158SAPE  C21017576   3.063   3.623   5.292  0.2437 -0.7932  0.7538
  158SAPE  H10R17577   3.161   3.605   5.243 -0.6943 -2.4386 -0.6293
  158SAPE  H10S17578   3.046   3.538   5.362 -1.5648 -1.5218 -0.4890
  158SAPE  C21117579   3.062   3.761   5.349 -0.9293 -0.2925 -0.8637
  158SAPE  H11R17580   3.020   3.777   5.449 -2.1272  1.1582 -1.5685
  158SAPE  C21217581   3.123   3.871   5.304 -0.3620 -0.7020  0.4458
  158SAPE  H12R17582   3.109   3.967   5.355  1.2334  0.0220 -0.4030
  158SAPE  C21317583   3.190   3.874   5.171  0.6215  0.3202  0.1441
  158SAPE  H13R17584   3.110   3.889   5.095  0.8092  1.5401  0.1642
  158SAPE  H13S17585   3.245   3.778   5.160  0.8916  0.5300 -0.3653
  158SAPE  C21417586   3.296   3.981   5.157 -0.3740  0.2730 -0.6279
  158SAPE  H14R17587   3.273   4.083   5.192  0.3130  0.6351 -1.1896
  158SAPE  C21517588   3.389   3.978   5.059  0.0902 -0.5431 -0.7638
  158SAPE  H15R17589   3.469   4.053   5.052  0.7715 -1.1280  0.4050
  158SAPE  C21617590   3.418   3.852   4.984  0.4679  0.2190 -0.4704
  158SAPE  H16R17591   3.364   3.844   4.887  1.3721 -1.2794 -0.8818
  158SAPE  H16S17592   3.422   3.763   5.050  1.7683 -0.5460 -1.5315
  158SAPE  C21717593   3.559   3.843   4.915  0.0179 -0.0017 -0.3005
  158SAPE  H17R17594   3.571   3.749   4.858  1.1263 -0.0032 -0.0974
  158SAPE  H17S17595   3.646   3.864   4.981  0.6194  0.0491 -1.0861
  158SAPE  C21817596   3.573   3.948   4.802 -0.2339 -0.4023  0.7542
  158SAPE  H18R17597   3.560   4.051   4.841 -0.8244  0.0088 -0.4653
  158SAPE  H18S17598   3.493   3.935   4.726  1.6309  1.9585 -1.8406
  158SAPE  C21917599   3.700   3.952   4.720 -0.1927  0.1231 -0.0035
  158SAPE  H19R17600   3.725   3.849   4.687 -2.2330 -0.4148 -0.0048
  158SAPE  H19S17601   3.784   3.995   4.779 -1.1902  2.1027  0.0520
  158SAPE  C22017602   3.701   4.047   4.603  0.5282 -0.0834  0.5446
  158SAPE  H20R17603   3.670   4.149   4.635  2.6397  0.1983  1.8986
  158SAPE  H20S17604   3.637   4.009   4.521 -1.3053  1.3171  1.2669
  158SAPE  H20T17605   3.797   4.048   4.547 -0.6537  0.7931 -1.5557
  158SAPE   C3317606   1.972   3.235   5.862  0.4808  0.7202  0.3465
  158SAPE   H3X17607   1.951   3.334   5.817 -0.0774  1.1234  1.4682
  158SAPE   H3Y17608   1.893   3.169   5.820  2.0027 -1.1531  0.2931
  158SAPE   C3417609   2.105   3.174   5.818  0.6112 -0.0410  0.3342
  158SAPE   H4X17610   2.113   3.078   5.874 -0.6978 -1.2056 -1.3797
  158SAPE   H4Y17611   2.178   3.252   5.846  0.1561  1.0542 -1.3958
  158SAPE   C3517612   2.119   3.146   5.665  0.6966  0.1893  1.3007
  158SAPE   H5X17613   2.047   3.068   5.633  0.1293  1.3701 -0.4452
  158SAPE   H5Y17614   2.221   3.105   5.645  0.0986 -0.7065 -0.1008
  158SAPE   C3617615   2.099   3.275   5.589 -0.1427 -0.5394  0.3736
  158SAPE   H6X17616   2.120   3.368   5.645 -0.6475  0.3920 -0.9316
  158SAPE   H6Y17617   1.989   3.283   5.572  0.0979  0.3838 -0.8507
  158SAPE   C3717618   2.194   3.294   5.467 -0.2090 -0.2087 -0.3945
  158SAPE   H7X17619   2.147   3.376   5.410  1.5335  0.5548 -0.7843
  158SAPE   H7Y17620   2.174   3.204   5.405 -2.4640 -1.3518  1.8117
  158SAPE   C3817621   2.332   3.336   5.512 -0.5187 -0.6521 -0.4023
  158SAPE   H8X17622   2.392   3.249   5.546  0.4174 -0.1006 -0.5862
  158SAPE   H8Y17623   2.334   3.418   5.587  0.8855 -0.2889 -0.8139
  158SAPE   C3917624   2.415   3.390   5.398  0.0291 -0.8582  0.1199
  158SAPE   H9X17625   2.519   3.415   5.430 -0.2326  2.1893 -1.0421
  158SAPE   H9Y17626   2.369   3.486   5.366  1.1143 -0.6262 -0.8244
  158SAPE  C31017627   2.431   3.309   5.267  0.2840  0.2189  0.0715
  158SAPE  H10X17628   2.330   3.283   5.231  0.9406  0.7033 -2.2898
  158SAPE  H10Y17629   2.483   3.213   5.286  0.7560  0.6419  0.9789
  158SAPE  C31117630   2.510   3.380   5.158 -0.9354  0.9950  0.1836
  158SAPE  H11X17631   2.616   3.399   5.187 -0.7190  0.9553 -0.5769
  158SAPE  H11Y17632   2.453   3.473   5.136 -1.1169  1.3646  2.0511
  158SAPE  C31217633   2.512   3.294   5.027 -0.3369 -0.5011  0.3608
  158SAPE  H12X17634   2.409   3.279   4.989 -1.2084 -0.4956  2.6270
  158SAPE  H12Y17635   2.558   3.197   5.054 -1.5226 -1.0343  0.5191
  158SAPE  C31317636   2.594   3.347   4.909  0.4555 -0.2524 -0.6458
  158SAPE  H13X17637   2.558   3.450   4.892  1.3971  0.2519  0.3234
  158SAPE  H13Y17638   2.570   3.287   4.818 -0.4015 -1.3439  0.2744
  158SAPE  C31417639   2.748   3.338   4.921  0.2555 -0.2011 -0.5532
  158SAPE  H14X17640   2.785   3.233   4.918  2.2090  0.4715 -2.1684
  158SAPE  H14Y17641   2.768   3.395   5.014 -0.7832 -0.5892 -0.0773
  158SAPE  C31517642   2.800   3.415   4.802 -0.9336  0.6195 -0.0139
  158SAPE  H15X17643   2.907   3.431   4.826 -1.5859  1.4132  2.8165
  158SAPE  H15Y17644   2.749   3.513   4.810 -0.7068  0.6978  0.5853
  158SAPE  C31617645   2.788   3.340   4.668 -0.3139 -0.3827 -0.7799
  158SAPE  H16X17646   2.685   3.299   4.658 -0.2795 -1.3258  1.9989
  158SAPE  H16Y17647   2.854   3.250   4.663 -0.7229 -0.7494  0.2551
  158SAPE  C31717648   2.823   3.432   4.551 -0.0428 -0.5029 -0.0121
  158SAPE  H17X17649   2.750   3.514   4.564 -2.3624 -2.5111  0.4833
  158SAPE  H17Y17650   2.797   3.375   4.459 -0.4481 -1.2425  0.5438
  158SAPE  C31817651   2.960   3.499   4.539 -0.5156 -0.7909 -0.0118
  158SAPE  H18X17652   2.980   3.560   4.448  0.6978  0.8976  1.3367
  158SAPE  H18Y17653   3.030   3.413   4.530  1.9360  1.0109  1.0559
  158SAPE  H18Z17654   2.991   3.549   4.632  0.0737 -0.2168 -0.5086
  159SAPE     N17655   4.570   0.550   2.081 -0.2058  0.5012 -0.4494
  159SAPE   HN117656   4.516   0.505   2.005 -1.1583  1.4190 -0.3384
  159SAPE   HN217657   4.668   0.563   2.051 -0.4509  1.8172 -0.7352
  159SAPE   HN317658   4.552   0.499   2.171 -1.9958  0.3788 -0.8388
  159SAPE   C1217659   4.509   0.691   2.101 -0.4790 -0.3425 -0.5536
  159SAPE  H12A17660   4.415   0.668   2.155 -0.1986 -1.6516 -0.6076
  159SAPE  H12B17661   4.494   0.728   1.997 -2.1619 -1.2780 -0.6814
  159SAPE   C1117662   4.587   0.796   2.181  0.4250 -0.1050 -0.2230
  159SAPE  H11A17663   4.629   0.748   2.272  0.8513  2.8996  1.2945
  159SAPE  H11B17664   4.518   0.870   2.229  2.5978  1.9923 -0.1343
  159SAPE     P17665   4.818   0.917   2.137  0.3484 -0.3589  0.4311
  159SAPE   O1317666   4.912   0.806   2.142  0.2520 -0.1997 -1.0414
  159SAPE   O1417667   4.849   1.032   2.043 -0.0412  0.0443 -0.4768
  159SAPE   O1217668   4.680   0.852   2.093  0.0436  0.3763  0.0770
  159SAPE   O1117669   4.792   0.965   2.283 -0.0202 -0.3667 -0.7164
  159SAPE    C117670   4.732   1.087   2.313  0.8407  0.1717 -0.3421
  159SAPE    HA17671   4.682   1.149   2.236  0.2553  1.1223  0.7706
  159SAPE    HB17672   4.652   1.059   2.385  0.3067  0.2613 -0.9029
  159SAPE    C217673   4.840   1.186   2.375  0.2408 -0.8449 -0.0646
  159SAPE    HS17674   4.931   1.184   2.311 -0.3193  0.4941 -0.9574
  159SAPE   O2117675   4.858   1.156   2.513  0.0304  0.1663 -0.4858
  159SAPE   C2117676   4.977   1.167   2.562  0.1563  0.2074  0.0842
  159SAPE   O2217677   5.078   1.205   2.500  0.5110 -0.5475 -0.0010
  159SAPE   C2217678   4.981   1.128   2.711  0.2528 -0.0621  0.4152
  159SAPE   H2R17679   4.939   1.220   2.756  1.2666  0.9091 -0.5488
  159SAPE   H2S17680   4.907   1.048   2.736  0.7264  0.4718  3.9474
  159SAPE    C317681   4.774   1.333   2.373 -0.0718 -0.8201 -0.1001
  159SAPE    HX17682   4.681   1.309   2.429 -0.1306  0.4777  0.3838
  159SAPE    HY17683   4.746   1.358   2.268 -1.1129  0.7239  0.5141
  159SAPE   O3117684   4.857   1.425   2.447  0.2429  0.5562 -0.0323
  159SAPE   C3117685   4.936   1.504   2.372  0.4292  0.7669  0.2232
  159SAPE   O3217686   4.956   1.497   2.250 -0.8235  0.3775 -0.8908
  159SAPE   C3217687   4.998   1.612   2.458 -0.1257 -0.3638 -0.3896
  159SAPE   H2X17688   4.937   1.703   2.439 -2.2684 -1.8743 -1.1986
  159SAPE   H2Y17689   5.097   1.636   2.415  0.4069 -0.6785  0.6510
  159SAPE   C2317690   5.125   1.106   2.753  0.8365  0.9555  0.0204
  159SAPE   H3R17691   5.186   1.198   2.739  0.7895  0.6394 -2.8122
  159SAPE   H3S17692   5.170   1.030   2.686  1.5302  2.0581 -0.8071
  159SAPE   C2417693   5.123   1.056   2.896  0.2717  0.0559  0.2916
  159SAPE   H4R17694   5.077   0.955   2.888  0.6412 -0.0199 -1.1973
  159SAPE   H4S17695   5.053   1.119   2.956  0.9901  0.3178  0.8607
  159SAPE   C2517696   5.264   1.048   2.939 -0.4593 -0.1100 -0.3776
  159SAPE   H5R17697   5.326   0.971   2.891 -0.5200 -0.8103  0.6238
  159SAPE   C2617698   5.327   1.128   3.027 -0.1020 -0.1370 -0.8303
  159SAPE   H6R17699   5.427   1.091   3.053 -0.1010 -0.1071 -0.7912
  159SAPE   C2717700   5.281   1.250   3.106 -0.4202  0.0522 -0.6781
  159SAPE   H7R17701   5.174   1.263   3.079 -0.6335 -0.9326 -0.3763
  159SAPE   H7S17702   5.329   1.338   3.059  0.3122 -0.0340 -0.1177
  159SAPE   C2817703   5.316   1.237   3.257 -0.2431 -0.0145  0.7450
  159SAPE   H8R17704   5.384   1.154   3.279  2.5159  0.1472 -5.0926
  159SAPE   C2917705   5.270   1.326   3.357  1.0247  0.5625  0.6211
  159SAPE   H9R17706   5.301   1.301   3.460 -0.9294  0.7368  1.3008
  159SAPE  C21017707   5.176   1.443   3.333  0.1217  0.5949  0.0409
  159SAPE  H10R17708   5.136   1.461   3.435 -0.0919  1.2501 -0.1530
  159SAPE  H10S17709   5.096   1.424   3.258  0.2681 -0.1970  0.0787
  159SAPE  C21117710   5.247   1.569   3.293 -0.6702 -0.1619  0.3123
  159SAPE  H11R17711   5.353   1.555   3.266 -0.6260 -0.9832  0.8817
  159SAPE  C21217712   5.185   1.688   3.278 -0.1984 -0.7088  0.0586
  159SAPE  H12R17713   5.244   1.779   3.260  1.4282 -0.4744  5.1135
  159SAPE  C21317714   5.039   1.716   3.296 -0.2318 -0.1110 -0.1570
  159SAPE  H13R17715   4.975   1.638   3.249  0.9996 -1.0330 -0.3439
  159SAPE  H13S17716   5.018   1.812   3.244 -1.4085 -0.3388 -0.1330
  159SAPE  C21417717   4.993   1.724   3.436 -0.6041 -0.0633  0.2336
  159SAPE  H14R17718   5.076   1.731   3.507 -0.6910 -0.9225  0.4398
  159SAPE  C21517719   4.866   1.723   3.469  0.4422 -0.0719 -0.0501
  159SAPE  H15R17720   4.848   1.735   3.576  2.1068  2.6068  0.0460
  159SAPE  C21617721   4.747   1.729   3.376 -0.9660 -0.0032  0.0812
  159SAPE  H16R17722   4.784   1.759   3.276 -2.4899 -0.6488 -0.6970
  159SAPE  H16S17723   4.675   1.807   3.409 -0.4357  0.2266  0.7222
  159SAPE  C21717724   4.674   1.594   3.365 -0.2996  0.8112 -0.2589
  159SAPE  H17R17725   4.742   1.512   3.336 -0.0772  1.2623 -1.0575
  159SAPE  H17S17726   4.610   1.614   3.276 -1.4881  3.7036  1.1137
  159SAPE  C21817727   4.588   1.561   3.488  0.5363 -0.1602 -0.0634
  159SAPE  H18R17728   4.505   1.633   3.503 -1.5492 -2.3195 -0.5173
  159SAPE  H18S17729   4.653   1.571   3.577  2.1896 -1.0740 -1.1149
  159SAPE  C21917730   4.497   1.434   3.472  1.3856  0.5016 -0.4745
  159SAPE  H19R17731   4.459   1.407   3.573 -3.2359 -0.9158 -2.3044
  159SAPE  H19S17732   4.557   1.353   3.426  0.0504 -0.7606 -0.1106
  159SAPE  C22017733   4.371   1.466   3.380  0.3454 -0.3364 -0.2676
  159SAPE  H20R17734   4.313   1.549   3.424 -0.6805 -1.4457  0.5218
  159SAPE  H20S17735   4.297   1.384   3.390 -1.1197  0.7351 -1.8986
  159SAPE  H20T17736   4.398   1.473   3.272  0.9741 -1.4163 -0.1948
  159SAPE   C3317737   5.032   1.585   2.614 -0.6848 -0.5957  0.5563
  159SAPE   H3X17738   5.116   1.512   2.603 -0.8228 -0.8012  0.8598
  159SAPE   H3Y17739   4.940   1.542   2.659 -1.6523  0.7504 -0.0807
  159SAPE   C3417740   5.075   1.713   2.677 -0.4458 -0.3308 -1.0056
  159SAPE   H4X17741   4.984   1.776   2.688 -1.6602 -2.3071  0.8483
  159SAPE   H4Y17742   5.152   1.760   2.611  0.8713  0.6860  1.1626
  159SAPE   C3517743   5.146   1.692   2.810  0.2340 -0.4363  0.3754
  159SAPE   H5X17744   5.088   1.630   2.882 -1.9858  0.7590 -0.2757
  159SAPE   H5Y17745   5.144   1.790   2.862 -3.3388 -0.0009 -0.2907
  159SAPE   C3617746   5.296   1.646   2.817 -0.6340 -0.1586 -1.0461
  159SAPE   H6X17747   5.357   1.706   2.747  0.6984 -0.5663 -0.2671
  159SAPE   H6Y17748   5.299   1.536   2.803  1.3443 -0.5540  1.6542
  159SAPE   C3717749   5.356   1.661   2.959  0.1760  0.2561 -0.3934
  159SAPE   H7X17750   5.287   1.619   3.035  0.6663  0.2140  0.0328
  159SAPE   H7Y17751   5.360   1.771   2.974 -0.2433  0.1327  0.7390
  159SAPE   C3817752   5.500   1.608   2.979 -0.9874  0.7013  0.7683
  159SAPE   H8X17753   5.509   1.508   2.931 -1.9141  0.5164  0.9573
  159SAPE   H8Y17754   5.537   1.600   3.083  0.9975 -1.1517  0.0121
  159SAPE   C3917755   5.608   1.698   2.919 -0.3711  0.3708  0.0123
  159SAPE   H9X17756   5.612   1.792   2.977  1.4249  0.7557 -0.6632
  159SAPE   H9Y17757   5.575   1.733   2.820 -0.4950 -1.2937 -0.5785
  159SAPE  C31017758   5.747   1.631   2.906 -0.3641  0.6262 -0.3779
  159SAPE  H10X17759   5.817   1.703   2.858  0.3469  1.7195  2.1359
  159SAPE  H10Y17760   5.754   1.546   2.835 -1.7636  1.5228 -1.6611
  159SAPE  C31117761   5.818   1.595   3.039  0.1719 -0.8443  0.0618
  159SAPE  H11X17762   5.921   1.560   3.017  0.0055 -0.7746 -0.8870
  159SAPE  H11Y17763   5.774   1.507   3.090 -0.2894 -0.5782  0.1316
  159SAPE  C31217764   5.835   1.716   3.133 -0.0536 -0.1022 -0.8203
  159SAPE  H12X17765   5.732   1.731   3.173 -0.8840 -1.6066 -2.2189
  159SAPE  H12Y17766   5.871   1.802   3.073  2.1204  0.1867  0.8157
  159SAPE  C31317767   5.919   1.696   3.255 -0.6145  0.3496 -0.0193
  159SAPE  H13X17768   5.911   1.786   3.320 -0.8305  1.1698 -1.1675
  159SAPE  H13Y17769   6.027   1.693   3.227 -0.4956 -0.9954  0.5304
  159SAPE  C31417770   5.882   1.570   3.328 -0.0607  0.1422  0.7749
  159SAPE  H14X17771   5.914   1.472   3.286  2.0398  1.3607 -0.6522
  159SAPE  H14Y17772   5.772   1.574   3.337 -0.1476 -0.7334  0.2096
  159SAPE  C31517773   5.946   1.564   3.473 -0.0735 -0.6033  0.0367
  159SAPE  H15X17774   5.903   1.484   3.537 -0.1603 -2.0067 -1.6904
  159SAPE  H15Y17775   5.920   1.656   3.530  1.9678 -0.9420  1.6276
  159SAPE  C31617776   6.104   1.563   3.474  0.7609 -0.2579  0.2066
  159SAPE  H16X17777   6.155   1.642   3.415  2.1460 -1.9744 -0.9969
  159SAPE  H16Y17778   6.136   1.466   3.430 -1.1883 -1.1805  0.7016
  159SAPE  C31717779   6.151   1.582   3.617 -0.2113  0.4848 -0.2519
  159SAPE  H17X17780   6.112   1.672   3.668 -2.1097 -0.5081  0.1635
  159SAPE  H17Y17781   6.259   1.600   3.600 -0.5737 -0.1922 -4.6749
  159SAPE  C31817782   6.099   1.471   3.710  0.0435  0.4995 -0.0710
  159SAPE  H18X17783   6.069   1.381   3.652 -0.4061  0.3287  0.4148
  159SAPE  H18Y17784   6.006   1.498   3.764 -1.1460 -1.3172 -1.1208
  159SAPE  H18Z17785   6.178   1.440   3.782  0.3815  0.5893 -0.3974
  160SAPE     N17786   6.122   5.916   1.675  0.2496 -0.6015 -0.2140
  160SAPE   HN117787   6.147   5.844   1.604  1.4393  1.0456 -1.5241
  160SAPE   HN217788   6.040   5.881   1.729 -1.3616  2.5133 -0.4068
  160SAPE   HN317789   6.075   5.996   1.628  0.7769  0.7216  1.4206
  160SAPE   C1217790   6.231   5.948   1.773 -0.2664  0.2321  0.3015
  160SAPE  H12A17791   6.208   6.037   1.836  2.3012  2.3427 -1.4769
  160SAPE  H12B17792   6.318   5.980   1.712 -2.0160 -0.6255 -2.8896
  160SAPE   C1117793   6.268   5.811   1.834  0.2185  0.2585  0.8124
  160SAPE  H11A17794   6.189   5.782   1.906  0.9960  2.2766  2.5822
  160SAPE  H11B17795   6.364   5.816   1.891  1.2948 -1.4076 -0.7358
  160SAPE     P17796   6.344   5.568   1.745  0.0021  0.2111  0.0315
  160SAPE   O1317797   6.298   5.484   1.631 -0.0651 -0.4352 -0.6906
  160SAPE   O1417798   6.489   5.587   1.760 -1.0086 -0.5327  0.3691
  160SAPE   O1217799   6.279   5.709   1.730  0.0492 -1.3045  0.2104
  160SAPE   O1117800   6.284   5.517   1.881 -0.0167  0.4223 -0.2563
  160SAPE    C117801   6.149   5.482   1.875 -0.2165  0.2535 -0.3545
  160SAPE    HA17802   6.093   5.577   1.860  1.1848  1.1532 -0.0608
  160SAPE    HB17803   6.123   5.415   1.790 -0.1487  0.9231 -0.9207
  160SAPE    C217804   6.092   5.432   2.015 -0.3083  0.7787  0.0025
  160SAPE    HS17805   5.981   5.422   2.009 -0.5745  1.7913  2.1127
  160SAPE   O2117806   6.143   5.519   2.122  0.1460  0.5879  0.1671
  160SAPE   C2117807   6.053   5.584   2.194  0.3262  0.1026  0.2084
  160SAPE   O2217808   5.935   5.600   2.162 -0.1888 -0.2132  0.3267
  160SAPE   C2217809   6.127   5.637   2.317  0.0756 -0.1982 -0.1620
  160SAPE   H2R17810   6.224   5.585   2.329 -0.5097 -1.3878 -0.4929
  160SAPE   H2S17811   6.140   5.747   2.305 -0.8908 -0.2813 -2.6232
  160SAPE    C317812   6.143   5.280   2.040  0.1171 -0.9611  0.5312
  160SAPE    HX17813   6.252   5.277   2.019 -0.1497  0.8442 -1.4523
  160SAPE    HY17814   6.091   5.207   1.975 -0.9114  0.6224 -0.4947
  160SAPE   O3117815   6.118   5.251   2.183 -0.1542  0.4363 -0.2598
  160SAPE   C3117816   6.228   5.220   2.261 -0.7313  0.9776 -0.4224
  160SAPE   O3217817   6.340   5.204   2.224  0.0518 -0.4667 -0.6661
  160SAPE   C3217818   6.194   5.224   2.413 -0.4759 -0.1781 -0.7089
  160SAPE   H2X17819   6.127   5.138   2.432  1.3817 -1.5616 -0.0747
  160SAPE   H2Y17820   6.137   5.318   2.426 -1.2850 -0.6482 -0.8422
  160SAPE   C2317821   6.038   5.596   2.436  0.0125  0.0344  0.1614
  160SAPE   H3R17822   6.009   5.490   2.421  0.6487 -0.0435 -0.5576
  160SAPE   H3S17823   5.940   5.649   2.433  0.0749  0.2505  1.3645
  160SAPE   C2417824   6.095   5.640   2.567  0.8375  0.2299  0.1982
  160SAPE   H4R17825   6.006   5.645   2.634 -0.1177  3.7406 -1.1122
  160SAPE   H4S17826   6.138   5.743   2.560  1.2688  0.1928  1.7661
  160SAPE   C2517827   6.200   5.549   2.622 -0.2024 -0.2439 -0.0720
  160SAPE   H5R17828   6.295   5.570   2.573 -0.7456  1.6128 -0.3930
  160SAPE   C2617829   6.184   5.477   2.728 -0.0237 -0.3575 -0.6862
  160SAPE   H6R17830   6.265   5.408   2.757  0.1270 -0.6399 -1.7483
  160SAPE   C2717831   6.053   5.452   2.806 -0.9000  0.0094  0.5184
  160SAPE   H7R17832   5.960   5.444   2.746 -1.1608 -0.2654  0.9605
  160SAPE   H7S17833   6.018   5.537   2.869  0.6572  0.8626  0.2859
  160SAPE   C2817834   6.065   5.332   2.889 -1.0599 -0.2313 -0.2286
  160SAPE   H8R17835   6.056   5.237   2.835  1.2013 -0.0950 -0.9377
  160SAPE   C2917836   6.093   5.330   3.021 -0.4458 -0.2952 -1.0640
  160SAPE   H9R17837   6.106   5.238   3.081  0.5001  1.0115  0.8244
  160SAPE  C21017838   6.108   5.453   3.106  0.4167 -0.1455 -0.1243
  160SAPE  H10R17839   6.004   5.487   3.121  0.1785 -1.0610  0.3640
  160SAPE  H10S17840   6.149   5.543   3.055  1.5751 -0.4964  0.1384
  160SAPE  C21117841   6.173   5.419   3.242  0.0158  0.6789 -0.1040
  160SAPE  H11R17842   6.268   5.364   3.234 -0.6917 -0.8709  1.4970
  160SAPE  C21217843   6.113   5.414   3.361 -1.2214 -0.2054 -0.5682
  160SAPE  H12R17844   6.179   5.376   3.439 -2.1737 -4.3768 -1.5563
  160SAPE  C21317845   5.985   5.471   3.401 -0.5004 -0.0223 -0.0343
  160SAPE  H13R17846   5.911   5.406   3.450 -1.2836 -1.0463 -2.4067
  160SAPE  H13S17847   5.934   5.507   3.309  0.8374  1.2409 -0.3360
  160SAPE  C21417848   6.012   5.595   3.487  0.2137 -0.2466 -0.3766
  160SAPE  H14R17849   6.085   5.664   3.443 -0.3986  2.1566  2.0604
  160SAPE  C21517850   5.951   5.624   3.606 -0.5004 -0.1814 -0.3799
  160SAPE  H15R17851   5.979   5.718   3.656 -0.4814 -1.5721  2.3832
  160SAPE  C21617852   5.853   5.541   3.684  0.7026 -0.8408 -0.7663
  160SAPE  H16R17853   5.861   5.435   3.653  1.2936 -1.0017 -0.0886
  160SAPE  H16S17854   5.748   5.569   3.661  1.5573  3.0201 -0.5782
  160SAPE  C21717855   5.872   5.548   3.836 -0.3530  0.7262 -0.1086
  160SAPE  H17R17856   5.858   5.652   3.873 -0.3223  0.8829 -0.5356
  160SAPE  H17S17857   5.980   5.530   3.859 -0.3687  1.3150  0.4524
  160SAPE  C21817858   5.786   5.438   3.906 -0.1092  0.1628  0.2043
  160SAPE  H18R17859   5.827   5.336   3.919 -2.0188 -0.7601 -0.6000
  160SAPE  H18S17860   5.701   5.409   3.842 -0.5135  0.4338  0.6117
  160SAPE  C21917861   5.722   5.492   4.037 -0.0848  0.0686  0.2550
  160SAPE  H19R17862   5.695   5.596   4.009 -0.3965  0.2241  1.1075
  160SAPE  H19S17863   5.810   5.501   4.104  2.0066  0.8780 -2.4256
  160SAPE  C22017864   5.609   5.409   4.084  0.1777  0.2267 -0.3859
  160SAPE  H20R17865   5.588   5.421   4.192  0.1390 -0.6919 -0.2840
  160SAPE  H20S17866   5.611   5.302   4.052  1.4746  0.8368 -2.4986
  160SAPE  H20T17867   5.516   5.448   4.038  0.9002  1.5969 -0.7387
  160SAPE   C3317868   6.325   5.219   2.497 -0.0807 -0.3279  0.0095
  160SAPE   H3X17869   6.315   5.238   2.605  2.1633  0.3867  0.1470
  160SAPE   H3Y17870   6.403   5.288   2.460 -2.1591  2.5827  0.7350
  160SAPE   C3417871   6.385   5.080   2.511  0.0286  0.4971  0.3810
  160SAPE   H4X17872   6.437   5.041   2.420  1.9484  0.6903  1.3370
  160SAPE   H4Y17873   6.307   5.003   2.526  1.3678 -0.4969  2.9523
  160SAPE   C3517874   6.499   5.066   2.613 -0.0172 -0.5311 -0.1086
  160SAPE   H5X17875   6.461   5.122   2.702 -0.2135  0.0953 -0.5731
  160SAPE   H5Y17876   6.588   5.124   2.580 -1.1792  1.9955  0.8550
  160SAPE   C3617877   6.534   4.921   2.645 -0.0354 -0.2200  0.8952
  160SAPE   H6X17878   6.532   4.878   2.542  0.6761 -0.4472  0.9730
  160SAPE   H6Y17879   6.458   4.868   2.706  0.2490  0.5263  1.9167
  160SAPE   C3717880   6.668   4.898   2.708  1.0856  0.2103 -0.7233
  160SAPE   H7X17881   6.733   4.983   2.676 -0.3690  2.8745  2.7049
  160SAPE   H7Y17882   6.704   4.800   2.672  0.3563 -0.0682 -0.7069
  160SAPE   C3817883   6.647   4.880   2.862  0.1611  0.0912 -0.3573
  160SAPE   H8X17884   6.556   4.819   2.879  0.6458 -0.6350 -0.3202
  160SAPE   H8Y17885   6.631   4.981   2.906  0.8719 -0.5204  1.3913
  160SAPE   C3917886   6.777   4.829   2.928 -0.4982  0.1248 -0.3984
  160SAPE   H9X17887   6.863   4.887   2.889 -0.1055 -0.5314 -0.5272
  160SAPE   H9Y17888   6.796   4.726   2.891 -0.0951  0.1781 -0.3412
  160SAPE  C31017889   6.769   4.832   3.076  0.2571  0.1471 -0.4067
  160SAPE  H10X17890   6.762   4.939   3.105  0.4298 -0.1763  0.8429
  160SAPE  H10Y17891   6.874   4.810   3.107  1.1706  1.8509 -2.0769
  160SAPE  C31117892   6.655   4.752   3.147 -0.5310  0.3567 -0.5721
  160SAPE  H11X17893   6.645   4.657   3.090 -2.2869  1.1097 -1.6032
  160SAPE  H11Y17894   6.552   4.792   3.134 -0.6746 -0.7436 -3.6466
  160SAPE  C31217895   6.684   4.714   3.295 -0.1042  0.0905 -0.5804
  160SAPE  H12X17896   6.791   4.685   3.287 -0.4223 -0.5791 -3.4548
  160SAPE  H12Y17897   6.625   4.623   3.320 -1.8862  1.4600  0.5093
  160SAPE  C31317898   6.655   4.825   3.400 -0.4138  0.2980  0.7056
  160SAPE  H13X17899   6.548   4.857   3.397 -0.2874  0.7423  0.8422
  160SAPE  H13Y17900   6.719   4.907   3.360  0.6934  0.0649  1.9647
  160SAPE  C31417901   6.688   4.787   3.547 -0.3961  0.3712  0.4743
  160SAPE  H14X17902   6.699   4.880   3.607 -0.5471  0.2994  0.6130
  160SAPE  H14Y17903   6.784   4.732   3.541 -0.8341 -0.2685 -2.1585
  160SAPE  C31517904   6.563   4.721   3.619 -0.5223  0.2461 -0.2441
  160SAPE  H15X17905   6.527   4.629   3.568 -2.2115  0.6262  0.2299
  160SAPE  H15Y17906   6.487   4.801   3.619  0.0114  0.7622 -0.3215
  160SAPE  C31617907   6.607   4.675   3.763 -0.4278  0.1714 -0.4507
  160SAPE  H16X17908   6.627   4.760   3.831 -1.2721  1.4368 -1.7123
  160SAPE  H16Y17909   6.699   4.614   3.758  0.8519  1.9284  0.3799
  160SAPE  C31717910   6.504   4.589   3.838  0.0702 -0.1565 -0.6923
  160SAPE  H17X17911   6.481   4.499   3.777 -2.1037 -1.1347  1.3676
  160SAPE  H17Y17912   6.402   4.632   3.844 -0.0347 -0.2612 -1.7027
  160SAPE  C31817913   6.555   4.533   3.976 -0.0678 -0.1175 -0.5056
  160SAPE  H18X17914   6.544   4.606   4.059 -2.9663  0.2583 -1.0936
  160SAPE  H18Y17915   6.661   4.506   3.956  0.2676  1.4944 -1.0539
  160SAPE  H18Z17916   6.496   4.441   3.999 -1.5270  1.5280  3.0599
  161SAPE     N17917   3.719   2.996   2.275  0.0361  0.4574 -0.3586
  161SAPE   HN117918   3.799   2.960   2.331 -1.5383  1.5216  2.7847
  161SAPE   HN217919   3.719   3.100   2.282 -4.1673  0.5267  2.3476
  161SAPE   HN317920   3.627   2.968   2.316 -0.2297 -0.1590 -1.3419
  161SAPE   C1217921   3.713   2.933   2.136  0.7081  0.2729 -0.3157
  161SAPE  H12A17922   3.704   2.822   2.142 -0.0136  0.3377 -0.1135
  161SAPE  H12B17923   3.812   2.953   2.089  0.6097 -0.7320 -0.9704
  161SAPE   C1117924   3.600   2.998   2.052 -0.3718  0.3635  0.2058
  161SAPE  H11A17925   3.596   2.942   1.957 -0.7182  0.0383  0.4122
  161SAPE  H11B17926   3.639   3.101   2.033 -0.8658  1.0109  2.3963
  161SAPE     P17927   3.366   2.882   2.086 -0.1632  0.1449  0.0210
  161SAPE   O1317928   3.325   2.878   1.942 -0.4994 -0.1901  0.2724
  161SAPE   O1417929   3.430   2.759   2.140 -0.0171 -0.2885 -1.3842
  161SAPE   O1217930   3.469   2.999   2.100  0.1091 -0.4303 -0.0433
  161SAPE   O1117931   3.251   2.924   2.181 -0.6442  0.0116  0.4747
  161SAPE    C117932   3.232   3.062   2.203 -1.1121 -0.1480 -0.2370
  161SAPE    HA17933   3.253   3.125   2.114  1.6197 -0.4232  0.1194
  161SAPE    HB17934   3.128   3.083   2.235 -1.5412 -0.3639 -1.4241
  161SAPE    C217935   3.314   3.121   2.329  0.4940  0.0475 -0.6962
  161SAPE    HS17936   3.418   3.116   2.290  0.6021  2.1219 -0.7625
  161SAPE   O2117937   3.285   3.044   2.445  0.2507 -0.3305 -0.4592
  161SAPE   C2117938   3.360   2.949   2.468 -0.0162  0.1914 -0.8620
  161SAPE   O2217939   3.463   2.922   2.406  0.4869 -0.4698  0.3034
  161SAPE   C2217940   3.303   2.871   2.583 -0.0091 -0.1228  0.1196
  161SAPE   H2R17941   3.193   2.861   2.566  0.1147 -1.3188 -0.0796
  161SAPE   H2S17942   3.345   2.771   2.560  0.5693  0.1752 -0.1420
  161SAPE    C317943   3.278   3.276   2.340 -0.8852  0.0583 -0.2598
  161SAPE    HX17944   3.167   3.281   2.338 -0.8730  0.2035 -1.4112
  161SAPE    HY17945   3.300   3.335   2.249  0.2548  0.9790  0.5766
  161SAPE   O3117946   3.337   3.338   2.452 -0.3307  0.1450 -0.0627
  161SAPE   C3117947   3.269   3.316   2.568  0.0330  0.1373 -0.5704
  161SAPE   O3217948   3.173   3.249   2.593 -0.2287  0.1513 -0.3829
  161SAPE   C3217949   3.346   3.411   2.667 -0.3404  0.2477 -0.4815
  161SAPE   H2X17950   3.362   3.509   2.617  1.6429 -1.3617 -3.2900
  161SAPE   H2Y17951   3.450   3.373   2.676  0.9317  2.9839 -2.1951
  161SAPE   C2317952   3.345   2.936   2.717  0.8627 -0.1711  0.5601
  161SAPE   H3R17953   3.355   3.046   2.722 -0.7408  0.0661 -0.5403
  161SAPE   H3S17954   3.446   2.891   2.730 -0.3206 -3.3859 -0.3469
  161SAPE   C2417955   3.263   2.886   2.839 -0.2755  0.2102  0.2253
  161SAPE   H4R17956   3.320   2.898   2.933 -0.4919 -2.0486  0.6941
  161SAPE   H4S17957   3.236   2.781   2.819  0.4323 -0.0200  0.4528
  161SAPE   C2517958   3.130   2.966   2.844  0.8910  0.2264 -0.0962
  161SAPE   H5R17959   3.097   3.006   2.747  0.3431  0.8241  0.3271
  161SAPE   C2617960   3.049   3.000   2.946 -0.7093  0.7903  0.5091
  161SAPE   H6R17961   2.957   3.053   2.917  0.1849  0.1311 -4.5929
  161SAPE   C2717962   3.071   2.966   3.090  0.4162  0.4287 -0.2664
  161SAPE   H7R17963   3.181   2.951   3.101  0.1090 -1.2901  0.8610
  161SAPE   H7S17964   3.032   2.865   3.116  0.7783 -0.0822 -1.6032
  161SAPE   C2817965   3.037   3.068   3.188 -0.6076  0.5020  0.7620
  161SAPE   H8R17966   3.033   3.171   3.149  0.4766 -0.1173 -1.1080
  161SAPE   C2917967   3.043   3.044   3.317 -0.1764 -0.4654 -0.6393
  161SAPE   H9R17968   3.012   3.133   3.374  0.2310  0.1406 -1.3366
  161SAPE  C21017969   3.057   2.920   3.397 -0.4202  0.4091  0.0347
  161SAPE  H10R17970   3.110   2.839   3.343 -0.0293 -0.3730  1.5442
  161SAPE  H10S17971   2.962   2.874   3.430 -0.1842 -2.1271 -2.4859
  161SAPE  C21117972   3.140   2.962   3.524  0.1593 -0.1408 -0.2699
  161SAPE  H11R17973   3.248   2.968   3.506  0.5414  0.1551  1.8318
  161SAPE  C21217974   3.089   2.983   3.654  0.4278  0.4870 -0.3746
  161SAPE  H12R17975   3.153   3.020   3.736 -0.1024  2.0655 -0.6319
  161SAPE  C21317976   2.947   2.981   3.703 -0.1028  0.3505  0.1491
  161SAPE  H13R17977   2.940   2.965   3.813 -1.5340  0.1696  0.0514
  161SAPE  H13S17978   2.898   2.899   3.647  2.5267 -1.3998  0.2335
  161SAPE  C21417979   2.880   3.112   3.680  0.4089  0.9736  0.4916
  161SAPE  H14R17980   2.897   3.158   3.582  0.6107 -0.0729  0.0153
  161SAPE  C21517981   2.786   3.170   3.758 -0.0042 -0.3089 -0.1212
  161SAPE  H15R17982   2.748   3.269   3.728 -3.0191 -1.5579 -0.7731
  161SAPE  C21617983   2.740   3.119   3.887 -0.3521 -0.2247  0.2458
  161SAPE  H16R17984   2.679   3.202   3.929 -0.3072  0.0483 -0.2224
  161SAPE  H16S17985   2.806   3.091   3.972 -2.6680  1.0145  2.5991
  161SAPE  C21717986   2.650   2.998   3.874  0.2207  0.0103  0.4887
  161SAPE  H17R17987   2.707   2.905   3.855  2.5965  1.0887  1.8655
  161SAPE  H17S17988   2.584   3.015   3.786  2.7151  0.9598 -1.3063
  161SAPE  C21817989   2.572   2.969   4.004  0.3978 -1.1012 -0.3860
  161SAPE  H18R17990   2.508   3.055   4.033  0.0086 -1.2781 -0.6970
  161SAPE  H18S17991   2.649   2.955   4.082  0.0254 -0.3009  0.1485
  161SAPE  C21917992   2.488   2.840   3.997  0.1954 -0.7034  0.0014
  161SAPE  H19R17993   2.536   2.767   3.928  0.6667  0.1716 -0.6106
  161SAPE  H19S17994   2.386   2.860   3.956  0.5573  0.2947 -0.4531
  161SAPE  C22017995   2.482   2.768   4.134 -0.0865 -0.3768  0.1855
  161SAPE  H20R17996   2.583   2.753   4.177 -0.2833  0.0031  0.7975
  161SAPE  H20S17997   2.414   2.680   4.136 -2.1200  0.9672 -2.7008
  161SAPE  H20T17998   2.448   2.845   4.207  2.4093 -1.7025  2.9641
  161SAPE   C3317999   3.268   3.421   2.807 -0.3159  0.2098  0.4810
  161SAPE   H3X18000   3.248   3.317   2.840  0.0552 -0.2282 -0.6083
  161SAPE   H3Y18001   3.173   3.477   2.796  0.9083  2.7198  1.9417
  161SAPE   C3418002   3.342   3.498   2.914 -0.6808  0.5320  0.0596
  161SAPE   H4X18003   3.354   3.603   2.879  0.3983  0.4985  0.2978
  161SAPE   H4Y18004   3.444   3.454   2.912 -1.0935 -0.4302 -0.8166
  161SAPE   C3518005   3.274   3.479   3.054  0.1682  0.7489 -0.1230
  161SAPE   H5X18006   3.251   3.373   3.080 -1.8802  0.3927 -2.8919
  161SAPE   H5Y18007   3.175   3.527   3.042 -0.0411  0.0146 -1.4543
  161SAPE   C3618008   3.362   3.541   3.160 -0.3583 -0.3673 -0.4796
  161SAPE   H6X18009   3.388   3.643   3.124 -2.6125  0.7053  0.7179
  161SAPE   H6Y18010   3.458   3.486   3.172  0.7672  1.6951  0.5797
  161SAPE   C3718011   3.292   3.571   3.291  0.5016  0.4509 -0.6857
  161SAPE   H7X18012   3.247   3.479   3.334 -0.3422  2.1313  2.3132
  161SAPE   H7Y18013   3.208   3.642   3.279  0.8392  1.0959  0.5806
  161SAPE   C3818014   3.379   3.634   3.400  0.5977 -0.3547 -0.3591
  161SAPE   H8X18015   3.425   3.726   3.359 -0.3376 -0.2371 -1.1797
  161SAPE   H8Y18016   3.467   3.567   3.416  0.3215 -0.6617 -0.1112
  161SAPE   C3918017   3.304   3.666   3.529 -0.3806  0.3960  0.4834
  161SAPE   H9X18018   3.288   3.572   3.586  2.6608 -0.6021 -0.1299
  161SAPE   H9Y18019   3.207   3.715   3.505 -0.1127 -0.0349 -1.6115
  161SAPE  C31018020   3.388   3.744   3.633 -0.4162  0.3894  0.0491
  161SAPE  H10X18021   3.397   3.848   3.595  0.5042  0.2635 -0.1163
  161SAPE  H10Y18022   3.493   3.707   3.641 -0.2995  0.6314 -0.3361
  161SAPE  C31118023   3.323   3.735   3.778  0.6425 -0.0513 -1.2053
  161SAPE  H11X18024   3.378   3.815   3.832 -0.7636  0.4940 -0.5394
  161SAPE  H11Y18025   3.349   3.649   3.843 -0.4092  1.8890  1.9923
  161SAPE  C31218026   3.173   3.764   3.775 -0.5118  0.7022 -1.1418
  161SAPE  H12X18027   3.127   3.690   3.705 -2.9212  0.0810  0.9651
  161SAPE  H12Y18028   3.172   3.866   3.732  2.2554  1.5009  0.4558
  161SAPE  C31318029   3.101   3.746   3.912 -0.0505 -0.9593  0.4476
  161SAPE  H13X18030   3.123   3.839   3.969 -3.1111  0.9396 -1.2188
  161SAPE  H13Y18031   3.141   3.655   3.963  2.0552 -1.1852 -1.4454
  161SAPE  C31418032   2.953   3.740   3.897 -0.1413  0.6239 -0.2522
  161SAPE  H14X18033   2.927   3.660   3.825 -0.1913 -2.2740  2.7360
  161SAPE  H14Y18034   2.908   3.837   3.865  0.1015 -0.0863 -2.9743
  161SAPE  C31518035   2.894   3.688   4.029  0.1028  0.2388  0.0075
  161SAPE  H15X18036   2.959   3.737   4.105 -1.5381 -0.5373  1.9724
  161SAPE  H15Y18037   2.911   3.579   4.037  0.1058  0.2166 -0.2983
  161SAPE  C31618038   2.748   3.725   4.054 -0.2064  0.1202  0.6045
  161SAPE  H16X18039   2.726   3.833   4.039 -2.8499 -0.2062  1.5396
  161SAPE  H16Y18040   2.726   3.703   4.161  0.9044  1.0012  1.0328
  161SAPE  C31718041   2.643   3.647   3.961  0.1244 -0.0989 -0.0374
  161SAPE  H17X18042   2.659   3.651   3.851  1.5951 -0.6633  0.1289
  161SAPE  H17Y18043   2.544   3.692   3.981  1.0707  1.4597  1.3494
  161SAPE  C31818044   2.638   3.495   3.995 -0.1043  0.1140 -0.1609
  161SAPE  H18X18045   2.741   3.454   4.009  0.4140  0.9421 -1.4106
  161SAPE  H18Y18046   2.583   3.426   3.928 -2.5548  1.0612  0.7830
  161SAPE  H18Z18047   2.591   3.478   4.094  1.9867 -1.2853  0.6731
  162SAPE     N18048   2.633   5.421   1.730  0.0962 -0.3729 -0.1738
  162SAPE   HN118049   2.629   5.488   1.651 -0.0647  2.4412  2.0486
  162SAPE   HN218050   2.713   5.355   1.728  0.8270  0.2619  2.8355
  162SAPE   HN318051   2.546   5.364   1.731 -0.8199  0.9339 -1.2545
  162SAPE   C1218052   2.632   5.499   1.860  0.5637  0.6978  1.2159
  162SAPE  H12A18053   2.535   5.553   1.866 -0.7543 -1.0747 -1.7687
  162SAPE  H12B18054   2.716   5.571   1.850  2.3619 -1.5738 -1.5185
  162SAPE   C1118055   2.647   5.407   1.978 -0.1214 -0.7952 -0.1976
  162SAPE  H11A18056   2.572   5.326   1.966 -1.6639  0.9596 -4.3585
  162SAPE  H11B18057   2.608   5.459   2.069 -0.4209  1.8065 -1.7005
  162SAPE     P18058   2.898   5.439   2.046  0.1800  0.1935 -0.0552
  162SAPE   O1318059   2.985   5.367   2.140  0.5026  0.1093 -0.2642
  162SAPE   O1418060   2.959   5.491   1.920 -0.0011 -0.1512 -0.0751
  162SAPE   O1218061   2.774   5.344   2.002 -0.4459  0.1820  0.0397
  162SAPE   O1118062   2.817   5.557   2.117 -0.3522  0.0143  0.2870
  162SAPE    C118063   2.882   5.658   2.193  0.2595 -0.0235  0.6966
  162SAPE    HA18064   2.992   5.661   2.181  0.3706 -0.8823  1.3902
  162SAPE    HB18065   2.844   5.746   2.137 -1.4087 -0.5631  0.9142
  162SAPE    C218066   2.825   5.645   2.341  0.1305 -0.2776 -0.1034
  162SAPE    HS18067   2.872   5.726   2.401 -0.5839 -1.0100  1.5295
  162SAPE   O2118068   2.859   5.513   2.405  0.4697 -0.4017 -0.0285
  162SAPE   C2118069   2.985   5.482   2.415  1.1900 -0.2359 -0.3635
  162SAPE   O2218070   3.078   5.560   2.399 -0.4207  0.0080 -0.0644
  162SAPE   C2218071   3.001   5.334   2.458  0.2415  0.1637 -0.1300
  162SAPE   H2R18072   2.913   5.273   2.428  0.3792 -0.3646  0.4963
  162SAPE   H2S18073   3.087   5.296   2.399  1.5198  0.7942  1.2524
  162SAPE    C318074   2.676   5.669   2.352 -0.7126  0.4397  0.3108
  162SAPE    HX18075   2.640   5.577   2.303  0.5553  0.0806  0.0234
  162SAPE    HY18076   2.643   5.751   2.285  0.9268  0.1192 -0.9325
  162SAPE   O3118077   2.625   5.682   2.484 -0.7768 -0.3300  0.7260
  162SAPE   C3118078   2.504   5.636   2.513  0.7755  0.6168 -0.1270
  162SAPE   O3218079   2.425   5.586   2.441  0.0487 -0.1156  0.2147
  162SAPE   C3218080   2.484   5.642   2.665  0.3376 -0.1552 -0.8244
  162SAPE   H2X18081   2.438   5.546   2.695 -1.1737  1.0823  1.0121
  162SAPE   H2Y18082   2.403   5.715   2.684 -0.5541 -1.6995  1.8804
  162SAPE   C2318083   3.014   5.323   2.613 -0.5782 -0.6071 -0.7618
  162SAPE   H3R18084   2.996   5.215   2.631 -2.8921 -0.0575  0.6432
  162SAPE   H3S18085   2.939   5.371   2.678  1.0298  0.8708  0.0777
  162SAPE   C2418086   3.161   5.357   2.666 -0.2971 -0.4575 -0.2148
  162SAPE   H4R18087   3.185   5.464   2.651  0.1133 -0.0987  2.4661
  162SAPE   H4S18088   3.233   5.300   2.603  1.8013  0.9171  0.8222
  162SAPE   C2518089   3.177   5.314   2.806  0.1910 -0.3863 -0.6644
  162SAPE   H5R18090   3.196   5.207   2.827  0.9411 -0.4841 -1.7957
  162SAPE   C2618091   3.172   5.406   2.906  0.0802 -0.3031  0.0045
  162SAPE   H6R18092   3.164   5.377   3.012  0.6616  0.2486  0.2047
  162SAPE   C2718093   3.167   5.555   2.895 -0.4786  0.0354 -0.1227
  162SAPE   H7R18094   3.160   5.594   2.791 -2.1609  1.6369  0.5314
  162SAPE   H7S18095   3.272   5.587   2.914 -0.1893 -0.7494 -0.3769
  162SAPE   C2818096   3.060   5.627   2.980 -0.8190  0.7511  0.0133
  162SAPE   H8R18097   2.961   5.603   2.939 -0.5280  0.7992 -0.7235
  162SAPE   C2918098   3.071   5.683   3.096 -0.5820  0.1038 -0.7340
  162SAPE   H9R18099   2.983   5.723   3.149 -0.5896 -0.1248 -0.5712
  162SAPE  C21018100   3.197   5.685   3.182  0.2474 -0.5780  0.4679
  162SAPE  H10R18101   3.218   5.781   3.233 -1.4216  0.5919 -0.9516
  162SAPE  H10S18102   3.283   5.665   3.115 -1.2822  0.8707 -2.0593
  162SAPE  C21118103   3.205   5.578   3.292  0.2643  0.1797 -0.0964
  162SAPE  H11R18104   3.258   5.485   3.264 -0.3998 -0.2223 -0.0557
  162SAPE  C21218105   3.137   5.572   3.405 -0.2054  0.4272 -0.3778
  162SAPE  H12R18106   3.145   5.487   3.474 -0.1361  0.8273  0.1207
  162SAPE  C21318107   3.042   5.679   3.462 -0.2793 -0.2428  0.9996
  162SAPE  H13R18108   2.978   5.623   3.533 -1.4630  2.0809  1.8820
  162SAPE  H13S18109   2.974   5.718   3.383 -1.7927 -3.2350  0.6818
  162SAPE  C21418110   3.097   5.794   3.550 -0.0881  0.8476  0.1005
  162SAPE  H14R18111   3.204   5.780   3.570 -0.1835 -0.9073 -0.4406
  162SAPE  C21518112   3.031   5.903   3.595 -0.2386  0.1113  0.5267
  162SAPE  H15R18113   3.072   5.974   3.669  1.5871  0.3427 -0.6532
  162SAPE  C21618114   2.882   5.918   3.571 -0.4945  0.2738 -0.0849
  162SAPE  H16R18115   2.858   5.870   3.473 -1.5060 -2.9778  1.5975
  162SAPE  H16S18116   2.861   6.027   3.565 -0.8368  0.1470 -1.8739
  162SAPE  C21718117   2.796   5.868   3.687 -0.1276  0.3328 -0.3356
  162SAPE  H17R18118   2.796   5.757   3.682 -2.0214  0.1981  1.3691
  162SAPE  H17S18119   2.690   5.903   3.679 -1.4441 -2.6706  1.9095
  162SAPE  C21818120   2.837   5.923   3.827 -0.6964 -0.6342  0.2491
  162SAPE  H18R18121   2.868   6.029   3.815  1.4599 -1.4291 -2.1054
  162SAPE  H18S18122   2.928   5.872   3.865 -0.1835  1.4065  1.9195
  162SAPE  C21918123   2.721   5.920   3.925  0.0381  0.5823 -0.0335
  162SAPE  H19R18124   2.701   5.812   3.939 -1.5152  0.8780  0.2634
  162SAPE  H19S18125   2.629   5.967   3.882  1.5958  1.7357 -2.2995
  162SAPE  C22018126   2.748   5.987   4.057 -0.0542 -0.4787  0.1513
  162SAPE  H20R18127   2.655   5.978   4.117 -0.8501  1.5481 -0.6641
  162SAPE  H20S18128   2.760   6.095   4.033  1.1498 -1.0133 -1.8561
  162SAPE  H20T18129   2.843   5.949   4.100  1.2773  1.4188 -0.9100
  162SAPE   C3318130   2.606   5.689   2.745  0.3874  0.6750  0.2563
  162SAPE   H3X18131   2.652   5.785   2.714  0.1367  0.6351 -0.2529
  162SAPE   H3Y18132   2.687   5.614   2.730 -1.5144 -1.1079 -1.8408
  162SAPE   C3418133   2.563   5.703   2.894  0.5537  0.6302  0.3078
  162SAPE   H4X18134   2.525   5.603   2.925 -2.4093  1.7213  0.4930
  162SAPE   H4Y18135   2.473   5.767   2.905 -1.7489 -2.5559  1.6176
  162SAPE   C3518136   2.677   5.764   2.971 -0.2626  0.1454 -0.1422
  162SAPE   H5X18137   2.685   5.872   2.944 -1.9147  0.8319  1.8827
  162SAPE   H5Y18138   2.775   5.713   2.961 -0.0244  0.4729  0.4890
  162SAPE   C3618139   2.659   5.749   3.117  0.3550  0.5582  0.6849
  162SAPE   H6X18140   2.751   5.770   3.176 -0.4875  0.7179  1.9934
  162SAPE   H6Y18141   2.617   5.647   3.130 -0.2581  0.0349 -3.8500
  162SAPE   C3718142   2.552   5.837   3.180  0.1085  0.2675 -0.7141
  162SAPE   H7X18143   2.453   5.815   3.136 -0.8032  0.4901  1.1435
  162SAPE   H7Y18144   2.575   5.945   3.176  0.7871  0.1653  0.0782
  162SAPE   C3818145   2.532   5.804   3.333  0.9675  0.0202 -0.0648
  162SAPE   H8X18146   2.624   5.816   3.393  1.2062 -1.3367 -0.1189
  162SAPE   H8Y18147   2.513   5.695   3.340 -2.0118  0.3078 -1.6792
  162SAPE   C3918148   2.408   5.865   3.396 -0.0643 -0.3154 -0.3672
  162SAPE   H9X18149   2.313   5.830   3.350  0.6735 -1.4283 -1.0966
  162SAPE   H9Y18150   2.411   5.974   3.377  0.9825 -0.6840 -2.7325
  162SAPE  C31018151   2.394   5.832   3.544 -0.2144  0.2677 -0.8470
  162SAPE  H10X18152   2.485   5.868   3.597  0.0738 -0.4991 -0.8097
  162SAPE  H10Y18153   2.411   5.722   3.545  0.5618  0.3883 -0.1700
  162SAPE  C31118154   2.260   5.869   3.605 -0.8079 -0.9545  0.3587
  162SAPE  H11X18155   2.180   5.821   3.545 -0.1043  0.2000 -1.5887
  162SAPE  H11Y18156   2.243   5.978   3.588 -1.0689 -0.7373  1.8421
  162SAPE  C31218157   2.246   5.839   3.753  0.0526  0.2606  0.6364
  162SAPE  H12X18158   2.303   5.909   3.818 -1.5849  1.0810  1.2513
  162SAPE  H12Y18159   2.282   5.737   3.775 -0.7896 -0.5016 -1.2933
  162SAPE  C31318160   2.098   5.850   3.798  0.9035  0.1599 -0.5565
  162SAPE  H13X18161   2.066   5.949   3.759  1.0470  1.4858  2.3616
  162SAPE  H13Y18162   2.095   5.863   3.909 -0.3343 -1.0287 -0.4266
  162SAPE  C31418163   2.009   5.727   3.775  0.5418  0.4871 -0.9381
  162SAPE  H14X18164   2.063   5.642   3.822 -1.4977  0.4852  1.6197
  162SAPE  H14Y18165   2.005   5.710   3.665 -2.6498 -1.8436 -0.6330
  162SAPE  C31518166   1.871   5.741   3.831 -0.4826  0.3050 -0.1035
  162SAPE  H15X18167   1.885   5.733   3.941 -0.7153 -1.1399 -0.1583
  162SAPE  H15Y18168   1.814   5.651   3.799 -0.7832  0.3037  0.4217
  162SAPE  C31618169   1.797   5.870   3.800 -0.0759 -0.0205 -0.6799
  162SAPE  H16X18170   1.804   5.879   3.689 -0.9843 -1.8257 -0.9295
  162SAPE  H16Y18171   1.846   5.957   3.848 -1.6701  0.1054  0.7782
  162SAPE  C31718172   1.656   5.872   3.839 -0.0709  0.1424 -0.1678
  162SAPE  H17X18173   1.598   5.795   3.782  0.4949  0.1402 -0.7585
  162SAPE  H17Y18174   1.624   5.975   3.813  1.1397  0.4295 -0.6039
  162SAPE  C31818175   1.648   5.855   3.993  0.4098 -0.5994  0.3377
  162SAPE  H18X18176   1.675   5.753   4.028  0.4147 -0.2558  1.3853
  162SAPE  H18Y18177   1.549   5.886   4.032  0.7556 -1.0536  1.6142
  162SAPE  H18Z18178   1.729   5.919   4.034  0.6971 -0.3807 -0.5473
  163SAPE     N18179   2.454   3.334   2.166 -0.7714  0.0804  0.3605
  163SAPE   HN118180   2.466   3.424   2.216 -0.6372 -0.9409  2.2263
  163SAPE   HN218181   2.369   3.287   2.203  0.2024 -1.1031  1.1687
  163SAPE   HN318182   2.528   3.271   2.204  0.0016  1.0573  0.5131
  163SAPE   C1218183   2.476   3.354   2.020  0.0144  0.0400  0.5737
  163SAPE  H12A18184   2.379   3.349   1.965 -1.1311 -0.6503  2.5411
  163SAPE  H12B18185   2.548   3.277   1.987  0.5925 -0.3798  2.6314
  163SAPE   C1118186   2.551   3.479   1.986 -0.2638 -0.4494  0.3544
  163SAPE  H11A18187   2.553   3.478   1.875 -0.2870  1.6803  0.2976
  163SAPE  H11B18188   2.655   3.466   2.022  0.5527  2.1093 -0.8944
  163SAPE     P18189   2.545   3.672   2.155 -0.1067  0.2537  0.3365
  163SAPE   O1318190   2.685   3.694   2.116  0.0783 -0.3726 -0.4908
  163SAPE   O1418191   2.460   3.792   2.176  0.0736 -0.6464  0.6022
  163SAPE   O1218192   2.485   3.592   2.037 -0.0638 -0.4001  0.3969
  163SAPE   O1118193   2.527   3.580   2.281 -0.2718  0.3580 -0.1256
  163SAPE    C118194   2.558   3.637   2.411 -0.5726 -0.1796  0.3349
  163SAPE    HA18195   2.656   3.688   2.401 -0.4064 -0.7267 -1.0699
  163SAPE    HB18196   2.484   3.715   2.441  1.0876  1.5838  0.0447
  163SAPE    C218197   2.596   3.536   2.518  0.3333  0.1790 -0.5773
  163SAPE    HS18198   2.677   3.475   2.472  1.8936  0.4917  1.6135
  163SAPE   O2118199   2.487   3.459   2.550 -0.1050 -0.0939 -0.3001
  163SAPE   C2118200   2.517   3.337   2.599  0.2457 -0.7537 -0.6669
  163SAPE   O2218201   2.617   3.276   2.581 -0.4539 -0.1351  0.1583
  163SAPE   C2218202   2.389   3.290   2.672  0.1286 -0.1199  0.1404
  163SAPE   H2R18203   2.371   3.363   2.754  1.6773 -1.3505  1.6581
  163SAPE   H2S18204   2.312   3.284   2.592  2.3293 -1.1101 -2.0490
  163SAPE    C318205   2.655   3.596   2.650 -0.2706  0.2060 -0.2972
  163SAPE    HX18206   2.579   3.640   2.718  0.4837 -2.4783  2.5671
  163SAPE    HY18207   2.723   3.680   2.626  0.3898 -0.4379 -0.7453
  163SAPE   O3118208   2.716   3.497   2.736  0.6248 -0.0906  0.3785
  163SAPE   C3118209   2.842   3.464   2.701  0.0779 -0.4979  0.7713
  163SAPE   O3218210   2.900   3.505   2.598 -0.4262 -0.0500  0.5016
  163SAPE   C3218211   2.902   3.357   2.791 -0.2234 -0.4578 -0.2454
  163SAPE   H2X18212   3.001   3.334   2.746  0.9372  0.1827  1.8330
  163SAPE   H2Y18213   2.827   3.275   2.788 -3.2511  1.8864  2.7982
  163SAPE   C2318214   2.405   3.151   2.738 -0.3612 -0.3451  0.6650
  163SAPE   H3R18215   2.456   3.082   2.668 -1.5074 -0.4363 -0.1269
  163SAPE   H3S18216   2.299   3.121   2.755 -0.5907  0.2811  0.4076
  163SAPE   C2418217   2.484   3.161   2.869 -0.2189  1.0607  0.1363
  163SAPE   H4R18218   2.444   3.239   2.937  2.2659  2.6440 -0.1059
  163SAPE   H4S18219   2.589   3.192   2.851 -0.2088  2.5412  2.3337
  163SAPE   C2518220   2.502   3.029   2.932 -0.3847  0.2077 -0.2640
  163SAPE   H5R18221   2.588   2.966   2.902 -0.7329 -0.4071  0.0021
  163SAPE   C2618222   2.429   2.979   3.034  0.1252  0.2577 -0.6528
  163SAPE   H6R18223   2.436   2.876   3.070 -1.3761  0.5717  0.6497
  163SAPE   C2718224   2.323   3.054   3.114 -0.6133  0.1110 -0.5549
  163SAPE   H7R18225   2.249   2.982   3.152  2.5729 -2.3559  1.5172
  163SAPE   H7S18226   2.273   3.134   3.055 -0.4713  1.4019  0.9843
  163SAPE   C2818227   2.404   3.112   3.230  0.3680 -0.2153  0.2697
  163SAPE   H8R18228   2.479   3.188   3.204 -0.3455  0.7501  0.9868
  163SAPE   C2918229   2.400   3.070   3.363 -0.2618 -0.3203 -0.0417
  163SAPE   H9R18230   2.464   3.122   3.435  0.0212  0.0170 -0.5314
  163SAPE  C21018231   2.302   2.969   3.423  0.3502 -0.7487  0.1958
  163SAPE  H10R18232   2.281   2.886   3.352 -1.6297 -2.2497  2.3786
  163SAPE  H10S18233   2.211   3.033   3.425  1.3496  0.7535 -0.3545
  163SAPE  C21118234   2.337   2.918   3.561 -0.7105  0.3353 -0.1361
  163SAPE  H11R18235   2.402   2.831   3.546  1.2997  2.0765 -2.5147
  163SAPE  C21218236   2.292   2.956   3.684  0.1134  0.2443 -0.6287
  163SAPE  H12R18237   2.339   2.905   3.769 -2.0552 -0.7234  0.0863
  163SAPE  C21318238   2.210   3.075   3.722 -0.1620  0.2206 -0.0340
  163SAPE  H13R18239   2.136   3.055   3.803 -0.5711  2.6296  0.2702
  163SAPE  H13S18240   2.164   3.107   3.626 -2.1806 -0.4725  0.6439
  163SAPE  C21418241   2.308   3.182   3.772  0.3428  0.2265 -0.0411
  163SAPE  H14R18242   2.390   3.204   3.702 -1.0778 -0.0681 -1.8783
  163SAPE  C21518243   2.300   3.251   3.884 -0.2236  0.7102 -0.4758
  163SAPE  H15R18244   2.376   3.327   3.909 -0.2347  0.5773 -0.0276
  163SAPE  C21618245   2.194   3.236   3.994  0.5153  0.2651 -0.6948
  163SAPE  H16R18246   2.112   3.168   3.964  0.7267  0.0372 -0.7554
  163SAPE  H16S18247   2.154   3.338   4.015 -0.3818 -0.3094  0.5137
  163SAPE  C21718248   2.246   3.189   4.133 -0.7307  0.1772 -0.0706
  163SAPE  H17R18249   2.313   3.100   4.127  0.1238  0.8415 -0.6965
  163SAPE  H17S18250   2.164   3.178   4.207  1.1784 -0.0017  2.1693
  163SAPE  C21818251   2.347   3.287   4.205 -0.0808  0.9094  0.5448
  163SAPE  H18R18252   2.297   3.386   4.202 -1.2200  0.3480 -1.4849
  163SAPE  H18S18253   2.442   3.300   4.150 -0.9020 -2.1889 -1.9084
  163SAPE  C21918254   2.367   3.241   4.343  0.2531  1.1161 -0.5310
  163SAPE  H19R18255   2.412   3.140   4.334 -1.2366  0.3540  0.2851
  163SAPE  H19S18256   2.268   3.234   4.394  0.1207  3.8599 -0.2521
  163SAPE  C22018257   2.467   3.332   4.419  0.7912  0.3584  0.5059
  163SAPE  H20R18258   2.436   3.439   4.414  4.6326  1.6510  1.0464
  163SAPE  H20S18259   2.567   3.324   4.372  0.0344 -0.1239 -1.1135
  163SAPE  H20T18260   2.481   3.311   4.527  0.6060  2.0816  0.9057
  163SAPE   C3318261   2.938   3.403   2.935  0.8759  0.1344 -0.3169
  163SAPE   H3X18262   3.003   3.493   2.935 -0.6621  1.2997 -0.7832
  163SAPE   H3Y18263   2.990   3.321   2.987  0.7800  0.7838  0.8515
  163SAPE   C3418264   2.820   3.415   3.025  0.2334 -0.1494 -0.8271
  163SAPE   H4X18265   2.768   3.318   3.029  2.2429 -1.2707  0.0330
  163SAPE   H4Y18266   2.756   3.483   2.965  0.8147 -1.7772 -3.4662
  163SAPE   C3518267   2.847   3.470   3.159  0.0900 -0.1071  0.4824
  163SAPE   H5X18268   2.881   3.576   3.162  0.0373 -0.0988  0.7631
  163SAPE   H5Y18269   2.931   3.407   3.195  1.2987  1.2620  0.1490
  163SAPE   C3618270   2.727   3.436   3.252  0.4724  0.6838 -0.0754
  163SAPE   H6X18271   2.696   3.330   3.255  2.0494  0.2191  1.1526
  163SAPE   H6Y18272   2.635   3.490   3.220  0.2592 -1.1250 -2.8147
  163SAPE   C3718273   2.767   3.463   3.397 -0.5560  0.5737  0.9186
  163SAPE   H7X18274   2.814   3.563   3.406  0.8614  0.0552 -0.2844
  163SAPE   H7Y18275   2.856   3.399   3.417 -0.8415  0.1296  0.7987
  163SAPE   C3818276   2.652   3.430   3.497 -0.5488 -0.1764  0.1886
  163SAPE   H8X18277   2.684   3.446   3.602  0.6760 -0.9472 -0.0444
  163SAPE   H8Y18278   2.618   3.324   3.488  1.0127 -0.7323  0.5378
  163SAPE   C3918279   2.535   3.524   3.483 -0.1385 -0.0721  0.4538
  163SAPE   H9X18280   2.477   3.500   3.391  0.3808 -0.8402  0.3218
  163SAPE   H9Y18281   2.575   3.624   3.454 -0.7251 -0.3672 -1.5299
  163SAPE  C31018282   2.452   3.535   3.608  0.0087 -0.4079  0.2303
  163SAPE  H10X18283   2.509   3.576   3.693  1.5058  0.3344 -1.0726
  163SAPE  H10Y18284   2.420   3.434   3.643 -0.0507 -0.3586  0.3177
  163SAPE  C31118285   2.321   3.610   3.583 -0.2895  0.1435 -0.3932
  163SAPE  H11X18286   2.264   3.558   3.503 -0.9400 -0.1978  0.2775
  163SAPE  H11Y18287   2.352   3.715   3.561 -0.7546  0.9430  2.4204
  163SAPE  C31218288   2.221   3.602   3.704  0.0583  0.5759  0.4285
  163SAPE  H12X18289   2.187   3.497   3.719  1.1248  0.1945  0.2563
  163SAPE  H12Y18290   2.129   3.660   3.681 -0.6486  0.3865  2.5781
  163SAPE  C31318291   2.285   3.652   3.837 -0.1946  0.5027  0.1420
  163SAPE  H13X18292   2.319   3.757   3.825 -0.3330  0.6912  1.3380
  163SAPE  H13Y18293   2.376   3.599   3.871 -0.2518 -0.7552 -1.5527
  163SAPE  C31418294   2.187   3.638   3.956 -0.6283 -0.2660 -0.3026
  163SAPE  H14X18295   2.139   3.539   3.943  1.0086 -0.9711 -1.1521
  163SAPE  H14Y18296   2.100   3.704   3.934 -2.2875 -1.2865  2.6331
  163SAPE  C31518297   2.253   3.669   4.093 -0.0299 -0.3674 -0.0163
  163SAPE  H15X18298   2.344   3.608   4.112  0.5191  1.0520  2.4923
  163SAPE  H15Y18299   2.173   3.647   4.167  0.1866 -2.8261 -0.4503
  163SAPE  C31618300   2.290   3.816   4.098 -0.2316 -0.3991  0.1767
  163SAPE  H16X18301   2.202   3.878   4.071 -0.0446 -0.1765  0.0716
  163SAPE  H16Y18302   2.365   3.836   4.018 -1.0588  2.0032 -0.0930
  163SAPE  C31718303   2.342   3.861   4.232 -0.9940 -0.0489 -0.2602
  163SAPE  H17X18304   2.428   3.792   4.247 -0.3141  0.8456  0.0565
  163SAPE  H17Y18305   2.271   3.835   4.314  0.1007  0.1220  0.7746
  163SAPE  C31818306   2.390   4.011   4.243  0.5445 -0.5252 -0.2062
  163SAPE  H18X18307   2.457   4.021   4.155 -0.0904 -2.2717 -0.9480
  163SAPE  H18Y18308   2.449   4.040   4.332  3.4223 -0.0068 -2.1347
  163SAPE  H18Z18309   2.305   4.081   4.231  1.9379  1.0914 -0.9791
  164SAPE     N18310   5.490   0.522   1.763 -0.1946  0.9020  0.4154
  164SAPE   HN118311   5.567   0.478   1.708  1.8004  2.0250  2.1553
  164SAPE   HN218312   5.443   0.451   1.824 -2.1503  2.6178  1.0245
  164SAPE   HN318313   5.420   0.558   1.694  0.3783 -0.9280 -1.2268
  164SAPE   C1218314   5.527   0.644   1.838 -0.6361 -0.0091  0.1629
  164SAPE  H12A18315   5.448   0.661   1.914  0.0735  0.8216  0.7306
  164SAPE  H12B18316   5.526   0.728   1.765  0.6522 -1.5245 -1.7177
  164SAPE   C1118317   5.673   0.650   1.894 -0.1614  0.1853 -0.4665
  164SAPE  H11A18318   5.683   0.582   1.981  0.6313  1.4045  0.4304
  164SAPE  H11B18319   5.689   0.750   1.940 -0.3091  0.1159 -0.2612
  164SAPE     P18320   5.855   0.697   1.719  0.4342 -0.0622  0.0690
  164SAPE   O1318321   5.964   0.624   1.654  0.0906  0.6955  0.6969
  164SAPE   O1418322   5.775   0.784   1.636 -0.4086  0.3233  0.5246
  164SAPE   O1218323   5.762   0.601   1.797  0.5104 -0.1785  0.1159
  164SAPE   O1118324   5.922   0.786   1.831  0.1490  0.0923 -0.4449
  164SAPE    C118325   6.047   0.861   1.814 -0.4867  0.8779 -0.2859
  164SAPE    HA18326   6.045   0.913   1.716 -2.4098 -0.7899 -1.2131
  164SAPE    HB18327   6.057   0.933   1.898  3.1826 -0.6605  0.8007
  164SAPE    C218328   6.178   0.785   1.832  0.2780 -0.1863 -0.1924
  164SAPE    HS18329   6.186   0.699   1.762  2.2164 -0.5409  0.3854
  164SAPE   O2118330   6.190   0.740   1.969 -0.5782  0.4684  0.4414
  164SAPE   C2118331   6.275   0.641   1.994 -0.1450 -0.6008  0.5023
  164SAPE   O2218332   6.343   0.585   1.911 -0.4421  0.4283  0.2090
  164SAPE   C2218333   6.271   0.607   2.142 -0.1560 -0.4419  0.1474
  164SAPE   H2R18334   6.220   0.688   2.199 -0.6661 -0.3359 -0.4405
  164SAPE   H2S18335   6.207   0.517   2.149 -1.2976  0.3670  0.3831
  164SAPE    C318336   6.288   0.888   1.798  0.6818 -0.6076  0.2813
  164SAPE    HX18337   6.261   0.942   1.704  2.6474 -2.1867 -1.2839
  164SAPE    HY18338   6.387   0.842   1.777  0.1866 -1.9827  0.8154
  164SAPE   O3118339   6.295   0.992   1.901  0.5761 -0.5016 -0.1965
  164SAPE   C3118340   6.407   1.004   1.975 -0.0752  0.4924 -0.8426
  164SAPE   O3218341   6.502   0.930   1.963 -0.5526 -0.0440 -0.1072
  164SAPE   C3218342   6.402   1.123   2.069 -0.1050  0.2492  0.7475
  164SAPE   H2X18343   6.302   1.171   2.065 -0.2281  0.1138  1.7809
  164SAPE   H2Y18344   6.482   1.189   2.030  2.0240 -2.7541 -0.3530
  164SAPE   C2318345   6.423   0.573   2.197  0.9652  0.1392 -0.0353
  164SAPE   H3R18346   6.459   0.676   2.219  2.3227 -0.4034  0.3320
  164SAPE   H3S18347   6.474   0.514   2.118 -1.2771 -1.1690 -0.6056
  164SAPE   C2418348   6.416   0.485   2.325 -0.1584 -0.1591 -0.7225
  164SAPE   H4R18349   6.514   0.432   2.336  0.8977  1.1999 -3.0097
  164SAPE   H4S18350   6.333   0.413   2.305 -0.9593  0.3798  0.5349
  164SAPE   C2518351   6.380   0.560   2.459  0.2808 -0.9437  0.0161
  164SAPE   H5R18352   6.299   0.634   2.448  0.9016 -0.0985  0.9057
  164SAPE   C2618353   6.437   0.563   2.577  1.0374 -0.1446 -0.3780
  164SAPE   H6R18354   6.390   0.621   2.658 -1.6761 -0.1537 -1.8137
  164SAPE   C2718355   6.550   0.473   2.619 -0.3591  0.8788 -0.2324
  164SAPE   H7R18356   6.647   0.521   2.641 -1.1618  0.9999  3.8815
  164SAPE   H7S18357   6.569   0.401   2.536  0.1154  0.3800  0.2956
  164SAPE   C2818358   6.533   0.366   2.725 -0.2940 -0.5064 -0.5050
  164SAPE   H8R18359   6.458   0.287   2.707 -1.2489 -0.1711  1.7396
  164SAPE   C2918360   6.597   0.358   2.849  1.2153 -0.9618 -0.8630
  164SAPE   H9R18361   6.565   0.277   2.915 -1.0921 -0.0814 -0.7967
  164SAPE  C21018362   6.682   0.462   2.906  0.3457 -1.0794 -0.1798
  164SAPE  H10R18363   6.704   0.543   2.832 -2.5442 -0.0357 -0.0589
  164SAPE  H10S18364   6.772   0.407   2.939  2.3133  1.0477 -1.6800
  164SAPE  C21118365   6.600   0.527   3.016  0.1615 -0.0533 -0.3886
  164SAPE  H11R18366   6.494   0.505   3.033  0.5819 -0.2368  2.4578
  164SAPE  C21218367   6.669   0.612   3.100  0.9072 -0.2043 -0.3197
  164SAPE  H12R18368   6.619   0.645   3.193 -0.6555 -0.4016 -1.0509
  164SAPE  C21318369   6.805   0.683   3.077 -0.0430  0.3896 -0.1727
  164SAPE  H13R18370   6.809   0.704   2.968  0.9512  1.0108 -0.0308
  164SAPE  H13S18371   6.886   0.613   3.104  1.1501  1.8280  0.1482
  164SAPE  C21418372   6.823   0.812   3.146 -0.2716 -1.4675  0.1159
  164SAPE  H14R18373   6.805   0.897   3.078 -1.7468  0.1615  2.4206
  164SAPE  C21518374   6.846   0.839   3.277 -0.4056 -0.6423  0.2114
  164SAPE  H15R18375   6.872   0.943   3.303 -0.9431 -0.1885 -0.9881
  164SAPE  C21618376   6.863   0.739   3.388 -0.5661  0.5823 -0.2109
  164SAPE  H16R18377   6.936   0.785   3.457  1.1757 -2.1961 -0.0325
  164SAPE  H16S18378   6.912   0.646   3.352  0.5161  0.1660  2.2189
  164SAPE  C21718379   6.743   0.693   3.467  0.4580 -0.1117 -0.4917
  164SAPE  H17R18380   6.664   0.639   3.411  0.0711  0.4915 -0.5370
  164SAPE  H17S18381   6.692   0.784   3.505 -1.2684 -0.5903 -1.5268
  164SAPE  C21818382   6.770   0.605   3.590  0.4461  0.0060  0.8390
  164SAPE  H18R18383   6.857   0.651   3.641 -0.2844  2.1062  0.3183
  164SAPE  H18S18384   6.804   0.502   3.568 -1.3412 -0.4433 -0.0512
  164SAPE  C21918385   6.653   0.585   3.687 -0.4891 -0.0068  0.5513
  164SAPE  H19R18386   6.690   0.509   3.759  0.0823 -2.7242 -2.3906
  164SAPE  H19S18387   6.560   0.541   3.644  0.2319 -2.0792  0.9908
  164SAPE  C22018388   6.607   0.717   3.761 -0.2986 -0.2231 -0.2835
  164SAPE  H20R18389   6.555   0.783   3.689 -3.7967 -0.7853  1.4792
  164SAPE  H20S18390   6.697   0.766   3.803  0.0858 -0.7467 -0.4862
  164SAPE  H20T18391   6.540   0.694   3.847 -0.5227 -0.8486 -0.6237
  164SAPE   C3318392   6.428   1.085   2.213 -0.7734  0.1862 -0.3990
  164SAPE   H3X18393   6.427   1.176   2.276 -0.1443 -0.0465 -0.0426
  164SAPE   H3Y18394   6.524   1.029   2.218 -0.5178  0.4813 -1.6266
  164SAPE   C3418395   6.311   1.001   2.270 -1.1607 -0.1761 -0.1995
  164SAPE   H4X18396   6.262   0.941   2.190 -1.6874 -1.5817  1.1265
  164SAPE   H4Y18397   6.238   1.080   2.297 -0.3863  0.0352  1.3688
  164SAPE   C3518398   6.347   0.919   2.390  0.1824 -0.0329  0.6541
  164SAPE   H5X18399   6.440   0.859   2.382  0.4285  0.2133  1.5783
  164SAPE   H5Y18400   6.275   0.837   2.412  1.9205 -2.0152 -0.5671
  164SAPE   C3618401   6.367   1.006   2.515 -0.3711  0.3868  0.0508
  164SAPE   H6X18402   6.272   1.062   2.533  0.2654  2.1861 -1.6770
  164SAPE   H6Y18403   6.439   1.091   2.505 -1.7455  1.4624 -1.3735
  164SAPE   C3718404   6.410   0.916   2.627 -0.2632  0.2336 -0.1948
  164SAPE   H7X18405   6.495   0.848   2.604  1.5230  1.6139  1.8369
  164SAPE   H7Y18406   6.320   0.852   2.637 -0.7513  0.8726 -0.4367
  164SAPE   C3818407   6.436   0.987   2.759 -0.9361 -0.3953 -0.0874
  164SAPE   H8X18408   6.353   1.059   2.774  0.5749  1.8311 -1.7442
  164SAPE   H8Y18409   6.522   1.052   2.732 -0.7212 -1.5041 -2.3652
  164SAPE   C3918410   6.455   0.908   2.889 -0.2178  0.9315  0.0694
  164SAPE   H9X18411   6.541   0.837   2.888 -0.7319  0.1507  2.7111
  164SAPE   H9Y18412   6.364   0.849   2.911 -0.7169  1.8668  0.5173
  164SAPE  C31018413   6.488   1.003   3.005  0.8294  0.0070 -0.4203
  164SAPE  H10X18414   6.416   1.086   2.988  1.9393  1.4881  1.7202
  164SAPE  H10Y18415   6.591   1.044   3.002  2.1471 -3.0258 -0.1497
  164SAPE  C31118416   6.450   0.959   3.153  0.2983 -0.6460  0.2868
  164SAPE  H11X18417   6.510   0.868   3.178  0.1801 -1.0837 -0.9520
  164SAPE  H11Y18418   6.340   0.950   3.166 -0.1086  2.1353 -0.5592
  164SAPE  C31218419   6.497   1.059   3.257  0.2942  0.6738  0.2081
  164SAPE  H12X18420   6.464   1.165   3.251 -1.1457  0.3580  1.6936
  164SAPE  H12Y18421   6.608   1.065   3.262  0.4504 -1.5126  0.3758
  164SAPE  C31318422   6.446   1.007   3.399 -0.0978 -0.3431  0.3840
  164SAPE  H13X18423   6.516   0.927   3.430 -0.5981 -1.4943 -1.3196
  164SAPE  H13Y18424   6.344   0.965   3.391  0.0143 -0.4827 -0.4175
  164SAPE  C31418425   6.445   1.126   3.502  0.0209  0.2640  0.0506
  164SAPE  H14X18426   6.365   1.197   3.472 -0.2121  0.3503  0.8407
  164SAPE  H14Y18427   6.546   1.171   3.513  0.5619 -0.9180  0.0752
  164SAPE  C31518428   6.420   1.080   3.647 -0.1228 -0.5342  0.4278
  164SAPE  H15X18429   6.498   1.006   3.677 -0.5906 -0.0029  3.2053
  164SAPE  H15Y18430   6.324   1.024   3.647  0.3321 -1.4003 -1.1644
  164SAPE  C31618431   6.431   1.197   3.742  0.3236 -0.7583 -0.3249
  164SAPE  H16X18432   6.355   1.269   3.706  0.9210 -1.2424 -2.7705
  164SAPE  H16Y18433   6.526   1.254   3.739  0.1635 -0.4698  0.0028
  164SAPE  C31718434   6.398   1.149   3.886 -0.3736 -0.5656  0.3185
  164SAPE  H17X18435   6.439   1.229   3.951  0.8628 -0.9163 -0.0075
  164SAPE  H17Y18436   6.435   1.046   3.905  2.7531  0.7799  2.2598
  164SAPE  C31818437   6.246   1.136   3.909 -0.5917  0.3170  0.0232
  164SAPE  H18X18438   6.232   1.111   4.016  1.0014 -0.4266  0.0871
  164SAPE  H18Y18439   6.206   1.049   3.852 -3.0745  1.7341 -0.5831
  164SAPE  H18Z18440   6.191   1.226   3.876 -0.7530 -0.0975 -0.8861
  165SAPE     N18441   0.392   4.967   2.054  0.3758 -1.0099 -0.0466
  165SAPE   HN118442   0.429   5.022   1.973 -0.2383 -0.5576 -0.0250
  165SAPE   HN218443   0.436   5.013   2.136 -0.5891  0.3921 -0.2844
  165SAPE   HN318444   0.433   4.874   2.034 -1.6358 -1.8185 -0.7091
  165SAPE   C1218445   0.240   4.965   2.063  0.3450  0.4165  0.4466
  165SAPE  H12A18446   0.199   4.980   1.960  1.2497 -1.5073 -0.2377
  165SAPE  H12B18447   0.216   5.049   2.132 -2.1100  0.3034 -0.1608
  165SAPE   C1118448   0.205   4.823   2.113  0.1512  0.3966 -0.2090
  165SAPE  H11A18449   0.094   4.821   2.120  0.2418  0.5084  1.5572
  165SAPE  H11B18450   0.240   4.824   2.218 -0.7676  2.4194  0.1418
  165SAPE     P18451   0.143   4.640   1.935  0.2156 -0.2042  0.3874
  165SAPE   O1318452   0.106   4.724   1.816 -0.3096 -0.4542 -0.3939
  165SAPE   O1418453   0.198   4.508   1.887 -0.3152 -0.5248  0.0146
  165SAPE   O1218454   0.248   4.715   2.031 -0.1714 -0.2666  0.1279
  165SAPE   O1118455   0.010   4.611   2.025  0.6569  0.3263  0.4112
  165SAPE    C118456   0.015   4.519   2.139  0.2952  0.8795  0.7636
  165SAPE    HA18457   0.008   4.414   2.102 -0.0819  1.0605  0.3140
  165SAPE    HB18458   0.112   4.529   2.194  0.9022 -0.9123  0.0945
  165SAPE    C218459  -0.104   4.541   2.230 -0.2733  0.1378  0.7408
  165SAPE    HS18460  -0.192   4.567   2.168  0.0272 -2.9101 -1.1835
  165SAPE   O2118461  -0.061   4.642   2.322 -0.0263  0.3792 -0.4629
  165SAPE   C2118462  -0.104   4.762   2.289  0.4528  0.0694  0.2005
  165SAPE   O2218463  -0.185   4.793   2.204 -0.5222  0.3207  0.0925
  165SAPE   C2218464  -0.071   4.866   2.397 -0.5222  0.2589  0.6613
  165SAPE   H2R18465  -0.154   4.940   2.397 -1.7861 -1.0975  1.0951
  165SAPE   H2S18466  -0.074   4.798   2.485 -2.0861 -4.2195 -2.4900
  165SAPE    C318467  -0.145   4.419   2.315  0.5834  0.5926 -0.3898
  165SAPE    HX18468  -0.054   4.396   2.375 -1.8266 -3.5181  2.1467
  165SAPE    HY18469  -0.178   4.330   2.258 -1.9942  1.8597 -1.0498
  165SAPE   O3118470  -0.241   4.462   2.420 -0.0468 -0.1260  0.2259
  165SAPE   C3118471  -0.367   4.449   2.377  0.5438  0.6388 -0.5879
  165SAPE   O3218472  -0.404   4.414   2.267 -0.3655  0.4921 -0.1132
  165SAPE   C3218473  -0.462   4.498   2.490 -0.1631 -0.0236  0.6070
  165SAPE   H2X18474  -0.557   4.532   2.443 -0.0248  1.2547  1.1778
  165SAPE   H2Y18475  -0.415   4.584   2.543 -1.5677  1.3086 -0.2161
  165SAPE   C2318476   0.066   4.934   2.390  0.2381 -0.3581 -0.4063
  165SAPE   H3R18477   0.072   5.007   2.306 -2.3341  2.7008  1.8109
  165SAPE   H3S18478   0.153   4.867   2.385  2.5223  2.3919 -0.1164
  165SAPE   C2418479   0.091   5.027   2.509 -0.1233 -0.5140  0.6304
  165SAPE   H4R18480   0.062   4.979   2.605  0.5838  0.1074  1.1670
  165SAPE   H4S18481   0.022   5.114   2.502 -0.6975 -1.0637 -1.0579
  165SAPE   C2518482   0.231   5.079   2.525 -0.2727  0.2812 -0.1779
  165SAPE   H5R18483   0.279   5.116   2.434  0.1468  0.0434 -0.0569
  165SAPE   C2618484   0.306   5.094   2.642 -0.0649 -0.0908 -0.1944
  165SAPE   H6R18485   0.412   5.119   2.628 -0.1140 -0.4257 -1.2711
  165SAPE   C2718486   0.259   5.042   2.777 -0.5246  0.1036  0.2733
  165SAPE   H7R18487   0.347   5.002   2.831  0.6863  1.4036 -0.6512
  165SAPE   H7S18488   0.187   4.957   2.779  0.0261 -0.3462  1.6702
  165SAPE   C2818489   0.188   5.159   2.842 -0.6078 -0.4220 -0.1815
  165SAPE   H8R18490   0.171   5.248   2.780  0.1700  0.8549  1.3350
  165SAPE   C2918491   0.152   5.170   2.973 -0.2214  0.9088 -0.4222
  165SAPE   H9R18492   0.077   5.245   3.002 -1.0438 -0.5033  1.3206
  165SAPE  C21018493   0.166   5.054   3.069  0.0131  0.3497  0.2015
  165SAPE  H10R18494   0.192   4.961   3.013  1.9007  1.1265 -0.3302
  165SAPE  H10S18495   0.067   5.032   3.114  1.2096 -3.7929  1.1931
  165SAPE  C21118496   0.277   5.096   3.166  0.5728 -0.2294 -0.3410
  165SAPE  H11R18497   0.314   5.199   3.174 -1.0169  0.3899 -0.7556
  165SAPE  C21218498   0.335   5.000   3.239 -0.1659 -1.0150  0.2797
  165SAPE  H12R18499   0.408   5.030   3.316 -2.0785  0.9218  1.4414
  165SAPE  C21318500   0.296   4.859   3.242 -0.5107 -0.7228  0.2735
  165SAPE  H13R18501   0.376   4.809   3.302 -0.1242 -1.4375 -0.8228
  165SAPE  H13S18502   0.324   4.813   3.145  2.1118  2.1534 -0.4877
  165SAPE  C21418503   0.152   4.830   3.282  0.0682  0.1542  0.0286
  165SAPE  H14R18504   0.085   4.798   3.201 -1.6560 -0.9515  1.8060
  165SAPE  C21518505   0.111   4.825   3.412  0.0431  0.5845  0.0716
  165SAPE  H15R18506   0.004   4.809   3.429 -0.2562 -0.8874 -2.6189
  165SAPE  C21618507   0.186   4.840   3.540 -0.1170  0.2434 -0.1419
  165SAPE  H16R18508   0.137   4.899   3.620  1.8852  0.4260  1.0152
  165SAPE  H16S18509   0.271   4.911   3.534  1.3249 -1.4172 -0.3290
  165SAPE  C21718510   0.219   4.704   3.607  0.6423 -0.0808 -0.7962
  165SAPE  H17R18511   0.289   4.735   3.688 -0.8372  1.9581 -0.2055
  165SAPE  H17S18512   0.291   4.657   3.537  1.2703 -1.1510  0.5155
  165SAPE  C21818513   0.097   4.617   3.639 -0.4779  0.2058 -0.6140
  165SAPE  H18R18514   0.075   4.563   3.544 -0.3112  0.0752 -0.5779
  165SAPE  H18S18515   0.012   4.688   3.658  1.3405  2.1023  0.9345
  165SAPE  C21918516   0.132   4.536   3.761  0.8281  0.0004  0.1999
  165SAPE  H19R18517   0.163   4.600   3.846 -0.1243 -0.5241  0.9637
  165SAPE  H19S18518   0.208   4.459   3.735 -0.9042 -2.8906  2.9743
  165SAPE  C22018519   0.015   4.453   3.811 -0.9525  0.7847  0.7483
  165SAPE  H20R18520   0.054   4.376   3.882 -1.7192 -0.2360  0.0729
  165SAPE  H20S18521  -0.045   4.397   3.737 -0.6790 -1.0961  1.8657
  165SAPE  H20T18522  -0.066   4.517   3.851 -2.4026  1.3472 -2.7446
  165SAPE   C3318523  -0.500   4.392   2.588 -0.5673  0.2516  0.3430
  165SAPE   H3X18524  -0.413   4.365   2.652  0.6908  2.2730 -0.4218
  165SAPE   H3Y18525  -0.557   4.306   2.546 -1.2460 -0.3331  2.3310
  165SAPE   C3418526  -0.596   4.446   2.693 -0.3992 -0.0450 -0.4331
  165SAPE   H4X18527  -0.695   4.462   2.644  0.0497  1.9724 -0.7721
  165SAPE   H4Y18528  -0.575   4.550   2.726  0.3305 -0.2514 -0.2399
  165SAPE   C3518529  -0.622   4.352   2.812  0.3729  0.0693 -0.2723
  165SAPE   H5X18530  -0.529   4.318   2.863  0.2910  0.3734  0.0829
  165SAPE   H5Y18531  -0.689   4.269   2.780 -2.0715  1.6851  0.4050
  165SAPE   C3618532  -0.697   4.418   2.926  0.4722  0.3661  0.4618
  165SAPE   H6X18533  -0.792   4.465   2.893  0.2195  0.0334  0.7133
  165SAPE   H6Y18534  -0.632   4.501   2.962  2.2271 -1.2554  1.1648
  165SAPE   C3718535  -0.708   4.326   3.054  0.2337 -0.1703  0.6502
  165SAPE   H7X18536  -0.610   4.329   3.105  0.6635 -0.1316 -0.1667
  165SAPE   H7Y18537  -0.734   4.222   3.025  1.6859 -0.7299  1.2922
  165SAPE   C3818538  -0.804   4.386   3.161  0.6015  0.1410 -0.7823
  165SAPE   H8X18539  -0.908   4.370   3.128  0.9427 -1.7969 -1.0507
  165SAPE   H8Y18540  -0.800   4.497   3.170 -0.8796  0.1666 -0.2031
  165SAPE   C3918541  -0.781   4.330   3.302  0.1965 -0.2380  0.0698
  165SAPE   H9X18542  -0.674   4.335   3.328 -0.1190 -2.6190  2.0812
  165SAPE   H9Y18543  -0.815   4.224   3.304  1.3074 -0.5887  2.4129
  165SAPE  C31018544  -0.859   4.401   3.410  0.3948  0.0365  0.2429
  165SAPE  H10X18545  -0.967   4.380   3.393  0.7983 -0.4985 -1.9697
  165SAPE  H10Y18546  -0.851   4.512   3.416 -1.2110  0.2038 -0.1678
  165SAPE  C31118547  -0.816   4.348   3.544  0.0369  0.5777 -0.2902
  165SAPE  H11X18548  -0.706   4.356   3.556  0.5015 -3.0111 -0.9565
  165SAPE  H11Y18549  -0.845   4.242   3.562 -0.1032  0.7502  0.5051
  165SAPE  C31218550  -0.888   4.430   3.659 -0.0000  0.4357 -0.2375
  165SAPE  H12X18551  -0.998   4.414   3.666 -0.2153  1.7461 -0.3142
  165SAPE  H12Y18552  -0.876   4.534   3.623 -2.2109  1.4086  1.6122
  165SAPE  C31318553  -0.814   4.405   3.787 -1.0837 -0.2435 -0.1783
  165SAPE  H13X18554  -0.715   4.451   3.767 -1.4746 -0.0418 -1.8488
  165SAPE  H13Y18555  -0.806   4.296   3.807 -0.1105 -0.0315  0.6648
  165SAPE  C31418556  -0.866   4.481   3.910 -0.6258  0.4315  0.4128
  165SAPE  H14X18557  -0.941   4.554   3.873 -3.0048 -2.7253 -1.4339
  165SAPE  H14Y18558  -0.782   4.536   3.959 -0.7284  1.0628 -0.1105
  165SAPE  C31518559  -0.934   4.386   4.007 -0.0922  0.4355 -0.1170
  165SAPE  H15X18560  -0.880   4.290   4.018 -1.4022 -0.2889  0.1623
  165SAPE  H15Y18561  -1.033   4.369   3.959  0.1579 -1.1609 -0.1095
  165SAPE  C31618562  -0.946   4.446   4.145  0.0881 -0.1187 -0.0376
  165SAPE  H16X18563  -0.996   4.545   4.132 -1.1190 -0.6475  0.4177
  165SAPE  H16Y18564  -0.841   4.478   4.162  0.9446 -0.3698 -3.8295
  165SAPE  C31718565  -1.007   4.358   4.257  0.4735 -0.0194  0.1280
  165SAPE  H17X18566  -0.942   4.270   4.283 -1.3513 -1.1007  1.2334
  165SAPE  H17Y18567  -1.108   4.324   4.226  0.5167  0.5626 -0.6469
  165SAPE  C31818568  -1.030   4.431   4.391  0.7489  0.7051  0.6973
  165SAPE  H18X18569  -0.952   4.508   4.411  1.2218 -0.5361  4.4488
  165SAPE  H18Y18570  -1.046   4.361   4.475 -1.8920  0.2150 -0.1285
  165SAPE  H18Z18571  -1.127   4.485   4.380 -0.1854 -1.2321 -1.5042
  166SAPE     N18572   5.010   2.842   2.062  0.2543 -0.0734 -0.4408
  166SAPE   HN118573   4.988   2.833   2.163 -0.0761  3.5769 -0.0473
  166SAPE   HN218574   5.058   2.756   2.030 -0.3009 -0.4128 -0.3932
  166SAPE   HN318575   5.076   2.920   2.045 -1.7863  1.7680 -0.4679
  166SAPE   C1218576   4.873   2.856   1.999 -0.1115  0.2179  0.0984
  166SAPE  H12A18577   4.826   2.758   2.023  0.7237 -0.2700 -0.1995
  166SAPE  H12B18578   4.881   2.859   1.889  0.1233 -1.0614  0.0639
  166SAPE   C1118579   4.799   2.972   2.071  0.0195 -0.9487  0.1233
  166SAPE  H11A18580   4.701   2.997   2.025  0.0518 -0.0392  0.5357
  166SAPE  H11B18581   4.871   3.056   2.060  0.8111 -1.5430  0.6335
  166SAPE     P18582   4.673   2.984   2.309 -0.0384  0.1824 -0.2445
  166SAPE   O1318583   4.553   2.931   2.245 -0.1048 -0.4427 -0.0015
  166SAPE   O1418584   4.712   2.924   2.438 -0.2331 -0.6506 -0.2911
  166SAPE   O1218585   4.788   2.949   2.212  0.2111 -0.0145  0.6213
  166SAPE   O1118586   4.678   3.139   2.311  0.5878  0.6676 -0.4231
  166SAPE    C118587   4.802   3.212   2.287  0.2559 -0.2362  0.0108
  166SAPE    HA18588   4.897   3.171   2.325 -0.0438  0.4370  1.5703
  166SAPE    HB18589   4.824   3.240   2.182  0.9987  0.2224  0.2839
  166SAPE    C218590   4.795   3.350   2.359  0.5276  0.5708 -0.2815
  166SAPE    HS18591   4.901   3.380   2.374  0.5344  0.8703 -0.9011
  166SAPE   O2118592   4.723   3.348   2.484  0.1480  0.3595 -0.3163
  166SAPE   C2118593   4.768   3.260   2.570 -0.0652  0.2157  0.5478
  166SAPE   O2218594   4.889   3.219   2.577  0.3281  0.3543  0.0519
  166SAPE   C2218595   4.664   3.228   2.664 -0.2620  1.4390 -0.0031
  166SAPE   H2R18596   4.613   3.325   2.683 -3.1131  0.5811 -2.4531
  166SAPE   H2S18597   4.593   3.162   2.610 -1.0159  1.5595  0.8127
  166SAPE    C318598   4.733   3.463   2.276  0.5919  0.0420  0.5732
  166SAPE    HX18599   4.622   3.464   2.280  0.6135  0.1790  1.2685
  166SAPE    HY18600   4.758   3.461   2.168  1.0286  3.1405  0.5458
  166SAPE   O3118601   4.780   3.595   2.322  0.0431 -0.4365  0.1632
  166SAPE   C3118602   4.904   3.619   2.286  0.7721 -0.6235  0.0867
  166SAPE   O3218603   4.973   3.545   2.222 -0.8999 -0.4043  0.4120
  166SAPE   C3218604   4.955   3.764   2.312 -0.6420 -0.2776 -0.4066
  166SAPE   H2X18605   4.898   3.813   2.394  0.1082  0.6542 -0.4304
  166SAPE   H2Y18606   4.930   3.824   2.222 -1.0026  0.1965  0.0003
  166SAPE   C2318607   4.708   3.152   2.789 -0.0728 -0.8717  0.0551
  166SAPE   H3R18608   4.796   3.202   2.836 -0.3772  1.0138 -1.2545
  166SAPE   H3S18609   4.740   3.047   2.771 -2.5049 -1.5813 -0.4831
  166SAPE   C2418610   4.592   3.135   2.895 -0.0570 -0.5448  0.5123
  166SAPE   H4R18611   4.618   3.057   2.969 -0.6538  1.2262  2.6806
  166SAPE   H4S18612   4.504   3.087   2.846 -1.2986  1.3577  0.7803
  166SAPE   C2518613   4.552   3.260   2.963  0.0094 -0.2844 -0.1264
  166SAPE   H5R18614   4.465   3.307   2.914 -0.1153 -1.5589 -1.2026
  166SAPE   C2618615   4.587   3.302   3.085 -0.2953 -0.0680 -0.1138
  166SAPE   H6R18616   4.522   3.376   3.134 -1.8458 -0.2015 -1.8293
  166SAPE   C2718617   4.704   3.244   3.161  0.0752 -0.9738 -0.4466
  166SAPE   H7R18618   4.721   3.322   3.238  0.3692 -2.1579  0.7172
  166SAPE   H7S18619   4.798   3.240   3.103 -0.7286  0.0788 -1.8979
  166SAPE   C2818620   4.677   3.116   3.235 -0.5042 -0.1158 -0.0056
  166SAPE   H8R18621   4.620   3.039   3.181  0.9684 -0.1792 -1.5499
  166SAPE   C2918622   4.728   3.088   3.360  0.4471  0.6141  0.5380
  166SAPE   H9R18623   4.697   2.989   3.395 -2.2248  1.1446 -0.0910
  166SAPE  C21018624   4.798   3.186   3.451 -0.0188 -0.4263 -0.1297
  166SAPE  H10R18625   4.720   3.210   3.526 -0.3084 -1.2584 -0.1453
  166SAPE  H10S18626   4.818   3.289   3.415 -4.2273  0.7121  0.2446
  166SAPE  C21118627   4.924   3.137   3.517  0.6516 -1.0413 -0.2610
  166SAPE  H11R18628   4.988   3.064   3.465  0.0335 -3.3618  1.9956
  166SAPE  C21218629   4.975   3.196   3.629 -0.6481 -0.2483 -0.3845
  166SAPE  H12R18630   5.072   3.163   3.668 -0.5172  1.2098  0.6234
  166SAPE  C21318631   4.903   3.303   3.712  0.9842  0.3212  0.2141
  166SAPE  H13R18632   4.859   3.246   3.797  0.1037  1.0002  0.2192
  166SAPE  H13S18633   4.826   3.364   3.660  0.6163 -0.8214 -0.6188
  166SAPE  C21418634   5.002   3.406   3.760  0.8685  0.1382 -0.6350
  166SAPE  H14R18635   5.003   3.493   3.692  1.7489 -0.8333 -1.9293
  166SAPE  C21518636   5.074   3.408   3.878  0.9314  0.3555  0.2125
  166SAPE  H15R18637   5.142   3.491   3.901 -0.1099  1.3579 -0.2219
  166SAPE  C21618638   5.066   3.297   3.983  0.0214  0.3401 -0.1250
  166SAPE  H16R18639   4.996   3.215   3.957  0.1650  1.0012 -2.9438
  166SAPE  H16S18640   5.042   3.350   4.078  0.1743  0.3092 -0.0706
  166SAPE  C21718641   5.210   3.247   4.005  0.0683 -0.2916  0.6499
  166SAPE  H17R18642   5.283   3.330   4.011 -0.6001  0.3338  0.2976
  166SAPE  H17S18643   5.234   3.185   3.915  1.9761 -0.3658  1.1529
  166SAPE  C21818644   5.204   3.156   4.124  0.3878  0.0716 -0.0943
  166SAPE  H18R18645   5.112   3.094   4.118 -0.0442  0.8223 -3.6317
  166SAPE  H18S18646   5.197   3.212   4.220 -1.2308 -0.4276  0.1062
  166SAPE  C21918647   5.324   3.059   4.128  0.6351 -0.5144 -0.1427
  166SAPE  H19R18648   5.412   3.126   4.143  0.2945 -0.4958  2.2536
  166SAPE  H19S18649   5.329   3.001   4.034  0.7764  2.7999 -2.3621
  166SAPE  C22018650   5.327   2.959   4.248 -0.5851 -0.9056  0.2570
  166SAPE  H20R18651   5.256   2.875   4.233 -1.2084 -0.1456 -1.3681
  166SAPE  H20S18652   5.301   3.018   4.339 -1.3444 -0.5719 -0.1666
  166SAPE  H20T18653   5.429   2.918   4.264  0.1241  0.4645 -0.5612
  166SAPE   C3318654   5.111   3.773   2.340  0.1038 -0.5169  0.1394
  166SAPE   H3X18655   5.142   3.879   2.327  0.1495 -0.7660 -2.2442
  166SAPE   H3Y18656   5.158   3.702   2.269  0.3929 -1.4351  1.2222
  166SAPE   C3418657   5.150   3.730   2.483 -0.5880  0.2368 -0.4650
  166SAPE   H4X18658   5.096   3.637   2.510 -1.2863  0.5529 -0.7543
  166SAPE   H4Y18659   5.115   3.803   2.560 -3.1471 -2.0085  0.6925
  166SAPE   C3518660   5.303   3.716   2.504 -0.2646  0.2411 -0.2046
  166SAPE   H5X18661   5.336   3.700   2.609  1.9788 -0.0452 -0.9118
  166SAPE   H5Y18662   5.357   3.808   2.476  0.2944  0.6031  1.9362
  166SAPE   C3618663   5.359   3.597   2.424 -0.4046 -0.0213  0.2909
  166SAPE   H6X18664   5.341   3.625   2.318 -1.0019  0.0437  0.4041
  166SAPE   H6Y18665   5.311   3.500   2.450  1.7339 -0.6158  2.3462
  166SAPE   C3718666   5.512   3.585   2.434  0.0638 -0.2016  0.2682
  166SAPE   H7X18667   5.574   3.677   2.426  0.5118 -0.6569 -2.4684
  166SAPE   H7Y18668   5.554   3.514   2.359  0.5594 -2.1158  2.2624
  166SAPE   C3818669   5.556   3.535   2.566  0.0928  0.0375  0.2547
  166SAPE   H8X18670   5.526   3.428   2.562  2.1449 -0.5416 -1.5379
  166SAPE   H8Y18671   5.496   3.587   2.645 -0.8260 -1.5960  0.6926
  166SAPE   C3918672   5.702   3.548   2.596 -0.2440  0.1238 -0.4067
  166SAPE   H9X18673   5.725   3.656   2.582  0.9316 -0.2530 -1.5329
  166SAPE   H9Y18674   5.773   3.489   2.533 -1.3752 -1.9446  0.1764
  166SAPE  C31018675   5.730   3.521   2.742 -0.2844  0.1951  0.2046
  166SAPE  H10X18676   5.740   3.412   2.757  0.7759  0.2636  0.0665
  166SAPE  H10Y18677   5.660   3.559   2.820  0.3384 -1.7215  1.7511
  166SAPE  C31118678   5.860   3.587   2.797  0.0281 -0.4430  0.2954
  166SAPE  H11X18679   5.847   3.695   2.772 -0.2988 -0.3533  0.8494
  166SAPE  H11Y18680   5.954   3.565   2.742  0.1517  1.4625 -0.3555
  166SAPE  C31218681   5.879   3.593   2.952  0.2708  0.3521 -0.0988
  166SAPE  H12X18682   5.783   3.632   2.992 -0.5550 -0.1918 -1.4894
  166SAPE  H12Y18683   5.959   3.661   2.987 -0.8096  1.3048  0.5519
  166SAPE  C31318684   5.910   3.445   3.002  0.0605 -0.8694 -0.2124
  166SAPE  H13X18685   6.015   3.418   2.979  1.3606  0.8967  2.9517
  166SAPE  H13Y18686   5.836   3.369   2.969 -2.6274  1.2962  0.4657
  166SAPE  C31418687   5.892   3.432   3.157 -0.0399 -0.4344 -0.4736
  166SAPE  H14X18688   5.868   3.332   3.200 -1.9279 -0.1104 -0.6847
  166SAPE  H14Y18689   5.807   3.498   3.186  0.7183 -0.0975  1.1396
  166SAPE  C31518690   6.017   3.476   3.237 -0.1574  0.5716  0.3770
  166SAPE  H15X18691   6.075   3.555   3.185 -1.4542  2.4402  1.6646
  166SAPE  H15Y18692   6.080   3.386   3.258  2.4659  2.1597 -0.1874
  166SAPE  C31618693   5.984   3.544   3.374 -0.5136 -0.5835  0.4421
  166SAPE  H16X18694   6.076   3.536   3.435 -0.3504  1.4265  0.4954
  166SAPE  H16Y18695   5.906   3.477   3.418  0.0289 -2.0249 -0.7209
  166SAPE  C31718696   5.925   3.687   3.382 -0.2159  0.4350  0.2920
  166SAPE  H17X18697   5.822   3.684   3.340  0.7650 -1.4593 -2.2790
  166SAPE  H17Y18698   5.986   3.753   3.316  0.4632 -0.0742  0.3960
  166SAPE  C31818699   5.923   3.741   3.520  1.3131 -0.4737 -0.1040
  166SAPE  H18X18700   6.006   3.708   3.586 -0.2177 -1.0205  1.6028
  166SAPE  H18Y18701   5.831   3.716   3.577  2.4959 -0.5751  1.8444
  166SAPE  H18Z18702   5.936   3.851   3.511  3.7694 -0.6630  0.5004
  167SAPE     N18703   5.835   0.208   1.840 -0.0109  0.5312  0.5193
  167SAPE   HN118704   5.908   0.269   1.882 -0.0236  2.0642 -1.5091
  167SAPE   HN218705   5.802   0.263   1.757 -2.2221  0.5469  1.3311
  167SAPE   HN318706   5.750   0.200   1.900  0.4212  2.4519  1.4523
  167SAPE   C1218707   5.877   0.076   1.803 -0.3339 -0.1560  0.1048
  167SAPE  H12A18708   5.807   0.042   1.724 -0.4016  0.1049  0.0522
  167SAPE  H12B18709   5.882   0.010   1.892 -2.7187 -2.8756 -1.5974
  167SAPE   C1118710   6.023   0.088   1.756 -0.4155  0.8876  0.1468
  167SAPE  H11A18711   6.025   0.150   1.664 -0.0982  1.0828  0.2856
  167SAPE  H11B18712   6.057  -0.012   1.721  1.2852  1.7273 -0.6859
  167SAPE     P18713   6.241   0.207   1.829  0.0229  0.3783  0.1793
  167SAPE   O1318714   6.326   0.134   1.732 -0.1734  0.6257 -0.0793
  167SAPE   O1418715   6.206   0.347   1.803  0.0871  0.1261  0.4816
  167SAPE   O1218716   6.117   0.127   1.854 -0.1940  0.4867  0.3104
  167SAPE   O1118717   6.314   0.196   1.972 -0.8042  0.1275  0.4910
  167SAPE    C118718   6.307   0.070   2.040  0.3982  0.4956  0.2827
  167SAPE    HA18719   6.202   0.051   2.071  0.1078  3.4311  1.4410
  167SAPE    HB18720   6.334  -0.013   1.971 -0.4965  1.9684 -1.9644
  167SAPE    C218721   6.406   0.079   2.160 -0.0930  0.3068 -0.0649
  167SAPE    HS18722   6.425  -0.027   2.187  0.5010 -0.0133 -1.6155
  167SAPE   O2118723   6.359   0.165   2.262  0.2427 -0.1712 -0.0346
  167SAPE   C2118724   6.274   0.106   2.342  1.0065 -0.3160  0.2752
  167SAPE   O2218725   6.238  -0.012   2.335 -0.7229 -0.6885  0.2353
  167SAPE   C2218726   6.217   0.209   2.442 -0.4239 -0.6520 -0.5172
  167SAPE   H2R18727   6.304   0.259   2.488 -0.1656 -0.5292 -1.1354
  167SAPE   H2S18728   6.160   0.290   2.392 -1.3910  0.0849  1.6454
  167SAPE    C318729   6.541   0.135   2.100  0.3094  0.4668 -0.3409
  167SAPE    HX18730   6.519   0.243   2.080 -1.1973  0.3188  0.3560
  167SAPE    HY18731   6.571   0.082   2.007 -1.5338  1.4195 -1.5604
  167SAPE   O3118732   6.649   0.136   2.201  0.1277  0.1041 -0.4120
  167SAPE   C3118733   6.718   0.025   2.214 -0.4051  0.3568 -0.6553
  167SAPE   O3218734   6.713  -0.073   2.139 -0.1142 -0.4216 -0.0859
  167SAPE   C3218735   6.811   0.029   2.338 -0.1713  0.4504  0.0661
  167SAPE   H2X18736   6.871   0.121   2.320  3.3134 -1.4903  0.8129
  167SAPE   H2Y18737   6.891  -0.046   2.323 -1.3479 -0.7251 -0.5648
  167SAPE   C2318738   6.119   0.152   2.548 -0.1819 -0.6346 -0.3221
  167SAPE   H3R18739   6.125   0.231   2.625  3.1063 -0.1661 -0.9073
  167SAPE   H3S18740   6.163   0.062   2.596 -0.1861 -1.0596 -1.0882
  167SAPE   C2418741   5.981   0.129   2.490  0.1066  0.1672  0.5434
  167SAPE   H4R18742   5.975   0.035   2.431 -1.5062  0.1347  0.7147
  167SAPE   H4S18743   5.959   0.217   2.426 -0.5255 -0.0243  0.4874
  167SAPE   C2518744   5.873   0.136   2.601 -0.1747  0.1822  1.0070
  167SAPE   H5R18745   5.800   0.218   2.597 -1.8948 -1.3335 -1.5115
  167SAPE   C2618746   5.865   0.056   2.706  0.2669 -0.1976  0.2992
  167SAPE   H6R18747   5.780   0.080   2.771 -0.6926 -1.5650 -0.3967
  167SAPE   C2718748   5.939  -0.069   2.733 -0.1612  0.0739 -0.5142
  167SAPE   H7R18749   6.032  -0.033   2.781 -0.2167 -0.5737  0.0972
  167SAPE   H7S18750   5.969  -0.124   2.642  1.1230  2.4986 -1.6489
  167SAPE   C2818751   5.885  -0.167   2.832 -0.3887  0.6043  0.2688
  167SAPE   H8R18752   5.851  -0.261   2.786 -0.0549  1.1190 -1.0910
  167SAPE   C2918753   5.852  -0.132   2.958  0.0360  0.2291 -0.2481
  167SAPE   H9R18754   5.802  -0.216   3.008  2.4857 -1.4655 -0.4666
  167SAPE  C21018755   5.886  -0.003   3.034 -0.6021 -0.9907  0.6359
  167SAPE  H10R18756   5.944   0.062   2.965  0.7424 -1.0371  1.6936
  167SAPE  H10S18757   5.954  -0.019   3.120 -0.8620 -0.5199  0.9331
  167SAPE  C21118758   5.770   0.080   3.079 -0.4261  0.3336 -0.2752
  167SAPE  H11R18759   5.722   0.147   3.007  0.4413  1.2986  0.0203
  167SAPE  C21218760   5.728   0.099   3.205 -0.6459 -0.0652 -0.0584
  167SAPE  H12R18761   5.642   0.167   3.212 -0.5774 -0.0303  0.5406
  167SAPE  C21318762   5.773   0.030   3.332 -0.3948  0.1074  0.8884
  167SAPE  H13R18763   5.872   0.078   3.352  0.0817 -0.5465  0.1618
  167SAPE  H13S18764   5.789  -0.078   3.312 -1.4946  0.1048 -0.0533
  167SAPE  C21418765   5.670   0.049   3.439 -0.4609 -0.3385 -1.0654
  167SAPE  H14R18766   5.609  -0.042   3.444  0.4715 -0.9144  0.0727
  167SAPE  C21518767   5.659   0.143   3.533 -0.0372  0.1917 -0.8862
  167SAPE  H15R18768   5.573   0.144   3.602  2.0738  0.3580  1.9578
  167SAPE  C21618769   5.743   0.269   3.547 -0.4481 -0.1770 -0.4848
  167SAPE  H16R18770   5.817   0.263   3.465  0.6891  0.9532  0.4175
  167SAPE  H16S18771   5.808   0.270   3.637  1.0180  0.2621 -1.5231
  167SAPE  C21718772   5.668   0.404   3.541 -0.2474 -1.0186  0.4856
  167SAPE  H17R18773   5.591   0.409   3.461 -0.1953 -0.4793  0.4673
  167SAPE  H17S18774   5.734   0.489   3.513 -0.4838 -1.3891 -1.2996
  167SAPE  C21818775   5.603   0.433   3.676 -0.5806 -0.3471 -0.2855
  167SAPE  H18R18776   5.687   0.433   3.749  0.2850  3.2903 -1.0823
  167SAPE  H18S18777   5.532   0.356   3.715 -0.0596 -0.4669  0.4496
  167SAPE  C21918778   5.547   0.578   3.689 -0.6086 -0.6549 -0.2486
  167SAPE  H19R18779   5.480   0.595   3.603 -1.5018  0.0419  0.5644
  167SAPE  H19S18780   5.637   0.639   3.668 -0.6110 -0.9325 -1.0834
  167SAPE  C22018781   5.469   0.616   3.816 -0.3479 -0.3681  0.1083
  167SAPE  H20R18782   5.435   0.722   3.814  1.2526  0.3281  3.3250
  167SAPE  H20S18783   5.535   0.596   3.903 -0.3592  3.4767  1.1755
  167SAPE  H20T18784   5.381   0.548   3.824 -1.4551  0.8704 -0.9404
  167SAPE   C3318785   6.739   0.015   2.473  0.0120 -0.1929 -0.1497
  167SAPE   H3X18786   6.685  -0.081   2.483  0.3342 -0.3502  0.1108
  167SAPE   H3Y18787   6.675   0.103   2.498 -2.4282 -2.2517  1.3543
  167SAPE   C3418788   6.847   0.014   2.583 -0.8216  0.5608  0.1995
  167SAPE   H4X18789   6.897   0.112   2.564 -0.7264 -0.0940 -3.5075
  167SAPE   H4Y18790   6.915  -0.072   2.567 -2.5740 -1.1211  1.3747
  167SAPE   C3518791   6.793   0.009   2.731 -0.2559  0.9045  0.8390
  167SAPE   H5X18792   6.716  -0.070   2.728  1.1911 -0.8183  4.2502
  167SAPE   H5Y18793   6.752   0.110   2.754  1.5197  1.5332  1.4166
  167SAPE   C3618794   6.898  -0.015   2.837 -0.5290 -0.3613 -0.0101
  167SAPE   H6X18795   6.968   0.069   2.855 -1.1105 -0.0161  0.7407
  167SAPE   H6Y18796   6.961  -0.102   2.808  1.5818  0.0431  2.9345
  167SAPE   C3718797   6.826  -0.046   2.967 -0.2159  0.2504  0.6252
  167SAPE   H7X18798   6.771   0.047   2.990  1.9104  1.6447  0.3660
  167SAPE   H7Y18799   6.891  -0.051   3.057 -0.5888 -3.5690  0.8494
  167SAPE   C3818800   6.732  -0.166   2.976 -0.1885  0.0867  0.1752
  167SAPE   H8X18801   6.768  -0.250   2.912  1.1320 -1.9173  3.3447
  167SAPE   H8Y18802   6.638  -0.140   2.922  0.5127 -0.1261 -1.1882
  167SAPE   C3918803   6.715  -0.215   3.122 -0.0779  0.8057  0.2353
  167SAPE   H9X18804   6.805  -0.252   3.176  0.0076 -1.0197 -1.0707
  167SAPE   H9Y18805   6.642  -0.298   3.112 -2.9512  3.1470  0.3841
  167SAPE  C31018806   6.630  -0.123   3.214  0.2167  0.8612  0.9512
  167SAPE  H10X18807   6.538  -0.096   3.158  1.5845 -0.8972 -2.4123
  167SAPE  H10Y18808   6.691  -0.033   3.238 -0.1185  0.7522  2.2754
  167SAPE  C31118809   6.591  -0.188   3.343  0.3657  0.1827  0.2835
  167SAPE  H11X18810   6.553  -0.111   3.413  1.1643  0.4712  0.4096
  167SAPE  H11Y18811   6.682  -0.235   3.387  1.0973  1.0275 -0.2952
  167SAPE  C31218812   6.471  -0.286   3.336  0.2332 -0.1669 -0.4379
  167SAPE  H12X18813   6.465  -0.339   3.239  0.0496 -0.8779 -0.0501
  167SAPE  H12Y18814   6.383  -0.220   3.351  0.5655  0.0502  0.6717
  167SAPE  C31318815   6.470  -0.389   3.444  0.2054  0.3035 -0.2951
  167SAPE  H13X18816   6.455  -0.334   3.539 -0.5889 -1.8946  0.9124
  167SAPE  H13Y18817   6.567  -0.441   3.455  0.1348  0.2548  0.0937
  167SAPE  C31418818   6.356  -0.492   3.424 -0.7269  0.3767  0.2804
  167SAPE  H14X18819   6.372  -0.535   3.323 -1.3237 -0.5611  0.5735
  167SAPE  H14Y18820   6.257  -0.441   3.426 -0.7375  0.4188 -0.8810
  167SAPE  C31518821   6.360  -0.614   3.517 -0.1021 -0.2533  0.0194
  167SAPE  H15X18822   6.457  -0.668   3.518  0.3598  0.5637  0.8569
  167SAPE  H15Y18823   6.296  -0.691   3.467  0.1714 -1.4758  1.4723
  167SAPE  C31618824   6.305  -0.584   3.660 -0.4129  0.2484 -0.4648
  167SAPE  H16X18825   6.206  -0.534   3.659 -1.1982 -1.2469 -0.5555
  167SAPE  H16Y18826   6.381  -0.511   3.695  0.9993 -1.1380 -0.5249
  167SAPE  C31718827   6.308  -0.700   3.749  0.3047  0.4698  0.0192
  167SAPE  H17X18828   6.326  -0.665   3.854 -1.2433 -1.5631  1.0210
  167SAPE  H17Y18829   6.396  -0.764   3.728  0.7408  0.9715  0.2909
  167SAPE  C31818830   6.185  -0.795   3.753  0.0666  0.0122  0.3413
  167SAPE  H18X18831   6.091  -0.738   3.770 -0.1471  0.1696 -1.2194
  167SAPE  H18Y18832   6.187  -0.859   3.843  1.7856 -0.2256  0.1586
  167SAPE  H18Z18833   6.188  -0.859   3.662  0.1350  0.7880 -0.2210
  168SAPE     N18834   3.405   5.243   1.932  0.1103 -0.2071  0.4876
  168SAPE   HN118835   3.493   5.293   1.954  1.5731 -1.8491 -1.2697
  168SAPE   HN218836   3.369   5.296   1.850  0.2300  2.1345  1.8571
  168SAPE   HN318837   3.335   5.242   2.009  0.9413  2.3066  1.3843
  168SAPE   C1218838   3.428   5.108   1.885 -0.1662  0.1212  0.4174
  168SAPE  H12A18839   3.435   5.033   1.967  0.7759  0.9023  1.0568
  168SAPE  H12B18840   3.525   5.109   1.832  0.6349  0.2617  1.8488
  168SAPE   C1118841   3.319   5.054   1.780 -0.0388  0.2428  0.7616
  168SAPE  H11A18842   3.349   4.949   1.759 -0.4918 -0.0478  1.5241
  168SAPE  H11B18843   3.336   5.110   1.686  0.1589 -1.7000 -0.4314
  168SAPE     P18844   3.118   4.951   1.918  0.0762  0.2234  0.0786
  168SAPE   O1318845   3.094   5.019   2.053  0.3717  0.6455 -0.1689
  168SAPE   O1418846   3.007   4.889   1.835  0.1463  0.3364 -0.5472
  168SAPE   O1218847   3.186   5.062   1.822 -0.6635 -0.2999 -0.7293
  168SAPE   O1118848   3.243   4.849   1.934 -0.1335 -0.1076  0.4184
  168SAPE    C118849   3.209   4.715   1.988 -0.9229 -0.3134  0.0484
  168SAPE    HA18850   3.110   4.703   2.036 -0.8378 -0.3386  0.2174
  168SAPE    HB18851   3.209   4.633   1.913 -1.8613 -1.2182  1.0049
  168SAPE    C218852   3.307   4.675   2.108  0.1259  0.3396  0.3605
  168SAPE    HS18853   3.280   4.575   2.147 -3.3472  1.1507  0.4001
  168SAPE   O2118854   3.305   4.783   2.209  0.4292 -0.2008  0.2859
  168SAPE   C2118855   3.199   4.789   2.288  0.5176  0.4413 -0.0863
  168SAPE   O2218856   3.111   4.704   2.293 -0.3471 -0.9599  0.5297
  168SAPE   C2218857   3.213   4.911   2.379 -0.3327  0.1479  0.1273
  168SAPE   H2R18858   3.316   4.913   2.421 -0.1389  3.1665 -0.2742
  168SAPE   H2S18859   3.200   4.995   2.307  2.6229  0.0594 -0.6491
  168SAPE    C318860   3.449   4.685   2.050 -0.0281 -0.1201 -0.6337
  168SAPE    HX18861   3.473   4.792   2.035 -0.1972 -0.1696 -1.3178
  168SAPE    HY18862   3.452   4.654   1.943  0.7609 -1.3487 -0.2859
  168SAPE   O3118863   3.537   4.613   2.143  0.0690 -0.2545  0.0449
  168SAPE   C3118864   3.530   4.482   2.134  0.0473 -0.1125  0.6785
  168SAPE   O3218865   3.477   4.417   2.047 -0.5382  0.1310  0.1741
  168SAPE   C3218866   3.610   4.406   2.239  1.0406  0.5515  1.3814
  168SAPE   H2X18867   3.676   4.474   2.298  3.7031 -0.0465 -0.6984
  168SAPE   H2Y18868   3.679   4.343   2.179 -0.4967 -1.7441  1.8737
  168SAPE   C2318869   3.122   4.953   2.504  0.2319  0.0574 -0.7124
  168SAPE   H3R18870   3.015   4.940   2.474  0.4636 -7.0255 -0.2652
  168SAPE   H3S18871   3.152   5.058   2.525 -0.3851 -0.1394  1.3322
  168SAPE   C2418872   3.155   4.857   2.631  0.0298 -0.3042  0.0787
  168SAPE   H4R18873   3.153   4.749   2.605  0.6228 -0.0296 -1.1561
  168SAPE   H4S18874   3.074   4.867   2.707  1.0080 -1.1716  1.2672
  168SAPE   C2518875   3.285   4.887   2.707 -0.2071  0.1988 -0.0712
  168SAPE   H5R18876   3.374   4.901   2.645 -0.1280 -1.6378 -0.4204
  168SAPE   C2618877   3.299   4.888   2.844 -0.2862  0.3031  0.7742
  168SAPE   H6R18878   3.401   4.888   2.886  0.3263  0.7862 -0.6482
  168SAPE   C2718879   3.185   4.876   2.943 -0.1762 -0.0321  0.2325
  168SAPE   H7R18880   3.120   4.795   2.906 -1.0994 -0.0257  1.7309
  168SAPE   H7S18881   3.130   4.973   2.948 -0.2397 -0.0375 -0.3548
  168SAPE   C2818882   3.215   4.821   3.081 -0.6176  0.2318  0.4513
  168SAPE   H8R18883   3.238   4.713   3.075 -0.4522  0.3524 -1.8805
  168SAPE   C2918884   3.220   4.888   3.197 -0.3734  0.3519 -0.3845
  168SAPE   H9R18885   3.240   4.827   3.286 -0.9213  0.7460  0.0151
  168SAPE  C21018886   3.188   5.028   3.223 -0.2211  0.0686 -0.4688
  168SAPE  H10R18887   3.156   5.085   3.133  0.3274 -1.4064 -1.6506
  168SAPE  H10S18888   3.276   5.077   3.270  1.2559 -1.8221 -1.1267
  168SAPE  C21118889   3.076   5.027   3.318  0.1645 -0.1688 -0.0777
  168SAPE  H11R18890   2.982   5.032   3.261  1.0731 -0.4472 -1.6652
  168SAPE  C21218891   3.075   5.028   3.449 -0.1620  0.7006 -0.6464
  168SAPE  H12R18892   2.981   5.051   3.502 -0.7748  1.5685 -2.0324
  168SAPE  C21318893   3.196   5.027   3.539 -0.5681  0.1356 -0.2213
  168SAPE  H13R18894   3.216   5.133   3.567  1.2204 -0.1147 -0.4730
  168SAPE  H13S18895   3.288   4.993   3.487  0.6327  0.3328  1.7008
  168SAPE  C21418896   3.170   4.956   3.671  0.1259 -0.1030 -0.6148
  168SAPE  H14R18897   3.224   4.861   3.682 -3.0094 -1.9800 -0.3396
  168SAPE  C21518898   3.096   4.992   3.778 -0.0145  0.3630 -0.3336
  168SAPE  H15R18899   3.096   4.932   3.870 -0.3224  0.2757 -0.3899
  168SAPE  C21618900   3.022   5.122   3.794  0.0913 -0.6292  0.6745
  168SAPE  H16R18901   2.929   5.094   3.847  0.0357 -3.0226 -0.5393
  168SAPE  H16S18902   2.997   5.166   3.695 -1.3594 -0.9251  0.8948
  168SAPE  C21718903   3.112   5.219   3.866 -0.1917 -0.4902 -0.1326
  168SAPE  H17R18904   3.208   5.244   3.817 -0.3284  1.6934  0.6089
  168SAPE  H17S18905   3.128   5.174   3.966  1.4574  1.4028  0.5222
  168SAPE  C21818906   3.038   5.354   3.888 -0.3729  0.0310  0.0685
  168SAPE  H18R18907   2.967   5.353   3.973 -1.3326  0.1461 -0.7118
  168SAPE  H18S18908   2.987   5.394   3.798 -0.1173 -0.0498 -0.1122
  168SAPE  C21918909   3.141   5.466   3.929 -0.0738 -0.2360  0.0084
  168SAPE  H19R18910   3.092   5.564   3.912  0.3613  0.0573  0.4177
  168SAPE  H19S18911   3.223   5.460   3.855  0.4341 -0.3983  0.5747
  168SAPE  C22018912   3.186   5.449   4.067 -0.1992  0.2554 -0.5616
  168SAPE  H20R18913   3.245   5.533   4.111 -0.1130 -0.4813  0.7722
  168SAPE  H20S18914   3.248   5.358   4.080 -0.7180  0.0557  0.6490
  168SAPE  H20T18915   3.095   5.451   4.131  0.5870 -1.5185  0.7001
  168SAPE   C3318916   3.529   4.315   2.338 -0.2059 -0.0568 -0.9747
  168SAPE   H3X18917   3.493   4.220   2.294  1.3873 -0.9097 -0.5285
  168SAPE   H3Y18918   3.449   4.374   2.389 -0.2823 -0.0479 -1.1066
  168SAPE   C3418919   3.621   4.271   2.449  0.1642 -0.8586 -0.7421
  168SAPE   H4X18920   3.702   4.343   2.474 -1.8852  1.1872  0.2954
  168SAPE   H4Y18921   3.675   4.174   2.433  0.2509 -1.0172  0.4167
  168SAPE   C3518922   3.543   4.261   2.582  0.2259  0.2025 -0.2414
  168SAPE   H5X18923   3.452   4.197   2.570  0.7692 -0.3552 -1.6470
  168SAPE   H5Y18924   3.514   4.364   2.613  0.8591  0.9044 -1.8840
  168SAPE   C3618925   3.624   4.206   2.699  0.1238  0.0022  0.1929
  168SAPE   H6X18926   3.703   4.279   2.726 -0.0300 -0.0859  0.9123
  168SAPE   H6Y18927   3.682   4.114   2.675 -0.8438 -0.1272 -1.8278
  168SAPE   C3718928   3.541   4.211   2.829 -0.0078  0.1669  0.2681
  168SAPE   H7X18929   3.454   4.142   2.823 -0.2622  0.4230  0.9221
  168SAPE   H7Y18930   3.491   4.311   2.833 -0.3268 -0.0031  0.6766
  168SAPE   C3818931   3.614   4.168   2.958  0.4614 -0.4452  0.0052
  168SAPE   H8X18932   3.722   4.194   2.967 -0.1223  1.9053  0.9450
  168SAPE   H8Y18933   3.615   4.057   2.957 -2.3919 -0.5865  1.6703
  168SAPE   C3918934   3.541   4.202   3.088 -0.4230  0.6634 -0.5942
  168SAPE   H9X18935   3.455   4.132   3.092  0.5110 -0.4292  2.2269
  168SAPE   H9Y18936   3.506   4.308   3.082  1.4773  1.3561 -0.1632
  168SAPE  C31018937   3.632   4.192   3.209  0.2880 -0.6754 -0.3388
  168SAPE  H10X18938   3.724   4.249   3.182 -0.1022  1.9552  3.1213
  168SAPE  H10Y18939   3.662   4.086   3.219 -0.9901 -0.8910  1.6316
  168SAPE  C31118940   3.575   4.241   3.341  0.4974  0.0865  0.1452
  168SAPE  H11X18941   3.481   4.183   3.358  0.2941  0.3643 -0.0389
  168SAPE  H11Y18942   3.554   4.349   3.349  1.2801  0.2541  0.0054
  168SAPE  C31218943   3.657   4.205   3.470 -1.0342  0.3693 -0.5215
  168SAPE  H12X18944   3.756   4.254   3.462 -0.0307 -1.8410 -3.1341
  168SAPE  H12Y18945   3.683   4.097   3.480 -2.0646  0.2652  1.6764
  168SAPE  C31318946   3.589   4.257   3.610 -0.4308  0.4209 -0.0273
  168SAPE  H13X18947   3.515   4.336   3.589  0.2065  1.2850  0.9233
  168SAPE  H13Y18948   3.675   4.305   3.661  1.1553  0.1273 -2.2402
  168SAPE  C31418949   3.529   4.141   3.693  0.6783 -0.7985  0.4677
  168SAPE  H14X18950   3.607   4.067   3.721  0.7406 -1.1541 -0.5789
  168SAPE  H14Y18951   3.452   4.098   3.625  1.7578 -0.0449 -1.3233
  168SAPE  C31518952   3.472   4.189   3.826 -0.0280  0.3239 -0.6308
  168SAPE  H15X18953   3.401   4.269   3.798 -1.3018 -1.7016 -3.7054
  168SAPE  H15Y18954   3.551   4.233   3.890  0.0312 -0.1275 -0.3821
  168SAPE  C31618955   3.384   4.079   3.889  0.2842  0.3670  0.5478
  168SAPE  H16X18956   3.449   3.992   3.915  0.2148  0.4882  1.1581
  168SAPE  H16Y18957   3.303   4.045   3.822  0.5457  0.8632 -0.0347
  168SAPE  C31718958   3.316   4.131   4.028  0.2288 -0.4389  0.6799
  168SAPE  H17X18959   3.257   4.041   4.058 -0.0195 -1.1452 -1.6940
  168SAPE  H17Y18960   3.247   4.211   3.995  1.3055 -1.3543 -4.7417
  168SAPE  C31818961   3.406   4.171   4.143 -0.6286 -0.5578 -0.4478
  168SAPE  H18X18962   3.445   4.086   4.203 -1.4281 -1.2647 -0.9086
  168SAPE  H18Y18963   3.344   4.244   4.200  0.5177 -1.0550  1.5518
  168SAPE  H18Z18964   3.487   4.234   4.101 -1.3514  0.0281 -1.0066
  169SAPE     N18965   0.314   6.694   2.218  0.3022  0.4274 -0.1018
  169SAPE   HN118966   0.391   6.678   2.286 -0.5485  1.4772  1.1801
  169SAPE   HN218967   0.266   6.603   2.202  1.9718 -0.5663  0.3548
  169SAPE   HN318968   0.356   6.732   2.132  0.4025  1.5652  0.4313
  169SAPE   C1218969   0.221   6.792   2.292  0.2844  0.0423  0.4223
  169SAPE  H12A18970   0.122   6.743   2.305 -0.4762  0.6938 -2.1914
  169SAPE  H12B18971   0.208   6.882   2.228 -1.5992 -2.2841 -2.7700
  169SAPE   C1118972   0.287   6.829   2.427  0.1396 -0.0043  0.7264
  169SAPE  H11A18973   0.295   6.726   2.467  1.2165 -0.7340 -1.2287
  169SAPE  H11B18974   0.227   6.894   2.494 -1.5598 -0.8074  0.0521
  169SAPE     P18975   0.563   6.798   2.431  0.0359  0.4068 -0.1688
  169SAPE   O1318976   0.544   6.658   2.379 -0.1100 -0.1309  0.1890
  169SAPE   O1418977   0.680   6.873   2.380 -0.2429 -0.5490 -0.4608
  169SAPE   O1218978   0.423   6.876   2.410 -0.3536 -0.3232 -0.0370
  169SAPE   O1118979   0.565   6.799   2.585  0.2207 -0.5985  0.2786
  169SAPE    C118980   0.561   6.928   2.653  0.0819  0.2147  0.2033
  169SAPE    HA18981   0.547   7.011   2.580 -0.5659 -2.1451 -2.5190
  169SAPE    HB18982   0.470   6.914   2.715 -0.8634  1.9518 -0.7126
  169SAPE    C218983   0.683   6.962   2.745 -0.2996  0.5083 -0.8419
  169SAPE    HS18984   0.776   6.956   2.685  2.2280 -0.0150  2.8116
  169SAPE   O2118985   0.675   6.869   2.857 -0.3952 -0.1496 -0.2003
  169SAPE   C2118986   0.776   6.785   2.862  0.2505  0.4166 -0.1392
  169SAPE   O2218987   0.851   6.750   2.775 -0.4537  0.0675  0.1104
  169SAPE   C2218988   0.786   6.739   3.004 -0.4275  0.0527  0.7871
  169SAPE   H2R18989   0.888   6.773   3.033  1.5373 -2.6261 -2.3297
  169SAPE   H2S18990   0.707   6.791   3.063 -0.7994  0.1963  0.1698
  169SAPE    C318991   0.689   7.105   2.803 -1.1920  0.3697  0.6311
  169SAPE    HX18992   0.701   7.175   2.717 -1.2600 -0.0521  0.2742
  169SAPE    HY18993   0.781   7.119   2.863 -1.6966  1.4075  1.1891
  169SAPE   O3118994   0.569   7.134   2.873 -0.0282 -0.7419  0.0330
  169SAPE   C3118995   0.576   7.130   3.006 -0.3371 -0.0579  0.0177
  169SAPE   O3218996   0.675   7.103   3.075 -0.3304 -0.7781  0.1578
  169SAPE   C3218997   0.433   7.161   3.064 -0.0104 -0.0933  0.3805
  169SAPE   H2X18998   0.398   7.057   3.045  0.6483 -0.1844 -0.4416
  169SAPE   H2Y18999   0.375   7.232   3.002 -0.5426 -1.5151 -0.7994
  169SAPE   C2319000   0.790   6.586   3.015 -0.1026  0.0841 -0.7839
  169SAPE   H3R19001   0.839   6.567   3.113 -1.6909 -0.0658  0.0154
  169SAPE   H3S19002   0.849   6.544   2.931  1.5367  1.5342 -0.4089
  169SAPE   C2419003   0.646   6.533   3.025 -0.2186 -0.3750  0.2411
  169SAPE   H4R19004   0.593   6.563   2.932  1.4499 -0.1697 -0.6959
  169SAPE   H4S19005   0.580   6.576   3.103  2.5074  1.5090  1.6625
  169SAPE   C2519006   0.651   6.382   3.041 -0.3579  0.0350 -0.2915
  169SAPE   H5R19007   0.689   6.333   2.950  1.7211 -0.3211  0.7236
  169SAPE   C2619008   0.637   6.299   3.145  0.0610  0.0081  0.3549
  169SAPE   H6R19009   0.653   6.193   3.121 -2.9701 -0.5822  0.4920
  169SAPE   C2719010   0.582   6.340   3.281  0.0152 -0.1422 -0.2819
  169SAPE   H7R19011   0.577   6.450   3.299  0.8563  0.0669 -1.2347
  169SAPE   H7S19012   0.658   6.299   3.351 -0.0106 -0.7412 -0.5999
  169SAPE   C2819013   0.443   6.283   3.310 -0.1904 -0.5532 -0.7663
  169SAPE   H8R19014   0.413   6.198   3.247 -1.4464  0.1195 -1.1149
  169SAPE   C2919015   0.370   6.319   3.417 -0.0295 -0.2131 -0.1772
  169SAPE   H9R19016   0.273   6.270   3.435 -0.1989  0.1645 -0.0496
  169SAPE  C21019017   0.400   6.432   3.511  0.3316  0.7722 -0.5474
  169SAPE  H10R19018   0.317   6.505   3.517  0.4353  0.8046  0.8274
  169SAPE  H10S19019   0.483   6.497   3.476  1.5591  0.8215  2.2510
  169SAPE  C21119020   0.433   6.385   3.652  1.1067 -0.3455 -0.1315
  169SAPE  H11R19021   0.508   6.304   3.649  0.9944 -0.4393 -0.5148
  169SAPE  C21219022   0.390   6.440   3.768  0.5508 -0.1256  0.0536
  169SAPE  H12R19023   0.415   6.383   3.859  0.9171 -0.3094 -0.1629
  169SAPE  C21319024   0.280   6.551   3.774 -0.1401  0.1117  0.5553
  169SAPE  H13R19025   0.186   6.498   3.802 -0.2850 -0.0957 -0.3055
  169SAPE  H13S19026   0.251   6.594   3.676 -2.1865  1.3930  1.6479
  169SAPE  C21419027   0.296   6.664   3.871  0.5889  0.2087  0.6250
  169SAPE  H14R19028   0.224   6.670   3.954  0.1694  1.2562  0.1990
  169SAPE  C21519029   0.389   6.762   3.879  0.5964 -0.0039 -0.3260
  169SAPE  H15R19030   0.386   6.828   3.966 -0.7469  0.6922 -0.8675
  169SAPE  C21619031   0.511   6.784   3.795  0.8420 -0.0776 -0.3076
  169SAPE  H16R19032   0.527   6.689   3.739  0.4428  0.0097 -0.5723
  169SAPE  H16S19033   0.601   6.793   3.860  0.7163  0.8482 -0.2428
  169SAPE  C21719034   0.498   6.899   3.696  0.1460 -0.6062  0.7326
  169SAPE  H17R19035   0.492   6.993   3.754 -0.4083 -1.0896  1.4850
  169SAPE  H17S19036   0.407   6.890   3.633  0.5695 -2.2303  0.2859
  169SAPE  C21819037   0.607   6.905   3.587 -0.4859  0.4500  0.5403
  169SAPE  H18R19038   0.706   6.927   3.634  0.7957 -0.3114 -1.6603
  169SAPE  H18S19039   0.581   6.997   3.529 -2.3117 -0.0564  0.4931
  169SAPE  C21919040   0.626   6.786   3.487 -1.1256 -0.1672  0.2669
  169SAPE  H19R19041   0.638   6.691   3.543 -1.8041 -0.5009 -0.1375
  169SAPE  H19S19042   0.715   6.802   3.422 -0.6259  2.2842  1.4500
  169SAPE  C22019043   0.508   6.779   3.388  0.1728  0.6601  0.2082
  169SAPE  H20R19044   0.423   6.739   3.448  0.3086 -2.0321 -1.2225
  169SAPE  H20S19045   0.522   6.715   3.297  0.8480 -0.4799  1.0874
  169SAPE  H20T19046   0.488   6.884   3.360 -0.4372  1.1816  2.4653
  169SAPE   C3319047   0.430   7.184   3.217 -0.5065  0.6960  1.0045
  169SAPE   H3X19048   0.453   7.291   3.232 -1.9443  1.0492  0.8552
  169SAPE   H3Y19049   0.495   7.111   3.270 -0.0168 -0.5270 -1.1306
  169SAPE   C3419050   0.288   7.169   3.273 -0.3050 -0.6536 -0.5637
  169SAPE   H4X19051   0.287   7.196   3.381  2.8685 -2.0537 -0.0463
  169SAPE   H4Y19052   0.263   7.061   3.262  1.2562 -1.2025  0.8249
  169SAPE   C3519053   0.184   7.257   3.203  0.3586 -0.0966  0.2671
  169SAPE   H5X19054   0.176   7.231   3.096 -0.9077 -0.7143  0.4981
  169SAPE   H5Y19055   0.217   7.363   3.200 -0.2229  0.0768 -2.1374
  169SAPE   C3619056   0.040   7.242   3.265 -0.6598 -0.3542  0.1127
  169SAPE   H6X19057   0.042   7.278   3.370  0.0834  0.1191 -0.0618
  169SAPE   H6Y19058   0.009   7.135   3.268 -0.6081 -0.3612  0.3883
  169SAPE   C3719059  -0.063   7.312   3.182  0.0652 -0.2857  0.5692
  169SAPE   H7X19060  -0.041   7.307   3.074  1.1772  2.4717  0.6044
  169SAPE   H7Y19061  -0.058   7.421   3.201 -0.2086  0.5018 -3.1924
  169SAPE   C3819062  -0.205   7.272   3.218  0.4862  0.9748  0.0192
  169SAPE   H8X19063  -0.208   7.163   3.236 -0.6019  1.1464  1.0642
  169SAPE   H8Y19064  -0.260   7.287   3.123  3.5042 -0.1903 -2.0372
  169SAPE   C3919065  -0.262   7.360   3.332 -0.1693 -0.3892 -0.4654
  169SAPE   H9X19066  -0.234   7.468   3.326  1.1980 -0.7304 -0.6088
  169SAPE   H9Y19067  -0.220   7.328   3.430 -1.0145  2.8216  1.1052
  169SAPE  C31019068  -0.408   7.348   3.358  0.4087 -0.7918 -0.1041
  169SAPE  H10X19069  -0.459   7.345   3.259 -1.9580 -2.6637  1.0353
  169SAPE  H10Y19070  -0.458   7.435   3.406 -0.9919 -1.8941  0.5448
  169SAPE  C31119071  -0.447   7.219   3.433  0.2746  0.8859  0.0844
  169SAPE  H11X19072  -0.368   7.141   3.441 -0.1067  0.4256 -0.5148
  169SAPE  H11Y19073  -0.535   7.165   3.392  0.7904 -0.1838  0.3393
  169SAPE  C31219074  -0.466   7.251   3.582 -0.2153  0.0917  0.4078
  169SAPE  H12X19075  -0.557   7.313   3.593  1.0045  2.2954 -1.1500
  169SAPE  H12Y19076  -0.372   7.303   3.610 -0.1285  1.2595 -1.7900
  169SAPE  C31319077  -0.491   7.130   3.678 -0.3035 -0.1460  0.4327
  169SAPE  H13X19078  -0.417   7.051   3.650  1.8836  1.8299  0.3362
  169SAPE  H13Y19079  -0.595   7.092   3.668 -0.4561 -0.4168  2.5853
  169SAPE  C31419080  -0.474   7.155   3.832  0.2284  0.0636  0.5381
  169SAPE  H14X19081  -0.371   7.195   3.842  0.8002 -1.3445  0.3670
  169SAPE  H14Y19082  -0.488   7.062   3.890  1.3279  0.4498  1.4599
  169SAPE  C31519083  -0.572   7.260   3.892 -0.3068 -0.0683  0.9198
  169SAPE  H15X19084  -0.672   7.217   3.870  0.0727  0.7696 -3.1208
  169SAPE  H15Y19085  -0.568   7.355   3.835  0.4411  0.1351  1.2991
  169SAPE  C31619086  -0.547   7.282   4.044 -0.2319  0.1990  0.6049
  169SAPE  H16X19087  -0.500   7.196   4.096  1.9775  2.4761  2.6004
  169SAPE  H16Y19088  -0.641   7.303   4.100 -1.3933 -2.0537 -0.3302
  169SAPE  C31719089  -0.451   7.399   4.051 -0.3426 -0.2582 -0.1027
  169SAPE  H17X19090  -0.485   7.489   3.997  0.6790  0.3813  0.2823
  169SAPE  H17Y19091  -0.355   7.363   4.008  0.6947  0.3523  1.6051
  169SAPE  C31819092  -0.416   7.439   4.198  0.1186  0.5743  0.1820
  169SAPE  H18X19093  -0.399   7.351   4.264  1.1312 -1.7608 -2.9661
  169SAPE  H18Y19094  -0.507   7.483   4.245  0.0343  0.0399  0.5351
  169SAPE  H18Z19095  -0.327   7.505   4.204 -0.0245  0.7053  1.0053
  170SAPE     N19096   6.760   3.663   1.814  0.4407  0.6552 -0.3239
  170SAPE   HN119097   6.752   3.649   1.917 -1.9193  1.8661 -0.2787
  170SAPE   HN219098   6.670   3.633   1.772  0.2374  1.2101 -0.2865
  170SAPE   HN319099   6.834   3.600   1.777 -0.1701 -0.4422  0.2689
  170SAPE   C1219100   6.784   3.803   1.772  0.2115  0.5731  0.2157
  170SAPE  H12A19101   6.687   3.853   1.794 -0.3683  0.3167 -1.5987
  170SAPE  H12B19102   6.782   3.800   1.661 -3.2793 -0.0703  0.1941
  170SAPE   C1119103   6.917   3.851   1.834  0.2374  0.0924 -0.2171
  170SAPE  H11A19104   6.896   3.842   1.942 -3.0391 -0.3531 -0.7795
  170SAPE  H11B19105   6.922   3.958   1.803 -1.0096 -0.1909 -1.5715
  170SAPE     P19106   7.127   3.706   1.878 -0.0124  0.0767  0.4807
  170SAPE   O1319107   7.208   3.608   1.802  0.0960 -0.3406  0.2254
  170SAPE   O1419108   7.197   3.819   1.953 -0.0995  0.4640 -0.1680
  170SAPE   O1219109   7.030   3.788   1.786  0.5354 -0.2611  0.7573
  170SAPE   O1119110   7.021   3.632   1.973  0.0462 -0.2311  0.5476
  170SAPE    C119111   7.073   3.526   2.053 -0.1954 -0.2461  0.0071
  170SAPE    HA19112   7.075   3.439   1.983 -0.2256  1.2859 -2.0126
  170SAPE    HB19113   7.177   3.544   2.086 -0.4573 -0.5257  1.0169
  170SAPE    C219114   6.983   3.488   2.176 -0.2408  0.3291 -0.0848
  170SAPE    HS19115   6.896   3.426   2.148 -0.3829 -0.8727  2.6568
  170SAPE   O2119116   6.932   3.602   2.250 -0.2226  0.0768  0.1422
  170SAPE   C2119117   6.823   3.662   2.198 -0.3159  0.2972 -0.3402
  170SAPE   O2219118   6.766   3.624   2.096  0.0222 -0.2246 -0.0983
  170SAPE   C2219119   6.770   3.770   2.280 -0.1874 -0.4435  0.3595
  170SAPE   H2R19120   6.736   3.848   2.208  1.8556 -1.1784 -1.5205
  170SAPE   H2S19121   6.689   3.727   2.343  0.1372 -2.1725 -0.3422
  170SAPE    C319122   7.078   3.406   2.276  0.9442 -0.3770  0.5556
  170SAPE    HX19123   7.164   3.474   2.292 -0.4510  2.4133 -2.4953
  170SAPE    HY19124   7.114   3.322   2.212 -0.1749 -0.1931 -0.3412
  170SAPE   O3119125   7.023   3.358   2.396  0.5632  0.1687 -0.0623
  170SAPE   C3119126   6.935   3.263   2.395 -0.2642 -0.0500  0.4960
  170SAPE   O3219127   6.874   3.223   2.294 -0.0635 -0.1650 -0.1186
  170SAPE   C3219128   6.911   3.216   2.533 -0.3724  0.5727 -0.3839
  170SAPE   H2X19129   6.924   3.303   2.601  1.5476  0.0808 -0.0445
  170SAPE   H2Y19130   6.990   3.142   2.559 -2.1314 -1.2968 -0.1040
  170SAPE   C2319131   6.863   3.837   2.381  0.7302  0.2289 -0.3222
  170SAPE   H3R19132   6.961   3.801   2.344  0.0314 -2.3223  0.1554
  170SAPE   H3S19133   6.856   3.787   2.480 -0.9918 -0.6835 -0.8687
  170SAPE   C2419134   6.863   3.988   2.386 -0.0554 -0.2248  0.1733
  170SAPE   H4R19135   6.883   4.026   2.283  1.4499  0.7403  0.7803
  170SAPE   H4S19136   6.955   4.026   2.435  0.7275  0.8155 -1.9412
  170SAPE   C2519137   6.727   4.032   2.427  0.1919  0.0393  0.6538
  170SAPE   H5R19138   6.656   4.027   2.343 -0.4643  1.7822  1.0712
  170SAPE   C2619139   6.682   4.049   2.549 -0.4803  0.5681  0.1681
  170SAPE   H6R19140   6.575   4.068   2.559 -0.3311  2.6262 -1.3718
  170SAPE   C2719141   6.769   4.048   2.669  0.3100 -0.3366 -0.0146
  170SAPE   H7R19142   6.870   4.004   2.652  0.0658 -0.3691 -1.5301
  170SAPE   H7S19143   6.728   3.977   2.744 -0.1941 -1.2248 -1.0941
  170SAPE   C2819144   6.783   4.187   2.730  0.2870  0.3648  0.3478
  170SAPE   H8R19145   6.828   4.259   2.659 -0.7779 -0.5752 -1.3572
  170SAPE   C2919146   6.752   4.220   2.853 -0.1906  0.2901 -0.0319
  170SAPE   H9R19147   6.772   4.319   2.898  0.2957 -0.5665  1.7088
  170SAPE  C21019148   6.700   4.131   2.959 -0.0899 -0.0660  0.5419
  170SAPE  H10R19149   6.672   4.028   2.927 -0.5230  0.2370 -0.0699
  170SAPE  H10S19150   6.610   4.172   3.008 -0.4897  0.1712 -0.3746
  170SAPE  C21119151   6.801   4.109   3.074  0.1322 -0.1450  0.8587
  170SAPE  H11R19152   6.885   4.042   3.049 -0.6728 -1.1497  0.8269
  170SAPE  C21219153   6.796   4.178   3.185 -0.1414  0.5450 -0.6546
  170SAPE  H12R19154   6.863   4.161   3.270 -1.2031 -0.1962  0.0538
  170SAPE  C21319155   6.685   4.267   3.228  0.6037 -0.6528 -0.1932
  170SAPE  H13R19156   6.593   4.205   3.227 -0.5491  0.9910 -1.9648
  170SAPE  H13S19157   6.673   4.345   3.150  1.1300 -0.3759 -0.0040
  170SAPE  C21419158   6.711   4.328   3.363 -0.0363  0.1314  0.7358
  170SAPE  H14R19159   6.795   4.399   3.366  0.3533 -0.2690 -0.2615
  170SAPE  C21519160   6.662   4.294   3.481 -0.0998 -0.1403  0.0871
  170SAPE  H15R19161   6.682   4.359   3.567  2.0193 -1.9406  1.0641
  170SAPE  C21619162   6.567   4.175   3.512 -0.0455 -0.1011 -0.4246
  170SAPE  H16R19163   6.517   4.136   3.420  0.4138  0.8307 -1.0889
  170SAPE  H16S19164   6.489   4.213   3.581 -0.3276 -2.0638  0.3839
  170SAPE  C21719165   6.641   4.058   3.575 -0.2937  0.3289  0.6244
  170SAPE  H17R19166   6.728   4.017   3.520 -0.7007  1.3775 -0.8705
  170SAPE  H17S19167   6.566   3.976   3.584  0.9217 -0.7702  1.0204
  170SAPE  C21819168   6.687   4.074   3.721 -0.2828 -0.1714  0.1219
  170SAPE  H18R19169   6.788   4.120   3.727  0.4027 -1.5379 -0.5215
  170SAPE  H18S19170   6.710   3.976   3.767  1.3198  0.4330  0.7007
  170SAPE  C21919171   6.594   4.148   3.817 -0.0444 -0.3637 -0.5121
  170SAPE  H19R19172   6.502   4.086   3.824  0.3138 -0.8303  0.2138
  170SAPE  H19S19173   6.570   4.248   3.776 -0.8448  0.2212  1.3240
  170SAPE  C22019174   6.662   4.172   3.948  0.2569  0.1625 -0.0859
  170SAPE  H20R19175   6.735   4.090   3.966 -1.0165 -1.4454 -1.8548
  170SAPE  H20S19176   6.589   4.182   4.031  0.2536 -0.4009 -0.0208
  170SAPE  H20T19177   6.717   4.268   3.936  0.2676  0.0335 -1.2335
  170SAPE   C3319178   6.779   3.147   2.558  0.8947  0.0744 -0.3793
  170SAPE   H3X19179   6.761   3.125   2.665  0.6764  0.8023 -0.2662
  170SAPE   H3Y19180   6.764   3.052   2.501 -0.9562  0.2922 -0.3153
  170SAPE   C3419181   6.659   3.232   2.514  0.9076 -0.2656 -0.0852
  170SAPE   H4X19182   6.574   3.164   2.533  1.3680 -0.4224  1.5805
  170SAPE   H4Y19183   6.666   3.260   2.407  0.7976 -1.4266 -0.4115
  170SAPE   C3519184   6.644   3.366   2.588 -1.1152 -0.0859  0.0379
  170SAPE   H5X19185   6.732   3.433   2.583 -0.6737 -0.7383 -1.5004
  170SAPE   H5Y19186   6.635   3.342   2.697  1.3343 -0.0180  0.3131
  170SAPE   C3619187   6.517   3.440   2.546 -0.1025  0.2329  0.7380
  170SAPE   H6X19188   6.428   3.378   2.571  0.1774 -0.7825 -0.6394
  170SAPE   H6Y19189   6.517   3.454   2.436  1.1951 -0.1196  0.6792
  170SAPE   C3719190   6.502   3.583   2.600 -0.5238  0.3408 -0.0924
  170SAPE   H7X19191   6.408   3.623   2.557 -0.6834 -0.4684 -0.5285
  170SAPE   H7Y19192   6.583   3.643   2.554 -0.1825  0.2911  0.4462
  170SAPE   C3819193   6.502   3.592   2.753  0.1010  0.0988  0.8148
  170SAPE   H8X19194   6.521   3.486   2.782  0.3420 -1.0393 -2.9932
  170SAPE   H8Y19195   6.397   3.610   2.784 -0.1515 -0.5955  0.3867
  170SAPE   C3919196   6.606   3.689   2.809  0.8595  0.0153  0.0911
  170SAPE   H9X19197   6.594   3.787   2.758  1.5157  1.1348  1.9637
  170SAPE   H9Y19198   6.704   3.640   2.791  0.8860  0.0313  0.1889
  170SAPE  C31019199   6.597   3.720   2.957  0.3490  0.2722 -0.0798
  170SAPE  H10X19200   6.689   3.769   2.998 -0.8253  1.9518  0.6562
  170SAPE  H10Y19201   6.596   3.614   2.990 -2.6633 -0.4127 -2.0209
  170SAPE  C31119202   6.468   3.794   2.997 -0.2100  0.4935 -0.5685
  170SAPE  H11X19203   6.389   3.716   2.986 -0.4863  0.5369  0.9227
  170SAPE  H11Y19204   6.445   3.879   2.929 -0.7412  0.6789 -0.1698
  170SAPE  C31219205   6.462   3.845   3.140 -0.2620 -0.9556 -0.1676
  170SAPE  H12X19206   6.549   3.913   3.143 -0.1721 -1.0744  3.4412
  170SAPE  H12Y19207   6.476   3.761   3.211 -0.4239 -0.7864  0.0653
  170SAPE  C31319208   6.320   3.908   3.164 -0.5368 -0.9698  1.1481
  170SAPE  H13X19209   6.243   3.830   3.147 -1.2232  0.0565 -0.6494
  170SAPE  H13Y19210   6.309   3.980   3.080  2.2708  0.1454  1.5959
  170SAPE  C31419211   6.284   3.969   3.297 -0.5963  0.3340 -0.3385
  170SAPE  H14X19212   6.179   4.005   3.305 -0.5636  1.0809 -2.6375
  170SAPE  H14Y19213   6.341   4.058   3.330  0.5615 -0.5462  0.0838
  170SAPE  C31519214   6.300   3.873   3.413  1.4138  0.3778 -0.0225
  170SAPE  H15X19215   6.406   3.842   3.428  1.3618 -0.3305 -0.9779
  170SAPE  H15Y19216   6.250   3.776   3.394 -0.7511  1.5703 -0.6795
  170SAPE  C31619217   6.243   3.930   3.548 -0.0780  0.0432 -0.3234
  170SAPE  H16X19218   6.137   3.963   3.535  0.1515  1.3827  0.8789
  170SAPE  H16Y19219   6.299   4.023   3.571  3.0845 -0.9226 -3.3372
  170SAPE  C31719220   6.273   3.834   3.661 -0.2965  0.1404  0.4362
  170SAPE  H17X19221   6.380   3.804   3.660  0.2641  1.9348  1.4428
  170SAPE  H17Y19222   6.225   3.734   3.654  0.0534 -0.1535  1.9691
  170SAPE  C31819223   6.236   3.895   3.798 -0.0051  0.1158 -0.2333
  170SAPE  H18X19224   6.280   3.841   3.884  2.2320 -1.6886 -2.3601
  170SAPE  H18Y19225   6.125   3.890   3.803  0.0376  0.3957  1.4960
  170SAPE  H18Z19226   6.265   4.002   3.801  0.2591  0.0378  0.0386
  171SAPE     N19227   5.776   3.221   2.087  0.0268  0.1896 -0.0918
  171SAPE   HN119228   5.799   3.122   2.066 -1.1714  0.4350 -3.1222
  171SAPE   HN219229   5.850   3.286   2.052 -0.1975  0.1803 -0.5853
  171SAPE   HN319230   5.771   3.242   2.189  0.2008  1.7944 -0.3867
  171SAPE   C1219231   5.643   3.251   2.041  0.4457 -0.5253 -0.5301
  171SAPE  H12A19232   5.624   3.209   1.940  3.4781 -1.7416 -0.6817
  171SAPE  H12B19233   5.627   3.361   2.034 -0.9387 -0.6465  0.3657
  171SAPE   C1119234   5.533   3.187   2.128 -0.3702  0.7182 -0.5829
  171SAPE  H11A19235   5.432   3.217   2.092 -1.0993  0.7314  1.3615
  171SAPE  H11B19236   5.540   3.232   2.229  0.4492 -1.4438  0.3997
  171SAPE     P19237   5.479   2.934   2.055  0.2657 -0.6697 -0.3550
  171SAPE   O1319238   5.384   2.994   1.966  0.4257  0.1090  0.1320
  171SAPE   O1419239   5.577   2.842   1.995  0.1666 -0.0191  0.6049
  171SAPE   O1219240   5.556   3.044   2.134  0.1650 -0.2221  0.1973
  171SAPE   O1119241   5.407   2.859   2.177  0.8770 -0.0311  0.1464
  171SAPE    C119242   5.380   2.919   2.304 -0.4881  0.1563 -0.3055
  171SAPE    HA19243   5.353   3.026   2.296 -2.3694  0.0242  2.7721
  171SAPE    HB19244   5.291   2.879   2.357  0.8986 -0.3208  1.7959
  171SAPE    C219245   5.506   2.911   2.405  0.3339 -0.5648 -0.0183
  171SAPE    HS19246   5.584   2.976   2.360  0.6069 -1.1869 -0.4632
  171SAPE   O2119247   5.542   2.777   2.425 -0.4720 -0.0882  0.1329
  171SAPE   C2119248   5.644   2.732   2.350 -0.7924 -0.0147  0.1233
  171SAPE   O2219249   5.711   2.797   2.272 -0.1961 -0.2335 -0.0857
  171SAPE   C2219250   5.675   2.586   2.382  0.6356 -0.3847  0.3352
  171SAPE   H2R19251   5.786   2.579   2.395  0.9101  0.5105 -1.2318
  171SAPE   H2S19252   5.640   2.562   2.484  0.5347 -1.2352  0.1097
  171SAPE    C319253   5.470   2.975   2.539 -0.2452  0.0958  0.2502
  171SAPE    HX19254   5.396   2.909   2.589 -0.2571  1.5077  2.1931
  171SAPE    HY19255   5.421   3.073   2.519 -1.7298 -0.7419 -0.3892
  171SAPE   O3119256   5.581   2.996   2.639  0.1890  0.6658 -0.3123
  171SAPE   C3119257   5.662   3.086   2.604 -0.0135 -0.1961  0.3282
  171SAPE   O3219258   5.669   3.154   2.506  0.3069 -0.0440  0.1426
  171SAPE   C3219259   5.752   3.116   2.733  0.1309  0.6559 -0.4927
  171SAPE   H2X19260   5.680   3.140   2.814 -1.5178  1.1958 -2.0466
  171SAPE   H2Y19261   5.822   3.199   2.707 -0.3572  0.6266 -2.0222
  171SAPE   C2319262   5.613   2.480   2.280  0.2000 -0.2339  0.1046
  171SAPE   H3R19263   5.644   2.504   2.176  0.6502 -1.7317 -0.1305
  171SAPE   H3S19264   5.502   2.488   2.281  0.1740 -0.4533 -0.8063
  171SAPE   C2419265   5.644   2.339   2.328 -0.3302  0.3339 -0.7380
  171SAPE   H4R19266   5.619   2.330   2.436  1.0673 -1.8338 -0.5277
  171SAPE   H4S19267   5.751   2.309   2.320 -0.5027 -0.1956 -1.1657
  171SAPE   C2519268   5.561   2.245   2.251 -0.3623  0.4257  0.4308
  171SAPE   H5R19269   5.569   2.246   2.141 -0.5360 -1.1243  0.3773
  171SAPE   C2619270   5.460   2.166   2.291 -0.5061  0.3906 -0.0184
  171SAPE   H6R19271   5.433   2.085   2.222  0.4967 -1.4106  1.6268
  171SAPE   C2719272   5.425   2.145   2.431 -0.3944  0.6902 -0.2746
  171SAPE   H7R19273   5.358   2.229   2.462 -0.8470 -0.1608  1.1575
  171SAPE   H7S19274   5.514   2.141   2.497 -1.3777 -0.2840  1.0531
  171SAPE   C2819275   5.354   2.016   2.459  0.5348 -0.2426  0.1386
  171SAPE   H8R19276   5.247   2.022   2.484  0.2060  0.8435 -1.3962
  171SAPE   C2919277   5.409   1.891   2.425 -0.1276  0.2933  0.0103
  171SAPE   H9R19278   5.345   1.804   2.442 -0.3123  0.3440 -0.4010
  171SAPE  C21019279   5.555   1.860   2.391  0.3855  0.2063  1.0148
  171SAPE  H10R19280   5.612   1.954   2.389  0.3172  0.2386  0.3400
  171SAPE  H10S19281   5.568   1.810   2.292  0.4727  0.7061  0.7745
  171SAPE  C21119282   5.630   1.782   2.489 -0.0540  0.1090  0.2257
  171SAPE  H11R19283   5.586   1.681   2.484  2.8448 -1.1812 -1.8609
  171SAPE  C21219284   5.723   1.825   2.584 -0.3689  0.0282 -0.3139
  171SAPE  H12R19285   5.755   1.749   2.657 -1.5408 -2.3437 -2.1164
  171SAPE  C21319286   5.774   1.967   2.611 -0.1396  0.3837 -0.2553
  171SAPE  H13R19287   5.807   2.005   2.512 -1.5167  0.6738 -0.6142
  171SAPE  H13S19288   5.875   1.968   2.658  0.4142  1.0932 -1.4143
  171SAPE  C21419289   5.678   2.056   2.683  0.4437  0.6478  0.8455
  171SAPE  H14R19290   5.582   2.012   2.714  0.4653 -0.6698 -0.8230
  171SAPE  C21519291   5.711   2.180   2.728  0.0509  0.0343 -0.0494
  171SAPE  H15R19292   5.646   2.236   2.797  0.7695 -0.6567  1.2068
  171SAPE  C21619293   5.848   2.244   2.717 -0.2406 -0.2205 -0.4628
  171SAPE  H16R19294   5.861   2.335   2.654  0.3641  0.5922  0.8140
  171SAPE  H16S19295   5.925   2.179   2.671  1.0068  1.3825 -0.7352
  171SAPE  C21719296   5.913   2.270   2.857  0.1877 -0.3547  0.5266
  171SAPE  H17R19297   5.849   2.334   2.920 -1.1006 -2.0049  0.9659
  171SAPE  H17S19298   6.007   2.322   2.826  0.0116 -1.1954 -1.6124
  171SAPE  C21819299   5.951   2.139   2.921 -0.3687 -0.7403 -0.2233
  171SAPE  H18R19300   6.008   2.077   2.848  0.7306  2.1066 -1.9290
  171SAPE  H18S19301   5.863   2.083   2.960  0.2453  0.1804  2.7289
  171SAPE  C21919302   6.066   2.166   3.029 -0.3086  0.0452 -0.3906
  171SAPE  H19R19303   6.042   2.254   3.094  1.2832  0.2109  0.0230
  171SAPE  H19S19304   6.156   2.193   2.969 -0.5321 -1.2185 -1.3311
  171SAPE  C22019305   6.103   2.045   3.120 -0.0865 -0.6578 -0.0853
  171SAPE  H20R19306   6.126   1.960   3.053 -3.5727 -0.8827 -1.2148
  171SAPE  H20S19307   6.010   2.016   3.174  0.3561 -1.5694  0.2106
  171SAPE  H20T19308   6.178   2.076   3.197 -1.8275 -1.7620  2.1820
  171SAPE   C3319309   5.837   2.989   2.788  0.5846 -0.0740  0.2559
  171SAPE   H3X19310   5.901   2.959   2.702 -0.0630 -2.4057  0.5126
  171SAPE   H3Y19311   5.771   2.906   2.823  0.0690  0.1588 -0.1451
  171SAPE   C3419312   5.933   3.031   2.892  0.3292 -0.2047  0.0346
  171SAPE   H4X19313   5.978   3.127   2.858 -2.3694  0.5079 -1.8462
  171SAPE   H4Y19314   6.025   2.970   2.905  0.0407 -0.7313 -0.3784
  171SAPE   C3519315   5.883   3.039   3.028  0.0469  0.1484 -0.8300
  171SAPE   H5X19316   5.840   2.939   3.054  1.0993 -0.9545 -3.0604
  171SAPE   H5Y19317   5.798   3.109   3.020  0.4867  0.8695  0.5001
  171SAPE   C3619318   5.969   3.096   3.140  0.1460  0.2202  0.0141
  171SAPE   H6X19319   5.910   3.147   3.219 -2.4278 -0.8626 -1.1155
  171SAPE   H6Y19320   6.027   3.173   3.084 -2.7563 -0.1980 -4.0012
  171SAPE   C3719321   6.062   2.991   3.210  0.3589 -1.1335  0.3549
  171SAPE   H7X19322   6.121   2.956   3.123 -2.7239 -2.3160 -1.4225
  171SAPE   H7Y19323   5.999   2.908   3.249  0.1766 -0.9430  0.4708
  171SAPE   C3819324   6.151   3.052   3.312  0.5671 -0.3226  0.0273
  171SAPE   H8X19325   6.199   3.137   3.260  2.3660 -1.5767 -0.4484
  171SAPE   H8Y19326   6.219   2.966   3.330 -0.0099 -0.3010  2.7480
  171SAPE   C3919327   6.090   3.104   3.446 -0.3031 -0.4101  0.4463
  171SAPE   H9X19328   6.028   3.020   3.485  2.0017 -3.4823 -2.0376
  171SAPE   H9Y19329   6.026   3.187   3.409  1.6967  1.2358  0.5050
  171SAPE  C31019330   6.174   3.161   3.547 -1.2371 -0.0031 -0.1167
  171SAPE  H10X19331   6.233   3.241   3.498 -2.9219 -0.3034 -2.8367
  171SAPE  H10Y19332   6.237   3.082   3.594 -0.4344 -0.4429 -1.8366
  171SAPE  C31119333   6.094   3.221   3.665 -0.2949 -0.0955  0.2153
  171SAPE  H11X19334   6.013   3.150   3.690 -1.4356  0.5828 -1.3923
  171SAPE  H11Y19335   6.046   3.320   3.648  0.4394  0.2502  0.1206
  171SAPE  C31219336   6.185   3.231   3.787 -0.1122 -0.2521  0.1860
  171SAPE  H12X19337   6.291   3.222   3.756  0.0893  0.8502  0.5078
  171SAPE  H12Y19338   6.144   3.168   3.868 -0.6344 -0.1593  0.0014
  171SAPE  C31319339   6.180   3.369   3.840 -0.4126 -0.5724 -0.3515
  171SAPE  H13X19340   6.079   3.393   3.880  0.3640  1.6712  0.4518
  171SAPE  H13Y19341   6.216   3.420   3.748  0.0116 -0.0880  0.0691
  171SAPE  C31419342   6.282   3.392   3.951 -0.5671 -0.0584 -0.1799
  171SAPE  H14X19343   6.375   3.347   3.909 -0.7153  0.9711 -1.6741
  171SAPE  H14Y19344   6.262   3.330   4.041  0.6472 -0.1141  0.0806
  171SAPE  C31519345   6.324   3.535   3.989 -0.0670  0.2650 -0.3858
  171SAPE  H15X19346   6.343   3.603   3.902 -1.0723  0.0724 -0.7631
  171SAPE  H15Y19347   6.426   3.518   4.030 -0.2181  0.2766 -0.0118
  171SAPE  C31619348   6.231   3.602   4.090  0.3937 -0.2080 -0.3552
  171SAPE  H16X19349   6.128   3.565   4.072  0.4571 -1.9227  2.2223
  171SAPE  H16Y19350   6.237   3.713   4.087  0.0821 -0.1967 -0.6432
  171SAPE  C31719351   6.270   3.582   4.235 -0.4469 -0.0400 -0.0864
  171SAPE  H17X19352   6.371   3.628   4.238 -1.0842  2.0363 -3.8695
  171SAPE  H17Y19353   6.268   3.476   4.268 -1.0924 -0.8124 -2.4448
  171SAPE  C31819354   6.182   3.648   4.339  0.1972  0.9385  0.0964
  171SAPE  H18X19355   6.233   3.619   4.434  0.6189  0.6796 -0.2087
  171SAPE  H18Y19356   6.086   3.592   4.341  1.0772 -0.6040  0.1117
  171SAPE  H18Z19357   6.157   3.755   4.322 -1.2559  0.4561 -0.9782
  172SAPE     N19358   0.891   2.052   1.891  0.6254 -0.5713  0.3758
  172SAPE   HN119359   0.844   2.036   1.799  0.7464 -2.2858  0.5960
  172SAPE   HN219360   0.889   1.981   1.966  0.2841 -0.6341  0.3098
  172SAPE   HN319361   0.833   2.134   1.920 -0.0594 -0.8807 -0.0820
  172SAPE   C1219362   1.030   2.097   1.871  0.3237  0.0023 -0.8484
  172SAPE  H12A19363   1.075   2.015   1.810 -0.7885 -1.4695  0.2290
  172SAPE  H12B19364   1.087   2.093   1.967  2.1198  0.8413 -1.8256
  172SAPE   C1119365   1.040   2.231   1.794 -1.1885 -0.5983 -0.2176
  172SAPE  H11A19366   1.025   2.204   1.688 -1.6522  0.0044 -0.3105
  172SAPE  H11B19367   1.143   2.274   1.801 -0.8997 -1.2853 -0.1422
  172SAPE     P19368   0.945   2.474   1.832 -0.2818  0.2702  0.2329
  172SAPE   O1319369   1.024   2.529   1.718  0.4312 -0.0314 -0.3796
  172SAPE   O1419370   0.811   2.541   1.843  0.4323 -0.0859 -0.1523
  172SAPE   O1219371   0.929   2.317   1.827 -0.3753 -0.2153  0.3423
  172SAPE   O1119372   1.013   2.482   1.978  0.1609  0.6628 -0.1200
  172SAPE    C119373   0.955   2.418   2.091  0.3415 -0.1200 -0.4235
  172SAPE    HA19374   0.891   2.333   2.058  0.7342  0.8027 -3.9372
  172SAPE    HB19375   1.029   2.371   2.160  0.1832  1.7529  1.1058
  172SAPE    C219376   0.881   2.522   2.183  0.6515  0.1008  0.6007
  172SAPE    HS19377   0.800   2.579   2.133  0.1513  0.8872  2.2516
  172SAPE   O2119378   0.981   2.608   2.233  0.2040  0.0146 -0.0900
  172SAPE   C2119379   0.936   2.727   2.278  0.3440 -0.0124  1.1467
  172SAPE   O2219380   0.822   2.769   2.260 -0.4688 -0.0349 -0.3949
  172SAPE   C2219381   1.048   2.810   2.339  0.7439  0.4808 -0.4658
  172SAPE   H2R19382   1.147   2.760   2.330  2.1938  2.7700  1.2318
  172SAPE   H2S19383   1.056   2.908   2.286  4.1220  0.9928  0.7506
  172SAPE    C319384   0.819   2.443   2.306 -0.1063 -0.0264  0.6300
  172SAPE    HX19385   0.896   2.378   2.352  1.0478  0.5621 -0.4230
  172SAPE    HY19386   0.738   2.380   2.265  0.4008 -1.1251  1.2686
  172SAPE   O3119387   0.772   2.527   2.411  0.2047  0.4579  0.0499
  172SAPE   C3119388   0.640   2.565   2.399 -0.1060 -0.1574 -0.0894
  172SAPE   O3219389   0.565   2.529   2.313  0.1154  0.8925  0.0382
  172SAPE   C3219390   0.599   2.640   2.525 -1.5818 -0.6238  0.7826
  172SAPE   H2X19391   0.527   2.719   2.495  0.0641  0.2713 -0.9947
  172SAPE   H2Y19392   0.694   2.692   2.549 -1.7513 -0.5132  1.2322
  172SAPE   C2319393   1.001   2.852   2.483  0.3209  0.8315  0.5522
  172SAPE   H3R19394   0.976   2.774   2.559  1.2653 -0.5072 -0.4639
  172SAPE   H3S19395   0.906   2.905   2.458  1.5953  1.7737 -2.6789
  172SAPE   C2419396   1.097   2.951   2.541 -0.3458 -0.1486  0.2597
  172SAPE   H4R19397   1.045   2.973   2.636 -0.0941 -1.8639  0.8379
  172SAPE   H4S19398   1.100   3.048   2.486 -1.9760 -0.0985  0.2260
  172SAPE   C2519399   1.237   2.904   2.574 -0.4156 -0.8628 -0.3069
  172SAPE   H5R19400   1.294   2.846   2.500  0.1306 -1.7676  0.7822
  172SAPE   C2619401   1.300   2.922   2.698 -0.1932 -0.0279  0.5206
  172SAPE   H6R19402   1.396   2.872   2.719 -0.2197 -0.3872 -0.1772
  172SAPE   C2719403   1.236   2.975   2.821  1.0221 -0.0038  0.5634
  172SAPE   H7R19404   1.173   2.899   2.873 -4.8981  3.2023 -0.9578
  172SAPE   H7S19405   1.162   3.056   2.804  0.3639 -0.4308  1.3225
  172SAPE   C2819406   1.334   3.043   2.913 -0.0349 -0.2230 -0.2393
  172SAPE   H8R19407   1.421   3.097   2.872  0.6188 -0.6765  0.5286
  172SAPE   C2919408   1.338   3.036   3.052  0.1062  0.9046 -0.1781
  172SAPE   H9R19409   1.412   3.101   3.101 -0.2900  0.7020  0.6994
  172SAPE  C21019410   1.262   2.947   3.145  1.3458  0.4593 -1.0615
  172SAPE  H10R19411   1.326   2.871   3.196  0.2815  0.2086 -0.0457
  172SAPE  H10S19412   1.198   2.877   3.087  2.3454 -0.4133 -1.1493
  172SAPE  C21119413   1.174   3.014   3.253 -0.2975  0.4626  0.9452
  172SAPE  H11R19414   1.067   3.004   3.229 -0.2508 -0.8960  1.2495
  172SAPE  C21219415   1.214   3.095   3.352 -0.3035  0.1049  0.2830
  172SAPE  H12R19416   1.131   3.122   3.420 -1.2704 -1.0718 -0.3916
  172SAPE  C21319417   1.357   3.123   3.400  0.0753 -0.4168 -0.1354
  172SAPE  H13R19418   1.402   3.180   3.316  0.1791  2.2571  1.5981
  172SAPE  H13S19419   1.409   3.025   3.411  2.6410  1.0514  2.4500
  172SAPE  C21419420   1.384   3.202   3.529 -0.2826  0.0383 -0.2024
  172SAPE  H14R19421   1.392   3.312   3.521  1.9704  0.0533  1.2302
  172SAPE  C21519422   1.398   3.148   3.652 -0.5169 -0.0002 -0.1173
  172SAPE  H15R19423   1.416   3.211   3.740 -1.7708 -1.5475  1.3240
  172SAPE  C21619424   1.378   3.007   3.690 -0.3823 -0.2863  0.3381
  172SAPE  H16R19425   1.327   2.952   3.609  0.3668  2.1732 -1.9395
  172SAPE  H16S19426   1.305   3.018   3.773 -0.2651  1.2613  0.2582
  172SAPE  C21719427   1.495   2.927   3.754 -0.5368 -0.7483 -0.4290
  172SAPE  H17R19428   1.534   2.979   3.843  2.6445 -1.7474 -1.1116
  172SAPE  H17S19429   1.578   2.920   3.681 -0.4021  0.6470 -0.4305
  172SAPE  C21819430   1.461   2.785   3.807  0.5187 -0.2563  0.1705
  172SAPE  H18R19431   1.456   2.709   3.726 -0.1769  1.3059 -1.3133
  172SAPE  H18S19432   1.359   2.788   3.850  0.4944 -0.9756  0.1811
  172SAPE  C21919433   1.547   2.735   3.918 -0.7699  0.0051 -0.5581
  172SAPE  H19R19434   1.524   2.788   4.013 -0.4017 -0.0614 -0.4302
  172SAPE  H19S19435   1.649   2.764   3.886 -0.1796 -0.4284  0.8768
  172SAPE  C22019436   1.552   2.576   3.929  0.2411 -0.5153 -0.4111
  172SAPE  H20R19437   1.647   2.553   3.982 -0.8191  1.9072  2.9206
  172SAPE  H20S19438   1.556   2.536   3.826 -0.6714 -1.0437 -0.2517
  172SAPE  H20T19439   1.466   2.529   3.981 -2.7324  2.4464 -2.1973
  172SAPE   C3319440   0.542   2.553   2.641  0.6345  0.2398 -0.5575
  172SAPE   H3X19441   0.629   2.493   2.675  0.5054  0.7051  0.6373
  172SAPE   H3Y19442   0.471   2.484   2.590  0.9072  1.2116 -2.3355
  172SAPE   C3419443   0.477   2.639   2.752 -0.2972 -0.1132 -0.9909
  172SAPE   H4X19444   0.407   2.568   2.801 -0.2559 -1.5177 -2.8863
  172SAPE   H4Y19445   0.409   2.715   2.708 -0.5693 -0.6698 -1.5312
  172SAPE   C3519446   0.573   2.698   2.854 -0.1011 -0.2102 -0.2928
  172SAPE   H5X19447   0.647   2.760   2.799  0.7281 -0.7942  0.1492
  172SAPE   H5Y19448   0.623   2.623   2.919  1.7643  1.8967  0.8130
  172SAPE   C3619449   0.497   2.789   2.950 -0.5409 -0.5952  0.0317
  172SAPE   H6X19450   0.440   2.868   2.895 -0.6920  0.2694  1.3964
  172SAPE   H6Y19451   0.567   2.844   3.017 -1.7729  0.5479  0.4254
  172SAPE   C3719452   0.379   2.722   3.026 -0.2656  0.5505  0.0746
  172SAPE   H7X19453   0.387   2.613   3.005  3.3156  0.7025  0.0531
  172SAPE   H7Y19454   0.287   2.779   3.000 -2.5968 -2.7406  0.5100
  172SAPE   C3819455   0.401   2.748   3.176 -0.3949  0.3617 -0.4697
  172SAPE   H8X19456   0.497   2.698   3.201 -0.5283 -0.1047 -0.8540
  172SAPE   H8Y19457   0.321   2.700   3.237 -0.4251  1.7290  0.6107
  172SAPE   C3919458   0.400   2.895   3.229  0.3515 -0.2968  0.0726
  172SAPE   H9X19459   0.324   2.965   3.188 -0.3350 -0.2292  1.4060
  172SAPE   H9Y19460   0.499   2.934   3.199  0.7177 -0.9109  0.4672
  172SAPE  C31019461   0.395   2.893   3.388 -0.0904  0.3633  0.5499
  172SAPE  H10X19462   0.442   2.987   3.425 -0.3295  0.0136  1.7847
  172SAPE  H10Y19463   0.452   2.807   3.428  1.0011  0.1450 -1.3454
  172SAPE  C31119464   0.255   2.891   3.450 -0.4106 -0.2733  0.1637
  172SAPE  H11X19465   0.186   2.814   3.409  1.7297 -1.2276 -1.8755
  172SAPE  H11Y19466   0.212   2.993   3.438  1.3337  0.3622 -1.0554
  172SAPE  C31219467   0.269   2.873   3.600  0.7391  0.2112 -0.3783
  172SAPE  H12X19468   0.347   2.938   3.643 -1.0149  1.0421  1.7377
  172SAPE  H12Y19469   0.301   2.769   3.620  0.3021  0.2454  0.5422
  172SAPE  C31319470   0.146   2.900   3.689 -0.5187  0.3606 -0.8512
  172SAPE  H13X19471   0.081   2.810   3.691  0.0753 -0.0900  1.2381
  172SAPE  H13Y19472   0.096   2.995   3.664 -0.5789  0.1755 -1.4567
  172SAPE  C31419473   0.195   2.930   3.836 -0.5420 -0.0573  0.1294
  172SAPE  H14X19474   0.240   3.032   3.830 -0.8429  0.1327  0.9782
  172SAPE  H14Y19475   0.269   2.858   3.878 -1.1642 -1.3434 -0.9154
  172SAPE  C31519476   0.086   2.929   3.942  0.7937  0.2087 -0.2316
  172SAPE  H15X19477   0.007   3.004   3.919  1.4704  0.7410 -0.8910
  172SAPE  H15Y19478   0.124   2.952   4.044  1.7470  0.4416 -0.6220
  172SAPE  C31619479   0.005   2.802   3.948  0.0445 -0.2049 -0.0167
  172SAPE  H16X19480   0.075   2.715   3.958  0.9266  0.3733 -0.9089
  172SAPE  H16Y19481  -0.051   2.804   3.852 -2.0020 -0.7334  1.1215
  172SAPE  C31719482  -0.104   2.815   4.050 -0.0134  0.3726  0.3147
  172SAPE  H17X19483  -0.170   2.899   4.020 -0.9237 -0.5738 -0.3927
  172SAPE  H17Y19484  -0.044   2.825   4.143  1.1666 -0.0412 -0.3862
  172SAPE  C31819485  -0.175   2.688   4.064  1.1495  0.0432 -0.0202
  172SAPE  H18X19486  -0.229   2.685   4.161  0.7155 -1.6524 -0.2826
  172SAPE  H18Y19487  -0.107   2.601   4.050 -0.0022 -0.7639 -0.7330
  172SAPE  H18Z19488  -0.253   2.681   3.986  0.5350 -0.9034  0.6474
  173SLPC     N19489   6.820   6.265   6.074 -0.0380  0.6320  0.2500
  173SLPC   C1319490   6.724   6.151   6.110  0.2483  0.0575  0.4363
  173SLPC  H13A19491   6.770   6.054   6.097  0.9453  0.3899  0.3408
  173SLPC  H13B19492   6.696   6.165   6.213 -0.0973  0.6860  0.2664
  173SLPC  H13C19493   6.632   6.155   6.054 -0.2570 -1.7184  1.0959
  173SLPC   C1419494   6.904   6.242   5.958  0.1090 -0.4137 -0.5137
  173SLPC  H14A19495   6.842   6.242   5.869  0.3594 -0.0606 -0.6880
  173SLPC  H14B19496   6.984   6.314   5.957  0.4107 -0.6430  1.9749
  173SLPC  H14C19497   6.950   6.144   5.957  0.9509 -0.0712  1.0679
  173SLPC   C1519498   6.919   6.274   6.189  0.1073 -0.5593  0.0517
  173SLPC  H15A19499   6.958   6.174   6.202 -0.7248 -0.9071 -0.0435
  173SLPC  H15B19500   7.003   6.339   6.169 -0.8582  0.5485 -0.5375
  173SLPC  H15C19501   6.871   6.315   6.276  0.1678  2.1811 -1.0983
  173SLPC   C1219502   6.751   6.398   6.063 -0.0202  0.4239  0.0669
  173SLPC  H12A19503   6.823   6.475   6.043  1.5295 -0.8634  0.4627
  173SLPC  H12B19504   6.705   6.424   6.157  0.0191  1.0397 -0.0836
  173SLPC   C1119505   6.639   6.408   5.954  0.0661 -0.3444  0.6228
  173SLPC  H11A19506   6.673   6.378   5.853  0.7816 -0.9874  1.0404
  173SLPC  H11B19507   6.616   6.516   5.944  0.0029 -0.4123  0.0526
  173SLPC     P19508   6.435   6.371   6.117 -0.3398 -0.5303  0.1674
  173SLPC   O1319509   6.365   6.268   6.184  0.7007 -0.4638 -0.3489
  173SLPC   O1419510   6.512   6.450   6.217 -0.1868 -0.4936 -0.5441
  173SLPC   O1219511   6.524   6.331   5.997 -0.1042  0.4003  0.1849
  173SLPC   O1119512   6.344   6.476   6.046 -0.4025  0.7587  0.1302
  173SLPC    C119513   6.239   6.436   5.956  0.2590 -0.1377  0.6695
  173SLPC    HA19514   6.274   6.366   5.877 -1.3460  1.1730 -1.2908
  173SLPC    HB19515   6.151   6.389   6.005 -0.0768 -1.1080 -0.8013
  173SLPC    C219516   6.191   6.563   5.881  1.0311 -0.7182  0.9897
  173SLPC    HS19517   6.118   6.616   5.947 -1.1975 -1.6275 -0.6240
  173SLPC   O2119518   6.129   6.518   5.755 -0.6750 -0.1978 -0.3906
  173SLPC   C2119519   6.006   6.492   5.768 -0.1209 -0.5086  0.8154
  173SLPC   O2219520   5.934   6.513   5.863 -0.4859 -0.3460  0.5772
  173SLPC   C2219521   5.945   6.436   5.637 -0.1381 -0.3857  0.4688
  173SLPC   H2R19522   6.008   6.460   5.548  1.0159 -1.0759  1.0738
  173SLPC   H2S19523   5.957   6.326   5.648  0.5681 -0.3032  0.5732
  173SLPC    C319524   6.311   6.662   5.836 -0.4057  0.8291 -0.1843
  173SLPC    HX19525   6.367   6.598   5.765 -2.9370 -1.7299 -0.0743
  173SLPC    HY19526   6.376   6.685   5.924  0.6603  1.6824 -1.1738
  173SLPC   O3119527   6.270   6.783   5.769 -0.2395 -0.5084 -0.1645
  173SLPC   C3119528   6.384   6.850   5.735  0.1904  1.1339  0.3751
  173SLPC   O3219529   6.498   6.798   5.735 -0.2780 -1.2181 -0.4536
  173SLPC   C3219530   6.354   6.987   5.686  0.7433  0.0806 -0.2552
  173SLPC   H2X19531   6.429   7.057   5.728  2.7969 -2.3141  0.3145
  173SLPC   H2Y19532   6.255   7.012   5.730  0.7372  1.6994 -1.1057
  173SLPC   C2319533   5.790   6.461   5.618  0.0352  0.0782 -0.0770
  173SLPC   H3R19534   5.733   6.461   5.713 -1.1959  0.7932 -0.7960
  173SLPC   H3S19535   5.771   6.377   5.548  1.5975  0.3698 -0.9093
  173SLPC   C2419536   5.743   6.580   5.535  0.1112 -0.4226  0.3488
  173SLPC   H4R19537   5.829   6.607   5.470  0.6190  0.0764  1.2147
  173SLPC   H4S19538   5.724   6.663   5.606  0.5264 -1.1120  1.2949
  173SLPC   C2519539   5.626   6.571   5.447  0.4787  0.0115  0.2132
  173SLPC   H5R19540   5.529   6.573   5.502  1.3159 -1.0107  1.7808
  173SLPC   H5S19541   5.621   6.480   5.383 -0.4197 -0.8470  1.4559
  173SLPC   C2619542   5.639   6.693   5.353  0.4412 -0.7026  0.3688
  173SLPC   H6R19543   5.727   6.681   5.287 -0.3756 -0.2169 -0.8680
  173SLPC   H6S19544   5.655   6.786   5.412  1.2539 -0.5537 -0.0764
  173SLPC   C2719545   5.505   6.720   5.270 -0.4027  0.4067  0.0262
  173SLPC   H7R19546   5.414   6.731   5.333 -1.1039  1.5148 -1.1273
  173SLPC   H7S19547   5.493   6.631   5.204  0.8947 -1.1344  1.7664
  173SLPC   C2819548   5.525   6.849   5.184  0.6105  0.0672 -0.1868
  173SLPC   H8R19549   5.625   6.846   5.137  1.2536  0.0463  1.1453
  173SLPC   H8S19550   5.525   6.938   5.250 -2.2564 -0.2172  0.3287
  173SLPC   C2919551   5.418   6.859   5.074 -0.5565 -0.1151 -0.4271
  173SLPC   H9R19552   5.445   6.800   4.985  2.5130 -0.8680  0.8786
  173SLPC  C21019553   5.305   6.926   5.094  0.0574  0.0657  0.0068
  173SLPC  H10R19554   5.229   6.927   5.014  2.4825 -0.4035 -2.4864
  173SLPC  C21119555   5.282   7.024   5.206  0.5000 -0.6722  0.0797
  173SLPC  H11R19556   5.247   7.119   5.159  1.5165 -1.2644 -2.0356
  173SLPC  H11S19557   5.374   7.065   5.253 -1.1125  2.1179  1.0894
  173SLPC  C21219558   5.191   6.963   5.317  1.5554 -0.1590 -0.4196
  173SLPC  H12R19559   5.213   6.859   5.343 -1.2488 -1.3046 -2.2659
  173SLPC  C21319560   5.074   7.017   5.375 -0.1132  0.0836  0.3312
  173SLPC  H13R19561   5.025   6.953   5.450  0.6731 -2.5820 -1.2910
  173SLPC  C21419562   5.038   7.163   5.365  0.1018  0.0300 -0.4293
  173SLPC  H14R19563   4.947   7.169   5.303  0.0404 -2.9446 -0.7973
  173SLPC  H14S19564   5.119   7.226   5.322 -0.5885  1.7924  0.7460
  173SLPC  C21519565   5.011   7.209   5.510 -0.0334  0.1831 -0.0621
  173SLPC  H15R19566   4.918   7.161   5.547 -0.0406  0.0044 -0.3047
  173SLPC  H15S19567   4.982   7.316   5.510 -0.8733  0.0110  2.1314
  173SLPC  C21619568   5.124   7.205   5.611 -0.6243  0.1157  0.2509
  173SLPC  H16R19569   5.208   7.260   5.563 -0.2334  0.0029  0.7995
  173SLPC  H16S19570   5.143   7.096   5.621  1.3301  0.2766 -1.1648
  173SLPC  C21719571   5.092   7.270   5.747  0.0148 -0.4690 -0.6514
  173SLPC  H17R19572   5.010   7.206   5.787 -0.4113  0.4388 -0.0188
  173SLPC  H17S19573   5.066   7.378   5.749  0.2752 -0.3739  2.2440
  173SLPC  C21819574   5.209   7.255   5.843  0.3164  0.7563  0.0175
  173SLPC  H18R19575   5.166   7.295   5.937 -0.4068 -0.3378  0.1741
  173SLPC  H18S19576   5.300   7.313   5.817  0.0501  1.4315  0.5717
  173SLPC  H18T19577   5.225   7.147   5.863 -2.5798  0.5361  1.5908
  173SLPC   C3319578   6.358   6.980   5.531  0.4741  0.4299 -0.3623
  173SLPC   H3X19579   6.455   6.937   5.496  2.6553  3.0285  2.0383
  173SLPC   H3Y19580   6.356   7.085   5.496  0.1689  0.7244  0.5076
  173SLPC   C3419581   6.235   6.921   5.467 -0.7378  0.3119 -0.4996
  173SLPC   H4X19582   6.147   6.946   5.530 -1.0166  3.0583 -1.8265
  173SLPC   H4Y19583   6.238   6.810   5.467 -0.4374  0.2752  1.9879
  173SLPC   C3519584   6.199   6.962   5.323  0.0312  0.1703  0.0676
  173SLPC   H5X19585   6.284   6.978   5.253 -0.6528  0.2298 -0.7547
  173SLPC   H5Y19586   6.139   7.055   5.337 -1.6029 -0.7077 -0.9179
  173SLPC   C3619587   6.106   6.852   5.280 -0.1312 -0.1333  0.1997
  173SLPC   H6X19588   6.019   6.837   5.347 -1.9064  3.6491 -0.9937
  173SLPC   H6Y19589   6.150   6.750   5.279 -0.3656 -0.3138  2.7203
  173SLPC   C3719590   6.048   6.892   5.141  0.5836 -0.2696  0.2987
  173SLPC   H7X19591   6.128   6.912   5.067  0.1685  1.3436  0.2279
  173SLPC   H7Y19592   6.001   6.993   5.145  1.2660  0.1235 -1.0258
  173SLPC   C3819593   5.944   6.793   5.089 -0.1254  0.1215  0.4087
  173SLPC   H8X19594   5.862   6.781   5.163 -0.6210  2.7510  0.3862
  173SLPC   H8Y19595   5.984   6.689   5.084  0.6868  0.4422  0.0058
  173SLPC   C3919596   5.876   6.822   4.956  0.2009 -0.1994 -0.5081
  173SLPC   H9X19597   5.830   6.923   4.956  1.1581  0.2419 -0.6818
  173SLPC   H9Y19598   5.812   6.739   4.918 -0.5274  1.3528 -2.9196
  173SLPC  C31019599   5.988   6.805   4.853  0.4103 -0.1842  0.0769
  173SLPC  H10X19600   6.038   6.706   4.858 -1.2433 -1.1126 -1.0400
  173SLPC  H10Y19601   6.057   6.891   4.872 -1.6919  1.7870 -0.7723
  173SLPC  C31119602   5.942   6.831   4.710  0.1604  0.5469 -0.6894
  173SLPC  H11X19603   6.021   6.895   4.664  2.3486 -1.7620 -0.3374
  173SLPC  H11Y19604   5.846   6.886   4.716 -0.8208 -1.1576 -0.1811
  173SLPC  C31219605   5.903   6.706   4.634  0.0849  0.5570 -0.5639
  173SLPC  H12X19606   5.850   6.623   4.686 -0.2585  0.4343 -1.1134
  173SLPC  H12Y19607   6.000   6.667   4.596  0.9739  2.5339 -0.4335
  173SLPC  C31319608   5.817   6.735   4.512 -0.2487 -0.2280 -0.0163
  173SLPC  H13X19609   5.856   6.823   4.457  1.9996 -1.0334  0.1780
  173SLPC  H13Y19610   5.711   6.762   4.532  0.2568  1.1937  0.8936
  173SLPC  C31419611   5.813   6.622   4.398  0.5369  0.1807 -0.0950
  173SLPC  H14X19612   5.741   6.661   4.322 -1.2665  0.5249  1.7127
  173SLPC  H14Y19613   5.770   6.529   4.443 -0.7934  0.6009 -0.4364
  173SLPC  C31519614   5.954   6.605   4.334  0.4972  0.3946 -0.2655
  173SLPC  H15X19615   6.026   6.564   4.407  0.6862 -0.7698 -1.0694
  173SLPC  H15Y19616   5.989   6.706   4.304  0.3413 -0.0475 -2.0912
  173SLPC  C31619617   5.941   6.521   4.206  0.1892 -1.1268  0.8480
  173SLPC  H16X19618   5.856   6.552   4.142  1.1911 -1.9990 -0.9771
  173SLPC  H16Y19619   5.926   6.412   4.223  1.2192 -1.8271 -2.1994
  173SLPC  C31719620   6.065   6.541   4.109 -0.0844 -0.3603 -0.0712
  173SLPC  H17X19621   6.156   6.519   4.168 -0.8243  0.3695  1.4126
  173SLPC  H17Y19622   6.082   6.649   4.092  2.1992 -0.7739 -0.7033
  173SLPC  C31819623   6.059   6.481   3.965 -0.1444 -0.9127 -0.1718
  173SLPC  H18X19624   6.155   6.479   3.909 -0.1415  0.3010 -0.2269
  173SLPC  H18Y19625   5.980   6.543   3.919 -0.9702  0.5023  2.9067
  173SLPC  H18Z19626   6.029   6.374   3.971  1.2830 -1.3540 -0.3855
  174SLPC     N19627   2.918   6.875   6.142 -0.3589 -0.5296 -0.1167
  174SLPC   C1319628   3.039   6.848   6.057  0.1561 -0.4858 -0.4095
  174SLPC  H13A19629   3.127   6.889   6.104  0.6443  0.0525 -1.7458
  174SLPC  H13B19630   3.060   6.744   6.039  0.1341 -0.2992 -1.6256
  174SLPC  H13C19631   3.030   6.894   5.959  0.8661 -1.0375 -0.7430
  174SLPC   C1419632   2.923   6.784   6.261 -0.2882 -0.5148 -0.2020
  174SLPC  H14A19633   2.847   6.811   6.333 -2.0537 -0.5691 -1.9542
  174SLPC  H14B19634   2.915   6.679   6.236  2.7064 -1.0150  0.5488
  174SLPC  H14C19635   3.019   6.799   6.309 -0.5376 -0.8538  0.4131
  174SLPC   C1519636   2.790   6.845   6.078 -0.5457 -0.2500  0.2101
  174SLPC  H15A19637   2.699   6.876   6.128  0.1071  0.2659  1.1194
  174SLPC  H15B19638   2.786   6.881   5.976  1.4915 -1.1083 -0.2178
  174SLPC  H15C19639   2.771   6.739   6.077 -1.6529 -0.1826  3.0644
  174SLPC   C1219640   2.915   7.020   6.187 -0.1103  0.2832 -0.0622
  174SLPC  H12A19641   3.007   7.031   6.243  0.0659 -0.3834 -0.2164
  174SLPC  H12B19642   2.836   7.037   6.258  0.1327  0.3590  0.1938
  174SLPC   C1119643   2.918   7.132   6.079  0.5391  0.3629 -0.0857
  174SLPC  H11A19644   2.996   7.105   6.006  1.6711  0.3190  1.1099
  174SLPC  H11B19645   2.948   7.225   6.132 -0.2493  0.6727 -0.1682
  174SLPC     P19646   2.657   7.185   6.089  0.8569 -0.0637 -0.1387
  174SLPC   O1319647   2.549   7.121   6.013  0.0314 -0.3925  0.2276
  174SLPC   O1419648   2.667   7.153   6.231 -0.3777  0.5890 -0.1138
  174SLPC   O1219649   2.793   7.149   6.012  0.5649 -0.4408 -0.0293
  174SLPC   O1119650   2.632   7.347   6.084  0.1228  0.5500  0.1728
  174SLPC    C119651   2.737   7.444   6.067  0.5020 -0.0929  0.8012
  174SLPC    HA19652   2.725   7.525   6.143 -1.2776 -0.8823  1.4051
  174SLPC    HB19653   2.840   7.402   6.069  0.4616 -0.2476 -0.1989
  174SLPC    C219654   2.716   7.523   5.932  0.5922  0.2238  0.1156
  174SLPC    HS19655   2.624   7.582   5.948  0.0061 -0.7739  0.5459
  174SLPC   O2119656   2.702   7.417   5.832  0.1012  0.3576 -0.3246
  174SLPC   C2119657   2.579   7.393   5.785 -0.0666 -0.5263 -0.1544
  174SLPC   O2219658   2.479   7.437   5.836  0.2816  0.3112 -0.2801
  174SLPC   C2219659   2.569   7.323   5.646 -0.6151  0.4542 -1.1719
  174SLPC   H2R19660   2.674   7.298   5.620 -0.6761  0.0016 -0.9939
  174SLPC   H2S19661   2.513   7.229   5.664 -1.2449  0.9150 -0.6960
  174SLPC    C319662   2.828   7.625   5.908  0.8936  0.2654 -0.0234
  174SLPC    HX19663   2.930   7.584   5.925 -0.1069 -1.7572  1.4935
  174SLPC    HY19664   2.821   7.707   5.982  1.4313 -0.6785  1.1011
  174SLPC   O3119665   2.811   7.676   5.773  0.6485 -0.0853  0.2286
  174SLPC   C3119666   2.921   7.689   5.693  1.1584  0.1080 -0.2359
  174SLPC   O3219667   3.031   7.649   5.714  0.0936  0.0003 -0.6853
  174SLPC   C3219668   2.886   7.761   5.559 -0.1344  0.0156 -0.4745
  174SLPC   H2X19669   2.878   7.869   5.583 -0.8882 -0.2261  0.3918
  174SLPC   H2Y19670   2.783   7.737   5.527 -0.4979  2.1366 -1.0579
  174SLPC   C2319671   2.490   7.412   5.541  0.2155  0.4399 -0.2103
  174SLPC   H3R19672   2.393   7.454   5.574 -0.1825  1.4221 -2.4489
  174SLPC   H3S19673   2.475   7.354   5.447 -0.7032  1.9226 -1.0134
  174SLPC   C2419674   2.587   7.519   5.493 -0.1233  0.8370  0.1963
  174SLPC   H4R19675   2.669   7.480   5.428 -1.3825 -0.5125 -0.6305
  174SLPC   H4S19676   2.631   7.566   5.584  1.2900  0.8008 -0.4372
  174SLPC   C2519677   2.509   7.629   5.415 -0.0748 -0.2050  0.6887
  174SLPC   H5R19678   2.577   7.716   5.417 -0.5822  0.2484 -0.7999
  174SLPC   H5S19679   2.414   7.658   5.465 -1.4147 -0.3413 -1.6531
  174SLPC   C2619680   2.477   7.593   5.270 -0.0837 -0.1336 -0.7344
  174SLPC   H6R19681   2.405   7.509   5.273 -0.4806  0.1934 -0.9688
  174SLPC   H6S19682   2.570   7.550   5.226 -0.2260  0.0310 -1.2052
  174SLPC   C2719683   2.424   7.707   5.182 -0.2361 -0.1889 -0.2351
  174SLPC   H7R19684   2.508   7.780   5.173 -0.8472  0.3034 -3.0117
  174SLPC   H7S19685   2.339   7.761   5.228 -0.1223 -0.9950  0.9563
  174SLPC   C2819686   2.399   7.665   5.038 -0.5002  0.2597  0.7784
  174SLPC   H8R19687   2.491   7.618   4.998 -1.0531  0.3195 -0.5913
  174SLPC   H8S19688   2.377   7.759   4.982 -1.9218 -1.0344 -0.9551
  174SLPC   C2919689   2.291   7.564   5.025  0.1165 -0.7805  0.1031
  174SLPC   H9R19690   2.304   7.478   5.092  2.4372 -0.6094 -0.0618
  174SLPC  C21019691   2.187   7.571   4.943  1.2598 -0.8822 -0.2559
  174SLPC  H10R19692   2.105   7.498   4.949  0.6931 -0.1368  2.4898
  174SLPC  C21119693   2.140   7.672   4.843 -0.3797 -0.5099  0.6546
  174SLPC  H11R19694   2.169   7.776   4.871  0.3200 -0.5603  0.1318
  174SLPC  H11S19695   2.030   7.682   4.831 -0.2522  1.4077  0.6490
  174SLPC  C21219696   2.203   7.662   4.703 -0.1760  0.3421  0.3108
  174SLPC  H12R19697   2.284   7.732   4.677 -0.6081  0.6023 -0.3574
  174SLPC  C21319698   2.154   7.594   4.597 -0.0001  0.1430  0.1965
  174SLPC  H13R19699   2.213   7.603   4.505 -1.0411 -2.1771 -0.7820
  174SLPC  C21419700   2.045   7.496   4.595 -0.6871  0.0878  0.1981
  174SLPC  H14R19701   1.982   7.523   4.682  0.3985  1.5456  0.5902
  174SLPC  H14S19702   2.082   7.392   4.606  0.7158  0.3765 -1.3365
  174SLPC  C21519703   1.950   7.494   4.473  0.5905  0.7003  0.2111
  174SLPC  H15R19704   1.907   7.595   4.453 -0.5443  0.0901 -0.5959
  174SLPC  H15S19705   1.858   7.440   4.505  0.7110  1.5432  2.0958
  174SLPC  C21619706   2.006   7.422   4.360 -0.6082 -0.2609  0.6044
  174SLPC  H16R19707   2.021   7.317   4.390 -2.3413 -0.7773 -0.1894
  174SLPC  H16S19708   2.108   7.454   4.330 -0.5395 -1.6141 -0.7036
  174SLPC  C21719709   1.908   7.409   4.239  0.0187  0.2360 -0.0717
  174SLPC  H17R19710   1.882   7.512   4.205 -0.4865  0.4191  0.8273
  174SLPC  H17S19711   1.812   7.375   4.284 -0.4813  1.9916  0.2688
  174SLPC  C21819712   1.951   7.324   4.118  0.8288  0.0449 -0.1264
  174SLPC  H18R19713   2.028   7.374   4.055  0.9424  0.7610  0.5686
  174SLPC  H18S19714   1.875   7.298   4.042  0.7788  2.2298 -0.8886
  174SLPC  H18T19715   1.992   7.230   4.161  1.2243  0.6024  0.7504
  174SLPC   C3319716   2.984   7.732   5.441  0.5990  0.0140  0.6277
  174SLPC   H3X19717   3.000   7.623   5.433 -1.6060 -0.2842 -0.4648
  174SLPC   H3Y19718   3.082   7.778   5.463  0.6467  0.6854 -0.8822
  174SLPC   C3419719   2.920   7.778   5.309 -0.0177  0.6498 -0.2604
  174SLPC   H4X19720   2.894   7.886   5.316  1.6751  1.0398  0.8732
  174SLPC   H4Y19721   2.823   7.726   5.293 -0.7311  0.9800  2.5817
  174SLPC   C3519722   3.022   7.747   5.196 -0.4020 -0.1609 -0.1535
  174SLPC   H5X19723   3.060   7.643   5.206 -2.9731 -1.2766 -1.1294
  174SLPC   H5Y19724   3.101   7.824   5.208 -1.4220  0.7655  0.8853
  174SLPC   C3619725   2.984   7.763   5.051  0.4249  0.2232 -0.1061
  174SLPC   H6X19726   3.067   7.737   4.982  1.8493  1.8247  0.9193
  174SLPC   H6Y19727   2.964   7.872   5.037  0.8100  0.7095  2.6056
  174SLPC   C3719728   2.859   7.683   5.020  0.2830 -0.5178  0.3269
  174SLPC   H7X19729   2.781   7.705   5.095  1.5734  2.0776  1.0188
  174SLPC   H7Y19730   2.887   7.575   5.027  2.3192 -0.0681 -0.1779
  174SLPC   C3819731   2.803   7.715   4.880  0.1279  0.3362 -0.3165
  174SLPC   H8X19732   2.713   7.662   4.843  0.3397  1.3000 -2.3829
  174SLPC   H8Y19733   2.866   7.685   4.794  0.2206 -0.4165  0.0044
  174SLPC   C3919734   2.755   7.863   4.879 -0.1490  0.4795  0.1170
  174SLPC   H9X19735   2.839   7.934   4.895  0.5542 -0.5026  0.9597
  174SLPC   H9Y19736   2.687   7.879   4.966 -0.0334  1.1834  0.0812
  174SLPC  C31019737   2.680   7.907   4.755  0.6113  0.0736 -0.4444
  174SLPC  H10X19738   2.579   7.941   4.786  0.7473 -1.7113  2.2874
  174SLPC  H10Y19739   2.677   7.820   4.686  0.6781 -1.5186  1.4655
  174SLPC  C31119740   2.763   8.013   4.672  0.5638  0.2141 -0.1577
  174SLPC  H11X19741   2.871   7.989   4.668  1.0547  2.2765 -0.6775
  174SLPC  H11Y19742   2.755   8.111   4.725 -1.0168  0.9108 -1.5861
  174SLPC  C31219743   2.711   8.017   4.526  0.1062  0.2112  0.0123
  174SLPC  H12X19744   2.722   7.915   4.484 -1.4275 -0.2813  0.7302
  174SLPC  H12Y19745   2.780   8.092   4.480 -0.0938  1.0374  1.0306
  174SLPC  C31319746   2.566   8.057   4.511 -0.8011 -0.1835 -0.4006
  174SLPC  H13X19747   2.574   8.163   4.544  0.4908  0.1869 -1.8275
  174SLPC  H13Y19748   2.520   7.994   4.591  1.4485 -0.8057  0.4894
  174SLPC  C31419749   2.525   8.038   4.365  0.3668  0.0516 -0.0668
  174SLPC  H14X19750   2.557   7.938   4.328 -0.1936  0.3516 -1.4262
  174SLPC  H14Y19751   2.573   8.115   4.301 -1.4721  1.1720 -0.1502
  174SLPC  C31519752   2.378   8.066   4.348  0.0279  0.3787  0.2933
  174SLPC  H15X19753   2.354   8.161   4.401 -1.5336  0.7120 -0.9516
  174SLPC  H15Y19754   2.323   7.983   4.396  1.2328 -1.5085 -1.4349
  174SLPC  C31619755   2.326   8.087   4.203 -0.3997  0.1186  0.7294
  174SLPC  H16X19756   2.357   7.998   4.145  0.1812  0.3408  0.6956
  174SLPC  H16Y19757   2.374   8.174   4.152 -2.8927  1.5529  0.6793
  174SLPC  C31719758   2.177   8.115   4.188 -0.5014 -0.1206  0.1360
  174SLPC  H17X19759   2.147   8.217   4.220 -2.3330 -1.4124  2.9384
  174SLPC  H17Y19760   2.126   8.053   4.266  0.7446 -0.2822  0.8413
  174SLPC  C31819761   2.127   8.084   4.042 -0.4649  0.1735  0.5037
  174SLPC  H18X19762   2.144   7.976   4.023 -3.0030  0.1796 -2.6904
  174SLPC  H18Y19763   2.191   8.136   3.967 -1.3457  1.2389  0.4642
  174SLPC  H18Z19764   2.021   8.115   4.029  0.0252  1.8592  0.2483
  175SLPC     N19765   5.178   2.390   6.458 -0.0885  0.0904 -0.0056
  175SLPC   C1319766   5.163   2.350   6.600 -0.1182  0.5435 -0.2812
  175SLPC  H13A19767   5.224   2.262   6.615  3.0381  2.0128 -3.1884
  175SLPC  H13B19768   5.209   2.426   6.661 -1.0081  0.3758  0.6282
  175SLPC  H13C19769   5.059   2.346   6.632 -0.2667 -2.4107 -0.7931
  175SLPC   C1419770   5.320   2.385   6.412  0.2748 -0.2763 -0.9464
  175SLPC  H14A19771   5.377   2.459   6.466  0.5052  0.1496 -1.7582
  175SLPC  H14B19772   5.368   2.291   6.436  0.0014  0.2234  1.9562
  175SLPC  H14C19773   5.329   2.409   6.307 -1.9967 -0.2596 -1.1699
  175SLPC   C1519774   5.126   2.532   6.438  0.5732 -0.0992 -0.3247
  175SLPC  H15A19775   5.194   2.600   6.486  1.3426 -1.3495  0.4229
  175SLPC  H15B19776   5.116   2.553   6.333  2.0361 -1.5067 -0.7865
  175SLPC  H15C19777   5.033   2.544   6.493  0.3179 -1.7254 -0.3302
  175SLPC   C1219778   5.098   2.295   6.369 -0.3628 -0.4998 -0.2416
  175SLPC  H12A19779   5.105   2.340   6.272  0.5895  0.5064  0.2703
  175SLPC  H12B19780   5.000   2.287   6.414 -1.2014 -0.9575 -2.0579
  175SLPC   C1119781   5.147   2.146   6.337 -0.4573  0.4807 -0.2102
  175SLPC  H11A19782   5.217   2.161   6.252  1.1202  0.5078  1.0541
  175SLPC  H11B19783   5.059   2.086   6.304  0.9750 -1.6011 -0.4358
  175SLPC     P19784   5.362   2.028   6.448  0.3943  0.1382 -0.0585
  175SLPC   O1319785   5.447   2.136   6.494  0.3368  0.0917  0.5474
  175SLPC   O1419786   5.361   1.898   6.525 -0.4112  0.0797 -0.3947
  175SLPC   O1219787   5.212   2.079   6.442  0.1811 -0.2925  0.0759
  175SLPC   O1119788   5.401   2.003   6.300 -0.2298  0.8095 -0.1319
  175SLPC    C119789   5.355   1.888   6.224 -0.3584 -0.9584  0.3714
  175SLPC    HA19790   5.412   1.799   6.257 -0.4232 -0.8925  0.6612
  175SLPC    HB19791   5.246   1.870   6.238 -0.7165  0.6821 -0.0346
  175SLPC    C219792   5.376   1.918   6.076 -0.1328  0.7837 -0.3795
  175SLPC    HS19793   5.331   1.829   6.029  2.2269 -0.8049  0.1675
  175SLPC   O2119794   5.517   1.925   6.043 -0.0644  0.6933 -0.2934
  175SLPC   C2119795   5.564   1.828   5.962  0.0536 -0.4086 -0.5192
  175SLPC   O2219796   5.498   1.736   5.916  0.1412 -0.2800  0.3928
  175SLPC   C2219797   5.715   1.831   5.950 -0.8954 -0.0927 -0.2188
  175SLPC   H2R19798   5.747   1.891   6.037 -2.0649 -0.3886  0.4312
  175SLPC   H2S19799   5.749   1.725   5.954 -0.1395  0.1447 -0.0887
  175SLPC    C319800   5.308   2.050   6.021  0.2593  0.1318 -0.5674
  175SLPC    HX19801   5.369   2.123   6.078 -1.1723  2.0665 -1.3929
  175SLPC    HY19802   5.204   2.049   6.061  1.0107  1.6864  1.6250
  175SLPC   O3119803   5.325   2.057   5.880  0.5295  0.3143  0.2953
  175SLPC   C3119804   5.239   1.988   5.804  0.4282 -0.0970 -0.3030
  175SLPC   O3219805   5.162   1.903   5.849 -0.4717 -0.0118  0.0442
  175SLPC   C3219806   5.247   2.036   5.664 -0.4632 -1.4215 -0.5222
  175SLPC   H2X19807   5.347   2.084   5.649 -0.6990 -0.6555  0.2793
  175SLPC   H2Y19808   5.172   2.115   5.645 -0.4244 -1.2689 -0.0602
  175SLPC   C2319809   5.765   1.902   5.817 -0.3305  0.5251  0.2644
  175SLPC   H3R19810   5.863   1.952   5.827  0.6775 -1.2401 -0.2703
  175SLPC   H3S19811   5.703   1.987   5.783  2.3853  1.7537 -2.0165
  175SLPC   C2419812   5.779   1.801   5.710  0.5273 -0.8649 -0.3523
  175SLPC   H4R19813   5.695   1.729   5.708 -1.3098  1.1577  0.1401
  175SLPC   H4S19814   5.868   1.736   5.728  1.5405 -0.0519 -2.1220
  175SLPC   C2519815   5.788   1.872   5.577 -0.1702 -0.1588 -0.1648
  175SLPC   H5R19816   5.708   1.943   5.547  0.0930  0.3438  0.3006
  175SLPC   H5S19817   5.800   1.790   5.504 -0.8605 -0.0871 -0.3674
  175SLPC   C2619818   5.920   1.952   5.549  0.3688  0.8297  0.0169
  175SLPC   H6R19819   6.005   1.881   5.550 -0.3469 -0.0734 -1.1122
  175SLPC   H6S19820   5.942   2.023   5.631  3.5214  0.0792 -0.0528
  175SLPC   C2719821   5.932   2.025   5.416 -0.3517  0.2476  0.1551
  175SLPC   H7R19822   6.035   2.067   5.408 -0.4343  0.1953 -1.4864
  175SLPC   H7S19823   5.865   2.113   5.415 -0.1783  0.4398 -2.6328
  175SLPC   C2819824   5.898   1.946   5.284 -0.5556  0.2160 -0.1929
  175SLPC   H8R19825   5.888   2.029   5.211  3.4296  0.6571 -0.4485
  175SLPC   H8S19826   5.800   1.895   5.301  0.6598 -1.8193  1.0858
  175SLPC   C2919827   5.998   1.839   5.249 -0.5110 -0.5551 -0.3580
  175SLPC   H9R19828   6.033   1.782   5.337 -2.0611 -0.6921  0.2027
  175SLPC  C21019829   6.032   1.799   5.123 -0.1096 -0.4873  0.5365
  175SLPC  H10R19830   6.105   1.717   5.117  1.3019  0.8126 -1.5310
  175SLPC  C21119831   5.970   1.859   4.999 -0.0044  1.0052 -0.6144
  175SLPC  H11R19832   5.898   1.939   5.026  0.3131  1.0415  0.1622
  175SLPC  H11S19833   5.910   1.780   4.950 -2.6887  1.6748  1.3799
  175SLPC  C21219834   6.078   1.899   4.895 -0.1951  0.0836 -0.2430
  175SLPC  H12R19835   6.182   1.928   4.919 -0.2897 -0.0491  0.3575
  175SLPC  C21319836   6.057   1.899   4.766  1.1046 -0.4522 -0.6600
  175SLPC  H13R19837   6.144   1.930   4.707 -0.2838  0.5431 -2.2765
  175SLPC  C21419838   5.928   1.871   4.695 -0.3421  0.3368 -0.0742
  175SLPC  H14R19839   5.889   1.944   4.622 -0.9530 -1.5308 -1.6982
  175SLPC  H14S19840   5.845   1.856   4.768  1.1047 -0.5559  1.4638
  175SLPC  C21519841   5.937   1.736   4.623 -0.0166 -0.1835  0.1902
  175SLPC  H15R19842   5.958   1.655   4.696 -1.6275 -0.8306 -0.0322
  175SLPC  H15S19843   6.023   1.733   4.552 -0.2376 -2.4448 -0.0663
  175SLPC  C21619844   5.813   1.700   4.543  0.5776  0.1213 -0.6247
  175SLPC  H16R19845   5.738   1.777   4.573 -0.9277 -1.2003 -0.8651
  175SLPC  H16S19846   5.778   1.600   4.576 -0.4581  0.8855  0.6836
  175SLPC  C21719847   5.846   1.725   4.399  0.0962  0.1025  0.1062
  175SLPC  H17R19848   5.928   1.658   4.366  1.7548  2.9100 -1.8760
  175SLPC  H17S19849   5.884   1.827   4.380  1.5914 -0.7170 -1.5570
  175SLPC  C21819850   5.731   1.706   4.305 -0.8184 -0.0392  0.6150
  175SLPC  H18R19851   5.652   1.782   4.321 -2.0023 -1.5387  2.1810
  175SLPC  H18S19852   5.691   1.603   4.314 -1.8506  0.3430  0.4381
  175SLPC  H18T19853   5.767   1.720   4.201 -1.5538  0.4199  0.4199
  175SLPC   C3319854   5.231   1.932   5.558 -0.3905  0.1839 -0.0029
  175SLPC   H3X19855   5.213   1.982   5.460 -1.3249 -2.6391 -1.4184
  175SLPC   H3Y19856   5.141   1.869   5.578  1.6373 -2.4118  1.5701
  175SLPC   C3419857   5.355   1.844   5.530 -0.0745 -0.1747 -0.4562
  175SLPC   H4X19858   5.374   1.777   5.617  0.2888  2.0012  1.2400
  175SLPC   H4Y19859   5.450   1.899   5.514  0.2610 -1.2817 -2.6118
  175SLPC   C3519860   5.347   1.748   5.408 -0.6748 -0.7252  0.1166
  175SLPC   H5X19861   5.248   1.698   5.403 -0.7574 -0.9910  2.7234
  175SLPC   H5Y19862   5.427   1.674   5.428  0.5930  0.6645  0.3506
  175SLPC   C3619863   5.367   1.818   5.274  0.3936  0.0914 -0.3530
  175SLPC   H6X19864   5.286   1.893   5.258  0.5884  0.3328 -0.2045
  175SLPC   H6Y19865   5.357   1.738   5.197  1.9158  0.4560 -0.9726
  175SLPC   C3719866   5.507   1.880   5.250  0.3886  0.4404  0.2609
  175SLPC   H7X19867   5.571   1.791   5.230 -2.1610 -1.6135  0.7825
  175SLPC   H7Y19868   5.551   1.925   5.342  0.0973  1.2896 -0.0113
  175SLPC   C3819869   5.528   1.974   5.127  1.1882 -0.3099 -0.4868
  175SLPC   H8X19870   5.639   1.978   5.122  1.2123 -2.0861 -2.8034
  175SLPC   H8Y19871   5.488   2.076   5.145  1.4838 -0.0777 -1.1327
  175SLPC   C3919872   5.482   1.927   4.988  0.4381  0.0935  0.0849
  175SLPC   H9X19873   5.512   2.006   4.916 -1.9503  1.4479  0.4674
  175SLPC   H9Y19874   5.373   1.913   4.976  0.5675 -0.1108 -0.9723
  175SLPC  C31019875   5.559   1.808   4.946 -0.0858  0.4241 -0.6547
  175SLPC  H10X19876   5.521   1.715   4.993 -2.3008 -0.3465 -3.6674
  175SLPC  H10Y19877   5.660   1.806   4.991 -0.0353  1.7441 -0.6665
  175SLPC  C31119878   5.564   1.781   4.794 -0.9246  0.0309  0.0455
  175SLPC  H11X19879   5.635   1.698   4.776  1.2626  0.5443  4.7773
  175SLPC  H11Y19880   5.610   1.874   4.754  0.0826 -0.3689  0.2424
  175SLPC  C31219881   5.436   1.768   4.718 -0.0696 -0.3851 -0.5120
  175SLPC  H12X19882   5.373   1.860   4.712 -0.2853 -0.2994  1.9652
  175SLPC  H12Y19883   5.375   1.697   4.778 -1.4550  1.9960  1.1259
  175SLPC  C31319884   5.456   1.719   4.577 -0.0014 -0.7392  0.0687
  175SLPC  H13X19885   5.518   1.628   4.570 -0.6139 -1.0518 -2.5109
  175SLPC  H13Y19886   5.516   1.792   4.518  2.2377 -3.3682 -1.0788
  175SLPC  C31419887   5.319   1.719   4.502  0.3311 -0.4364  0.5166
  175SLPC  H14X19888   5.266   1.812   4.531 -0.4455 -0.1057 -1.7851
  175SLPC  H14Y19889   5.252   1.636   4.535 -1.3873  0.3955 -0.7128
  175SLPC  C31519890   5.336   1.721   4.350 -0.2464  0.9152 -0.2107
  175SLPC  H15X19891   5.381   1.623   4.320  1.2903  0.9985  1.6219
  175SLPC  H15Y19892   5.395   1.807   4.312  1.3304 -0.6721 -1.5396
  175SLPC  C31619893   5.200   1.739   4.274  0.0415  0.1872 -0.1018
  175SLPC  H16X19894   5.174   1.847   4.270 -0.8596 -0.0116  0.1660
  175SLPC  H16Y19895   5.123   1.678   4.325 -0.4480  0.4834 -0.4737
  175SLPC  C31719896   5.218   1.692   4.133  0.6833 -0.7273  0.5358
  175SLPC  H17X19897   5.239   1.583   4.125 -2.2256 -1.3540  0.3803
  175SLPC  H17Y19898   5.297   1.758   4.091  0.4849  1.0569  2.7303
  175SLPC  C31819899   5.097   1.718   4.042 -0.1220 -0.1116 -0.4591
  175SLPC  H18X19900   5.109   1.674   3.940  4.5768  0.3705 -0.3480
  175SLPC  H18Y19901   5.085   1.828   4.027 -1.6760  0.1536  2.1804
  175SLPC  H18Z19902   5.000   1.677   4.076 -0.3652  0.6440 -0.2190
  176SLPC     N19903   6.153   6.582   6.394 -0.2403 -0.4182 -0.1108
  176SLPC   C1319904   6.203   6.453   6.461  0.3798 -0.1495  0.3361
  176SLPC  H13A19905   6.273   6.395   6.403 -0.9326 -0.9686 -0.4850
  176SLPC  H13B19906   6.252   6.470   6.555 -1.6501 -1.1918  1.6618
  176SLPC  H13C19907   6.114   6.393   6.473 -0.9525  1.4377 -0.9419
  176SLPC   C1419908   6.059   6.636   6.500 -0.5885  0.1598 -0.1439
  176SLPC  H14A19909   6.102   6.649   6.599 -1.4561 -0.3043  0.3044
  176SLPC  H14B19910   6.037   6.736   6.466 -0.8092  0.8698  1.9185
  176SLPC  H14C19911   5.966   6.582   6.498  0.2955 -1.4693  0.5983
  176SLPC   C1519912   6.073   6.553   6.268 -0.3669  0.3599  0.1154
  176SLPC  H15A19913   6.048   6.648   6.223  1.4564  1.5292  1.3683
  176SLPC  H15B19914   6.130   6.487   6.204 -0.1516  1.2733 -0.6533
  176SLPC  H15C19915   5.993   6.494   6.309 -1.4400 -0.5556 -3.0820
  176SLPC   C1219916   6.263   6.686   6.361  0.3192 -0.0899 -0.3534
  176SLPC  H12A19917   6.325   6.645   6.283  0.7303  0.1076 -0.1294
  176SLPC  H12B19918   6.325   6.709   6.446 -0.8152  2.0807 -0.0203
  176SLPC   C1119919   6.209   6.824   6.294 -0.1667  0.2030 -0.4200
  176SLPC  H11A19920   6.159   6.787   6.202 -1.6378 -0.0822  0.4617
  176SLPC  H11B19921   6.297   6.883   6.260  0.1556 -0.4509 -0.7356
  176SLPC     P19922   6.134   7.022   6.449  0.3000 -0.1022 -0.1513
  176SLPC   O1319923   6.004   7.082   6.487 -0.5783 -0.1721  0.3078
  176SLPC   O1419924   6.228   6.992   6.560 -0.1425 -0.2536  0.4859
  176SLPC   O1219925   6.104   6.889   6.366 -0.6993  0.0417 -0.3520
  176SLPC   O1119926   6.203   7.112   6.338  0.5906 -0.2055 -0.3336
  176SLPC    C119927   6.137   7.206   6.255  0.3436  0.4558  0.1572
  176SLPC    HA19928   6.027   7.209   6.268  0.1714  0.6885 -1.1458
  176SLPC    HB19929   6.172   7.307   6.288 -0.0270  1.0476 -1.1734
  176SLPC    C219930   6.177   7.190   6.111  0.2157 -0.0312  0.1940
  176SLPC    HS19931   6.131   7.276   6.058 -0.3428  0.0378  0.7793
  176SLPC   O2119932   6.119   7.064   6.061 -0.4317  0.3327  0.4533
  176SLPC   C2119933   5.999   7.071   6.013  0.2614 -0.7084 -0.3821
  176SLPC   O2219934   5.929   7.170   6.016 -0.4643  0.6551  0.5031
  176SLPC   C2219935   5.944   6.931   5.982  0.3069 -0.7651  0.1796
  176SLPC   H2R19936   6.009   6.863   6.042  0.0211  0.8646  2.4734
  176SLPC   H2S19937   5.843   6.938   6.027  0.7809 -1.6403  1.4357
  176SLPC    C319938   6.330   7.196   6.092  0.0348 -0.4135  0.8563
  176SLPC    HX19939   6.356   7.091   6.118  1.2867 -0.4775 -0.5524
  176SLPC    HY19940   6.387   7.267   6.156  0.4137  1.8887 -1.8372
  176SLPC   O3119941   6.361   7.228   5.951 -0.0654  0.6658  0.3192
  176SLPC   C3119942   6.348   7.355   5.925  0.5093 -0.3753  0.6087
  176SLPC   O3219943   6.305   7.438   6.000 -0.6423  0.0686 -0.2302
  176SLPC   C3219944   6.371   7.383   5.777  0.3550  0.0677 -0.1423
  176SLPC   H2X19945   6.407   7.291   5.726 -1.1776 -0.4938 -0.2558
  176SLPC   H2Y19946   6.444   7.465   5.761  0.8201 -0.7020 -2.2927
  176SLPC   C2319947   5.933   6.900   5.829  0.2015 -0.3837  0.1966
  176SLPC   H3R19948   5.990   6.813   5.791 -1.8363 -1.4770 -0.5188
  176SLPC   H3S19949   5.968   6.990   5.774 -0.9213  0.5535  0.9781
  176SLPC   C2419950   5.785   6.883   5.778  1.0861 -0.2750  0.5651
  176SLPC   H4R19951   5.747   6.793   5.831 -0.1134  0.1727  0.5051
  176SLPC   H4S19952   5.780   6.867   5.668  0.8817  0.9999  0.3711
  176SLPC   C2519953   5.688   7.006   5.797 -0.9070  0.2582  0.1492
  176SLPC   H5R19954   5.718   7.073   5.713 -0.3055 -0.2865 -0.0786
  176SLPC   H5S19955   5.713   7.057   5.893 -0.2151 -1.0318  0.6742
  176SLPC   C2619956   5.543   6.970   5.801 -0.1593 -0.1122  0.2245
  176SLPC   H6R19957   5.491   7.065   5.826  0.2209  0.0495  0.4055
  176SLPC   H6S19958   5.528   6.902   5.887  1.4075  0.4297  0.9548
  176SLPC   C2719959   5.490   6.924   5.668  0.4834  0.2153  0.4498
  176SLPC   H7R19960   5.559   6.847   5.627  0.5013  0.6459 -0.3543
  176SLPC   H7S19961   5.491   7.009   5.597  1.0483 -0.0983  0.0789
  176SLPC   C2819962   5.348   6.880   5.677  0.1631 -0.1411  0.6612
  176SLPC   H8R19963   5.296   6.878   5.579 -1.6238  1.6302  1.4876
  176SLPC   H8S19964   5.294   6.949   5.746 -0.8683 -0.7205  0.4486
  176SLPC   C2919965   5.350   6.743   5.741 -0.0062  0.1247 -0.0158
  176SLPC   H9R19966   5.418   6.729   5.827  0.5854 -0.9366 -0.6271
  176SLPC  C21019967   5.277   6.635   5.702  0.0181  0.6436 -0.0783
  176SLPC  H10R19968   5.295   6.548   5.768 -1.1781  0.2441 -0.2544
  176SLPC  C21119969   5.180   6.616   5.590  0.4100  0.0880 -0.3461
  176SLPC  H11R19970   5.185   6.516   5.543 -1.6557  0.5063 -1.6253
  176SLPC  H11S19971   5.198   6.681   5.502  2.4535 -0.5234 -0.4226
  176SLPC  C21219972   5.033   6.653   5.618  0.6494 -0.6285 -0.3417
  176SLPC  H12R19973   5.018   6.710   5.711 -0.6037 -0.4105 -0.6514
  176SLPC  C21319974   4.924   6.621   5.543  0.0072 -0.0956  0.0114
  176SLPC  H13R19975   4.821   6.653   5.567  0.2545 -1.4136  3.3534
  176SLPC  C21419976   4.944   6.554   5.410  0.1703  0.5942  0.6657
  176SLPC  H14R19977   4.867   6.474   5.404  0.6819  0.0921  0.7110
  176SLPC  H14S19978   5.035   6.490   5.407 -1.5280 -1.9689 -0.4185
  176SLPC  C21519979   4.934   6.657   5.299  0.0119 -0.9585  0.4840
  176SLPC  H15R19980   5.009   6.737   5.319 -1.2670  0.2561  0.6039
  176SLPC  H15S19981   4.840   6.714   5.312 -0.4538 -1.7637  0.6748
  176SLPC  C21619982   4.961   6.610   5.158  0.5073 -0.2864 -0.1687
  176SLPC  H16R19983   4.967   6.698   5.089 -1.4333  1.5164  1.8064
  176SLPC  H16S19984   4.871   6.558   5.121  0.8248 -0.8223 -0.1954
  176SLPC  C21719985   5.082   6.522   5.130  0.2052  0.0878 -0.7438
  176SLPC  H17R19986   5.088   6.499   5.021  0.3239 -0.1589 -0.6848
  176SLPC  H17S19987   5.062   6.422   5.173 -0.5251  0.4987 -0.1158
  176SLPC  C21819988   5.214   6.576   5.169 -0.6697 -0.1368 -0.1744
  176SLPC  H18R19989   5.213   6.683   5.137 -0.5813  0.5899  2.1238
  176SLPC  H18S19990   5.300   6.518   5.129 -0.4479 -0.6002  0.9543
  176SLPC  H18T19991   5.223   6.568   5.279  1.4039  1.6128 -0.1550
  176SLPC   C3319992   6.235   7.420   5.716 -1.0147  1.0408 -0.4429
  176SLPC   H3X19993   6.193   7.508   5.770  0.8535  0.9290  1.2970
  176SLPC   H3Y19994   6.160   7.341   5.739 -1.0323  0.6628 -1.7069
  176SLPC   C3419995   6.241   7.448   5.566 -0.4271  0.0174 -0.3566
  176SLPC   H4X19996   6.321   7.526   5.562 -0.7311  0.3964  0.6155
  176SLPC   H4Y19997   6.144   7.493   5.535 -0.2880  1.5616  1.2929
  176SLPC   C3519998   6.284   7.328   5.472 -0.1424  0.5850 -0.3101
  176SLPC   H5X19999   6.222   7.243   5.507  1.3405 -0.3125  0.2300
  176SLPC   H5Y20000   6.389   7.299   5.493 -0.5416 -2.2273 -1.7237
  176SLPC   C3620001   6.261   7.352   5.323 -0.2367 -1.1040 -0.2745
  176SLPC   H6X20002   6.286   7.258   5.269  0.7834 -0.5668 -0.7509
  176SLPC   H6Y20003   6.329   7.432   5.288 -1.2725 -0.1650 -0.2096
  176SLPC   C3720004   6.116   7.379   5.281  0.0223  0.1884 -0.3136
  176SLPC   H7X20005   6.085   7.469   5.339  1.1529  1.4580 -1.6123
  176SLPC   H7Y20006   6.052   7.297   5.322 -0.4044  1.5792  2.0354
  176SLPC   C3820007   6.103   7.396   5.133 -0.5048 -0.3488 -0.1434
  176SLPC   H8X20008   6.176   7.469   5.092  0.7863 -2.3825 -1.6697
  176SLPC   H8Y20009   5.998   7.427   5.113  0.0891  2.0394  0.1759
  176SLPC   C3920010   6.124   7.269   5.051 -0.6984  0.5406  0.3517
  176SLPC   H9X20011   6.054   7.192   5.088  1.2098 -1.0083  0.9182
  176SLPC   H9Y20012   6.226   7.233   5.078 -0.3656  1.1345 -0.0943
  176SLPC  C31020013   6.110   7.289   4.901  0.2683  0.2669  0.4579
  176SLPC  H10X20014   6.131   7.194   4.846 -1.9415 -0.2450  0.4285
  176SLPC  H10Y20015   6.175   7.368   4.857  1.9789 -0.3645  1.7514
  176SLPC  C31120016   5.963   7.311   4.856  0.0538 -0.1711 -0.8689
  176SLPC  H11X20017   5.911   7.386   4.919  0.4393  0.7416 -1.6109
  176SLPC  H11Y20018   5.901   7.220   4.876 -1.3356  1.1385  1.1425
  176SLPC  C31220019   5.956   7.354   4.708  1.2477  0.2142 -0.0675
  176SLPC  H12X20020   6.035   7.429   4.686  0.8923  0.5900 -0.0811
  176SLPC  H12Y20021   5.860   7.411   4.702  1.9134  1.7182  2.2617
  176SLPC  C31320022   5.952   7.249   4.599  0.5695 -0.5808 -0.0931
  176SLPC  H13X20023   5.863   7.188   4.627  0.2779 -0.3040 -0.4072
  176SLPC  H13Y20024   6.031   7.172   4.613 -0.1714 -1.1735  0.9679
  176SLPC  C31420025   5.950   7.297   4.457  0.7422 -0.0578  0.4052
  176SLPC  H14X20026   6.041   7.359   4.441  0.7337 -0.3135 -0.7672
  176SLPC  H14Y20027   5.859   7.361   4.447 -0.2532 -0.5961  4.5133
  176SLPC  C31520028   5.940   7.184   4.357 -0.6281  0.8625 -0.8077
  176SLPC  H15X20029   5.923   7.228   4.256  0.5343  2.7024 -0.2533
  176SLPC  H15Y20030   5.844   7.134   4.383 -0.3371 -0.2161 -1.7760
  176SLPC  C31620031   6.056   7.093   4.344  0.2644 -0.1503 -0.3733
  176SLPC  H16X20032   6.035   6.996   4.293  0.7835 -1.3389  1.5726
  176SLPC  H16Y20033   6.080   7.051   4.444  0.8294  1.7194  0.3066
  176SLPC  C31720034   6.191   7.170   4.307  0.1895  0.4812 -0.2134
  176SLPC  H17X20035   6.216   7.238   4.390  1.8155 -0.5906  0.2175
  176SLPC  H17Y20036   6.179   7.218   4.207  0.7812  0.9371 -0.0729
  176SLPC  C31820037   6.311   7.071   4.295 -0.1837  0.1579 -0.3759
  176SLPC  H18X20038   6.284   6.992   4.221 -0.3023 -2.0667  1.9028
  176SLPC  H18Y20039   6.338   7.029   4.394  0.4749 -0.4948 -0.8232
  176SLPC  H18Z20040   6.408   7.115   4.263 -1.1017  1.1841 -1.9133
  177SLPC     N20041   0.000   0.739   6.680 -0.2626 -0.8279  0.4119
  177SLPC   C1320042  -0.039   0.651   6.793  0.5930 -0.2253  0.3670
  177SLPC  H13A20043  -0.004   0.552   6.768 -0.1276 -0.0340 -1.4805
  177SLPC  H13B20044   0.005   0.687   6.885  0.3506  2.0674 -0.3680
  177SLPC  H13C20045  -0.146   0.638   6.806  0.6582 -2.4716 -0.7690
  177SLPC   C1420046   0.142   0.720   6.656 -0.4431  0.0461  0.2904
  177SLPC  H14A20047   0.164   0.624   6.611 -0.2148 -1.0566  2.5799
  177SLPC  H14B20048   0.176   0.797   6.589 -2.9052 -0.5347 -1.7912
  177SLPC  H14C20049   0.193   0.727   6.751 -0.8604  0.5837  0.4770
  177SLPC   C1520050  -0.023   0.876   6.732 -0.2633  0.4115 -0.2013
  177SLPC  H15A20051   0.023   0.938   6.656  0.3726  1.6227  1.1247
  177SLPC  H15B20052  -0.126   0.909   6.736 -0.2206  0.8028 -1.6064
  177SLPC  H15C20053   0.009   0.896   6.833 -1.6135  0.9088  0.1480
  177SLPC   C1220054  -0.092   0.709   6.567  0.3905  0.4060 -0.6430
  177SLPC  H12A20055  -0.193   0.735   6.595  0.3038  0.7501 -1.2457
  177SLPC  H12B20056  -0.102   0.603   6.552  1.3059 -0.4843  3.7069
  177SLPC   C1120057  -0.084   0.778   6.428 -0.5538 -0.1386  1.1564
  177SLPC  H11A20058  -0.168   0.738   6.367 -0.3882  1.3761 -0.1146
  177SLPC  H11B20059   0.015   0.743   6.392 -1.8702 -1.4999 -1.4377
  177SLPC     P20060   0.003   1.025   6.398 -0.1385  0.4891  0.1331
  177SLPC   O1320061  -0.055   1.153   6.438  0.1725 -0.0769  0.0832
  177SLPC   O1420062   0.142   1.001   6.443  0.1022  0.3520 -0.0773
  177SLPC   O1220063  -0.098   0.917   6.442  0.5161 -0.2928 -0.1370
  177SLPC   O1120064   0.007   1.016   6.243 -0.3648  0.3213 -0.4633
  177SLPC    C120065  -0.114   0.979   6.177 -0.5753  0.4239  0.9430
  177SLPC    HA20066  -0.137   0.871   6.178  1.9380 -0.1890 -0.0342
  177SLPC    HB20067  -0.205   1.033   6.213 -0.5966 -0.1377  1.7536
  177SLPC    C220068  -0.111   1.018   6.018  0.1549  0.6870  0.3234
  177SLPC    HS20069  -0.186   0.954   5.967 -0.2683  0.5696  1.0742
  177SLPC   O2120070   0.021   1.001   5.965  0.0823  0.1324  0.3128
  177SLPC   C2120071   0.057   0.873   5.945  0.1481  0.1011  0.1697
  177SLPC   O2220072  -0.011   0.776   5.979  0.4207 -0.4556  0.2399
  177SLPC   C2220073   0.200   0.870   5.887 -0.2831 -0.9371 -0.8475
  177SLPC   H2R20074   0.214   0.965   5.832  0.1560  0.2597  1.2026
  177SLPC   H2S20075   0.269   0.868   5.974 -0.3290 -3.0482 -0.8133
  177SLPC    C320076  -0.158   1.173   6.001 -0.1119  0.4223 -1.0029
  177SLPC    HX20077  -0.064   1.214   6.043  0.6842 -2.7783  0.6266
  177SLPC    HY20078  -0.245   1.197   6.067 -0.5353 -1.3971 -0.8519
  177SLPC   O3120079  -0.187   1.205   5.863  0.6882  0.4347 -0.4547
  177SLPC   C3120080  -0.096   1.247   5.782 -0.5771 -0.4340  0.0454
  177SLPC   O3220081   0.017   1.277   5.812 -0.4121  0.1824 -0.0672
  177SLPC   C3220082  -0.162   1.252   5.647 -0.2044 -0.3402  0.3439
  177SLPC   H2X20083  -0.221   1.347   5.649 -0.7387 -0.6798  1.1899
  177SLPC   H2Y20084  -0.235   1.168   5.639 -2.6929  1.8270 -2.7034
  177SLPC   C2320085   0.242   0.761   5.798 -0.1849 -0.1121 -0.1553
  177SLPC   H3R20086   0.183   0.667   5.802 -1.2014  0.5220  0.0075
  177SLPC   H3S20087   0.348   0.736   5.819  0.2181  1.6662  0.0687
  177SLPC   C2420088   0.249   0.806   5.649  0.1827  0.4706  0.2899
  177SLPC   H4R20089   0.277   0.715   5.591 -0.0322  1.2372 -1.0548
  177SLPC   H4S20090   0.326   0.886   5.641  0.2978  0.4808  1.4220
  177SLPC   C2520091   0.113   0.843   5.589 -0.2320 -0.3891 -1.1581
  177SLPC   H5R20092   0.059   0.908   5.661  0.6675  1.2635 -1.9217
  177SLPC   H5S20093   0.052   0.749   5.586 -0.6459 -0.1383 -0.7160
  177SLPC   C2620094   0.118   0.908   5.457  0.1615  0.4275  0.0936
  177SLPC   H6R20095   0.156   1.011   5.470  0.3632  0.5662 -1.3952
  177SLPC   H6S20096   0.015   0.913   5.414  0.4537 -1.1641 -0.8713
  177SLPC   C2720097   0.208   0.840   5.353 -0.4851  0.3269 -0.1247
  177SLPC   H7R20098   0.224   0.730   5.360  0.8295  0.5383  0.5065
  177SLPC   H7S20099   0.303   0.889   5.380  1.0887 -2.5873  0.0858
  177SLPC   C2820100   0.156   0.859   5.211  0.6616  0.1518 -0.6318
  177SLPC   H8R20101   0.137   0.968   5.201 -0.3435 -0.0572 -1.0605
  177SLPC   H8S20102   0.058   0.812   5.189  0.4582 -0.0412  0.6189
  177SLPC   C2920103   0.264   0.827   5.107 -0.2323 -0.9784 -0.4062
  177SLPC   H9R20104   0.345   0.761   5.142 -0.4725 -0.3023  1.5502
  177SLPC  C21020105   0.261   0.872   4.985  0.0902 -0.2566 -0.0074
  177SLPC  H10R20106   0.331   0.829   4.911  0.6390 -0.1646  0.4460
  177SLPC  C21120107   0.152   0.962   4.933 -0.0079  1.1138 -0.1463
  177SLPC  H11R20108   0.205   1.052   4.893 -0.2607  1.3662  0.0859
  177SLPC  H11S20109   0.074   0.988   5.006  0.4822  0.5912  0.5764
  177SLPC  C21220110   0.070   0.888   4.829 -0.1574 -0.3955  0.1628
  177SLPC  H12R20111  -0.008   0.830   4.880 -1.5314 -1.2325 -2.6793
  177SLPC  C21320112   0.093   0.881   4.693  0.5733 -0.3570 -0.4184
  177SLPC  H13R20113   0.017   0.843   4.623 -0.2542  2.0782 -0.9526
  177SLPC  C21420114   0.217   0.941   4.637  0.1151 -0.5856  0.4744
  177SLPC  H14R20115   0.301   0.876   4.669  0.0097 -0.2181  1.5307
  177SLPC  H14S20116   0.229   1.045   4.674 -1.1357 -0.2845  0.1077
  177SLPC  C21520117   0.228   0.925   4.478 -0.0477 -0.2357  0.1246
  177SLPC  H15R20118   0.135   0.961   4.428  0.9264  1.1741 -0.7203
  177SLPC  H15S20119   0.250   0.817   4.457  0.8632  0.4159 -2.8358
  177SLPC  C21620120   0.343   1.010   4.418  0.2890 -0.3839  0.9141
  177SLPC  H16R20121   0.434   1.001   4.481  0.6092  1.1635  0.7080
  177SLPC  H16S20122   0.321   1.119   4.417 -0.8771 -0.5405 -2.7470
  177SLPC  C21720123   0.383   0.978   4.273  0.4141  0.2640 -0.1945
  177SLPC  H17R20124   0.289   0.977   4.213  0.3888  1.2456 -0.1856
  177SLPC  H17S20125   0.428   0.877   4.263 -2.7583 -1.1872 -1.2388
  177SLPC  C21820126   0.470   1.086   4.201  0.3566  0.0612 -0.5316
  177SLPC  H18R20127   0.570   1.105   4.246 -0.6038 -1.0499  2.2706
  177SLPC  H18S20128   0.417   1.184   4.212  0.5211  0.1878 -0.8380
  177SLPC  H18T20129   0.494   1.071   4.093  1.0211 -1.2355 -0.2139
  177SLPC   C3320130  -0.069   1.250   5.519 -0.3211 -0.2537 -0.7210
  177SLPC   H3X20131  -0.006   1.160   5.533  1.1713  0.9124  0.4810
  177SLPC   H3Y20132  -0.007   1.342   5.517 -1.8818  0.8956  0.7842
  177SLPC   C3420133  -0.152   1.227   5.394 -0.0454 -0.6523 -0.1758
  177SLPC   H4X20134  -0.230   1.306   5.399  0.6260 -0.0589  1.4392
  177SLPC   H4Y20135  -0.192   1.123   5.394 -1.7835 -0.0419 -1.5600
  177SLPC   C3520136  -0.079   1.235   5.260 -0.2006  0.0942 -0.2206
  177SLPC   H5X20137  -0.004   1.156   5.238  1.4552  1.3002  0.8121
  177SLPC   H5Y20138  -0.020   1.329   5.270 -0.4007  0.1593  0.3992
  177SLPC   C3620139  -0.174   1.236   5.138  0.5013  0.4132  0.0885
  177SLPC   H6X20140  -0.241   1.325   5.139  0.1758  0.1963 -0.9774
  177SLPC   H6Y20141  -0.228   1.139   5.129  0.8434  0.2066  0.2530
  177SLPC   C3720142  -0.093   1.257   5.004  0.2866 -0.3384  0.1276
  177SLPC   H7X20143  -0.014   1.182   4.984 -1.0619 -1.2549 -2.2110
  177SLPC   H7Y20144  -0.039   1.353   5.012 -0.3937  0.0961 -0.4189
  177SLPC   C3820145  -0.181   1.255   4.886 -0.7744 -0.4141  0.1449
  177SLPC   H8X20146  -0.240   1.349   4.886 -1.1513 -0.6316 -1.0952
  177SLPC   H8Y20147  -0.250   1.169   4.872 -1.7701  0.0322  1.9517
  177SLPC   C3920148  -0.085   1.261   4.760  0.0288 -0.5555  0.2651
  177SLPC   H9X20149  -0.010   1.180   4.769  0.2084 -0.3372  0.7686
  177SLPC   H9Y20150  -0.028   1.356   4.749 -3.0359  1.4739  0.7027
  177SLPC  C31020151  -0.163   1.242   4.628 -0.4656 -0.3516  0.9943
  177SLPC  H10X20152  -0.221   1.335   4.609 -1.9209 -1.4651 -0.3238
  177SLPC  H10Y20153  -0.227   1.152   4.630 -1.7733  0.5603  1.5159
  177SLPC  C31120154  -0.056   1.240   4.513  0.4657  0.1773  0.5426
  177SLPC  H11X20155   0.020   1.168   4.550  0.5272  0.0670  0.2051
  177SLPC  H11Y20156  -0.009   1.341   4.506  0.7357 -0.0817 -3.3475
  177SLPC  C31220157  -0.128   1.178   4.389  0.4591  0.0261 -0.3691
  177SLPC  H12X20158  -0.212   1.241   4.354 -0.1603 -0.4578  0.2338
  177SLPC  H12Y20159  -0.162   1.074   4.404 -1.6415  0.6456 -0.5546
  177SLPC  C31320160  -0.035   1.161   4.261  0.5226  0.7634 -0.5339
  177SLPC  H13X20161   0.060   1.109   4.286  1.4015  0.9069 -3.2712
  177SLPC  H13Y20162  -0.008   1.266   4.236 -0.8005  1.5515  1.1150
  177SLPC  C31420163  -0.107   1.094   4.143 -0.2312  0.1508 -0.6866
  177SLPC  H14X20164  -0.210   1.135   4.144  0.1680  1.1750 -0.3813
  177SLPC  H14Y20165  -0.103   0.983   4.154  0.1573  0.1988 -0.3152
  177SLPC  C31520166  -0.037   1.126   4.011 -0.0602 -0.8556 -0.3466
  177SLPC  H15X20167   0.058   1.068   4.013  0.6348  0.2482 -0.8035
  177SLPC  H15Y20168  -0.017   1.235   4.012  3.4251 -1.3464  1.7999
  177SLPC  C31620169  -0.125   1.091   3.884 -0.5385  0.8692 -0.3622
  177SLPC  H16X20170  -0.209   1.164   3.885 -0.1782  1.3708 -2.5449
  177SLPC  H16Y20171  -0.172   0.991   3.894  0.7361  0.3943  1.4099
  177SLPC  C31720172  -0.053   1.100   3.750 -0.2069  0.0319  0.6596
  177SLPC  H17X20173   0.028   1.025   3.736  2.8158  2.5273  3.4175
  177SLPC  H17Y20174   0.006   1.194   3.745  1.2159 -0.8658 -0.2961
  177SLPC  C31820175  -0.140   1.093   3.621  0.7041  0.5352  0.3655
  177SLPC  H18X20176  -0.177   0.989   3.609  2.0687  0.0768  0.0088
  177SLPC  H18Y20177  -0.071   1.111   3.536  0.8058 -0.3340  0.2535
  177SLPC  H18Z20178  -0.231   1.158   3.618 -0.0303 -0.4473  0.7448
  178SLPC     N20179   3.743   6.980   6.452  0.0751  0.1507  0.4820
  178SLPC   C1320180   3.874   7.044   6.481  0.1919  0.3823 -0.1125
  178SLPC  H13A20181   3.901   7.008   6.579 -0.5259 -2.1026 -0.7506
  178SLPC  H13B20182   3.944   7.024   6.401 -0.4353 -1.0745 -0.3334
  178SLPC  H13C20183   3.864   7.152   6.488 -1.0323  0.2676  0.1723
  178SLPC   C1420184   3.641   7.032   6.550 -0.2037  0.7722  0.0302
  178SLPC  H14A20185   3.635   7.139   6.535 -1.5171  0.4915 -1.8064
  178SLPC  H14B20186   3.550   6.978   6.528  0.1829 -0.4172  1.1949
  178SLPC  H14C20187   3.666   7.003   6.651 -2.5801 -3.2311 -0.3587
  178SLPC   C1520188   3.750   6.829   6.464 -0.1485  0.1451 -0.2471
  178SLPC  H15A20189   3.835   6.791   6.408  0.8497  1.4262  0.3392
  178SLPC  H15B20190   3.750   6.799   6.567 -3.0573 -1.1888 -0.5327
  178SLPC  H15C20191   3.659   6.782   6.431 -0.6037 -0.0125  1.1981
  178SLPC   C1220192   3.700   7.007   6.306  0.2540 -0.4004  0.1271
  178SLPC  H12A20193   3.772   6.963   6.239  0.5741  1.0341 -0.5039
  178SLPC  H12B20194   3.701   7.113   6.283 -0.8144 -0.4730 -0.3122
  178SLPC   C1120195   3.560   6.958   6.255 -0.0781  0.0438  0.1118
  178SLPC  H11A20196   3.564   6.971   6.144  0.1290  4.6485  0.4538
  178SLPC  H11B20197   3.483   7.029   6.292 -1.8802 -1.3842 -0.7204
  178SLPC     P20198   3.374   6.780   6.278 -0.3206 -0.4128  0.2382
  178SLPC   O1320199   3.318   6.725   6.404  0.6232  0.3582  0.1924
  178SLPC   O1420200   3.290   6.880   6.212 -0.3185  0.1864 -0.0623
  178SLPC   O1220201   3.525   6.824   6.288 -0.3853  0.4683  0.2128
  178SLPC   O1120202   3.394   6.657   6.183 -0.2218 -0.3248  0.5535
  178SLPC    C120203   3.489   6.544   6.206  0.2174 -0.4875 -0.0397
  178SLPC    HA20204   3.521   6.556   6.312  0.3719 -0.7622 -0.0542
  178SLPC    HB20205   3.430   6.450   6.201  1.0487 -1.0621  0.6818
  178SLPC    C220206   3.614   6.533   6.106 -0.7937 -0.1439 -0.5985
  178SLPC    HS20207   3.667   6.629   6.124 -0.7474 -0.4705  1.2429
  178SLPC   O2120208   3.569   6.525   5.976  0.1907 -0.0795  0.3267
  178SLPC   C2120209   3.628   6.601   5.886 -0.4503  0.2686  0.4770
  178SLPC   O2220210   3.700   6.698   5.908 -0.1236  0.1042 -0.1022
  178SLPC   C2220211   3.610   6.544   5.754  0.2580 -0.4983  0.1413
  178SLPC   H2R20212   3.639   6.437   5.749 -0.3131 -0.7459  1.4881
  178SLPC   H2S20213   3.502   6.551   5.729  0.4824  0.2563 -0.6452
  178SLPC    C320214   3.706   6.406   6.141 -0.2022 -0.1540 -0.1930
  178SLPC    HX20215   3.643   6.315   6.146 -1.0956  0.2206 -3.0163
  178SLPC    HY20216   3.742   6.425   6.244 -0.1825  2.6133 -0.6384
  178SLPC   O3120217   3.802   6.379   6.033 -0.0133  0.2592  0.3285
  178SLPC   C3120218   3.935   6.388   6.061 -0.2281 -0.7203 -1.1343
  178SLPC   O3220219   3.971   6.426   6.170  0.2655 -0.3708 -0.3571
  178SLPC   C3220220   4.020   6.362   5.939  1.0116  0.0619  0.4240
  178SLPC   H2X20221   4.024   6.252   5.926 -0.5345 -0.2470  2.2829
  178SLPC   H2Y20222   4.126   6.392   5.952  1.7004 -0.9832 -2.1792
  178SLPC   C2320223   3.675   6.622   5.636  0.2063  0.0395 -0.8556
  178SLPC   H3R20224   3.786   6.619   5.647  0.0369 -0.7145  1.0508
  178SLPC   H3S20225   3.648   6.730   5.627 -0.9038  0.0254  1.6120
  178SLPC   C2420226   3.637   6.563   5.497  0.5686 -0.0857  0.1603
  178SLPC   H4R20227   3.530   6.568   5.468  0.1823  0.7012  1.6271
  178SLPC   H4S20228   3.656   6.453   5.497  1.7827  0.0916 -1.4920
  178SLPC   C2520229   3.710   6.640   5.389 -0.7037 -0.3015  0.5109
  178SLPC   H5R20230   3.819   6.622   5.405 -0.5728 -0.0439 -0.0426
  178SLPC   H5S20231   3.681   6.747   5.396 -0.4233 -0.1557 -0.3565
  178SLPC   C2620232   3.675   6.598   5.245  0.1655  0.1724 -0.3946
  178SLPC   H6R20233   3.572   6.629   5.215  0.2645 -0.4260 -1.4051
  178SLPC   H6S20234   3.681   6.488   5.234 -3.1935 -0.0516 -1.2595
  178SLPC   C2720235   3.781   6.653   5.140  0.1713 -0.0238 -0.1003
  178SLPC   H7R20236   3.879   6.634   5.188 -0.9136 -2.3812  1.3419
  178SLPC   H7S20237   3.770   6.763   5.126  0.0747 -0.1865 -1.4711
  178SLPC   C2820238   3.777   6.587   5.005  0.8581 -0.7515 -0.0749
  178SLPC   H8R20239   3.761   6.480   5.030 -1.0437 -0.0466  2.0986
  178SLPC   H8S20240   3.878   6.602   4.963 -0.2270  0.8007 -2.3093
  178SLPC   C2920241   3.663   6.641   4.916  0.0282  0.1180 -0.4944
  178SLPC   H9R20242   3.570   6.667   4.968 -0.0340  2.1384 -1.5356
  178SLPC  C21020243   3.677   6.672   4.787 -0.1131 -0.0114  0.0320
  178SLPC  H10R20244   3.595   6.717   4.728  1.9674  1.6323 -1.7681
  178SLPC  C21120245   3.787   6.630   4.695 -0.4753 -0.2202  0.2158
  178SLPC  H11R20246   3.754   6.594   4.595 -0.8163  1.8403 -0.4626
  178SLPC  H11S20247   3.836   6.544   4.745 -0.8016  0.6416  2.1261
  178SLPC  C21220248   3.885   6.750   4.676  0.3591  0.2796  0.1837
  178SLPC  H12R20249   3.943   6.790   4.760  1.4696 -0.0967 -0.3703
  178SLPC  C21320250   3.893   6.809   4.550 -0.0233 -0.1345 -0.2323
  178SLPC  H13R20251   3.945   6.905   4.540 -0.0517  0.3177  2.9520
  178SLPC  C21420252   3.810   6.779   4.428  0.0160 -0.1695  0.1609
  178SLPC  H14R20253   3.701   6.787   4.447  0.1379  0.5082  0.6150
  178SLPC  H14S20254   3.824   6.671   4.407  0.4111 -0.0886  0.0091
  178SLPC  C21520255   3.847   6.871   4.309  0.1515  0.4014 -0.4759
  178SLPC  H15R20256   3.956   6.863   4.292  0.7225  3.5964  1.0395
  178SLPC  H15S20257   3.830   6.976   4.341  0.1582  0.3466 -0.2945
  178SLPC  C21620258   3.765   6.843   4.179 -0.1834 -0.3025  0.0477
  178SLPC  H16R20259   3.781   6.932   4.114  1.8875 -0.8339 -0.2389
  178SLPC  H16S20260   3.660   6.845   4.214  0.5353 -2.4396  2.6558
  178SLPC  C21720261   3.781   6.711   4.104  0.3877 -0.2973  0.2367
  178SLPC  H17R20262   3.711   6.714   4.018 -0.2047  2.8508  0.6858
  178SLPC  H17S20263   3.749   6.635   4.179 -1.9028  1.1811  0.8694
  178SLPC  C21820264   3.923   6.683   4.047 -0.0849  0.3895 -0.2338
  178SLPC  H18R20265   3.941   6.582   4.004  0.2294  0.9458 -1.4491
  178SLPC  H18S20266   4.001   6.694   4.125  0.4677 -0.2791 -0.6787
  178SLPC  H18T20267   3.946   6.763   3.973 -1.0152  0.9484  0.0676
  178SLPC   C3320268   3.964   6.426   5.810 -0.3984 -0.3908  1.0078
  178SLPC   H3X20269   3.986   6.535   5.810  1.3150 -0.6851 -0.8156
  178SLPC   H3Y20270   3.856   6.400   5.797 -0.2894 -0.5185  0.3192
  178SLPC   C3420271   4.028   6.368   5.687 -0.4199  0.5953  0.3526
  178SLPC   H4X20272   4.015   6.258   5.698 -0.0027  0.1287 -2.8349
  178SLPC   H4Y20273   4.138   6.386   5.696 -0.2525 -0.2679  0.1426
  178SLPC   C3520274   3.985   6.413   5.552 -0.4702  0.1517 -0.0731
  178SLPC   H5X20275   3.972   6.523   5.551  2.5118  0.6026  0.3267
  178SLPC   H5Y20276   3.889   6.363   5.526 -0.5792 -0.9205  2.1580
  178SLPC   C3620277   4.086   6.362   5.446  0.1214  0.0332  0.1093
  178SLPC   H6X20278   4.094   6.252   5.432 -0.5788  0.1419 -1.3861
  178SLPC   H6Y20279   4.189   6.401   5.457  0.4268 -0.3462 -1.1908
  178SLPC   C3720280   4.041   6.404   5.302 -0.1661  0.1614 -0.1821
  178SLPC   H7X20281   3.998   6.504   5.325 -2.8416 -1.1778  1.1262
  178SLPC   H7Y20282   3.954   6.344   5.267  1.4629 -0.2257 -3.9671
  178SLPC   C3820283   4.156   6.389   5.193  0.5475  0.8061  0.1232
  178SLPC   H8X20284   4.172   6.280   5.173 -2.7251  0.2726 -0.1505
  178SLPC   H8Y20285   4.256   6.423   5.225  1.2097  0.1036 -1.0991
  178SLPC   C3920286   4.120   6.457   5.058  0.6190  0.5219  0.2666
  178SLPC   H9X20287   4.090   6.560   5.089 -2.4303 -0.8907  2.5261
  178SLPC   H9Y20288   4.027   6.412   5.018  1.0382  0.6060 -0.8216
  178SLPC  C31020289   4.223   6.451   4.955 -0.5119 -0.8357 -0.1989
  178SLPC  H10X20290   4.251   6.348   4.923  0.4192 -0.7120  0.1754
  178SLPC  H10Y20291   4.308   6.500   5.008 -1.3538  0.3351  0.0892
  178SLPC  C31120292   4.188   6.540   4.839 -0.6188  0.1164  0.0478
  178SLPC  H11X20293   4.188   6.649   4.861 -0.6718  1.0102 -3.7034
  178SLPC  H11Y20294   4.083   6.514   4.811 -0.1898 -0.9331 -0.6677
  178SLPC  C31220295   4.284   6.531   4.725 -0.3608  0.1316  0.4330
  178SLPC  H12X20296   4.268   6.436   4.670 -0.6210  0.7414 -0.5624
  178SLPC  H12Y20297   4.389   6.530   4.761 -0.4852 -2.0436  0.8880
  178SLPC  C31320298   4.243   6.636   4.621 -0.5407  0.0888 -0.0135
  178SLPC  H13X20299   4.244   6.738   4.665  0.4544  0.0082  0.1626
  178SLPC  H13Y20300   4.143   6.609   4.581 -0.2100  0.0289 -0.8082
  178SLPC  C31420301   4.339   6.654   4.497 -0.0547 -0.5031  0.3658
  178SLPC  H14X20302   4.358   6.553   4.454 -0.9342 -1.5519  2.3449
  178SLPC  H14Y20303   4.436   6.700   4.521  0.9895 -1.5142 -1.6154
  178SLPC  C31520304   4.276   6.740   4.391  0.1413  0.6112 -0.3531
  178SLPC  H15X20305   4.233   6.828   4.445 -0.1411 -0.0044  0.4450
  178SLPC  H15Y20306   4.195   6.678   4.348 -0.1329  2.4453 -2.6954
  178SLPC  C31620307   4.361   6.769   4.269 -0.4530  0.3705  0.3723
  178SLPC  H16X20308   4.397   6.671   4.230  0.7137  0.2377  1.7272
  178SLPC  H16Y20309   4.454   6.819   4.303 -0.4843 -0.9692  2.5821
  178SLPC  C31720310   4.292   6.850   4.158 -0.1389  0.6439  0.3326
  178SLPC  H17X20311   4.268   6.946   4.208 -2.5068  1.3447 -1.9416
  178SLPC  H17Y20312   4.191   6.806   4.140  0.0019  0.7476 -0.7609
  178SLPC  C31820313   4.375   6.870   4.029 -0.2295  0.0201 -0.5607
  178SLPC  H18X20314   4.317   6.928   3.954  1.9521  0.3425 -2.0832
  178SLPC  H18Y20315   4.389   6.769   3.986  1.1000 -0.1761  0.2872
  178SLPC  H18Z20316   4.466   6.926   4.060 -1.4379  1.3465  0.7557
  179SLPC     N20317   2.985   0.410   1.998 -0.6580 -0.4779 -0.4626
  179SLPC   C1320318   2.930   0.451   1.862  0.0422 -0.1192 -0.3193
  179SLPC  H13A20319   2.975   0.534   1.810 -0.2575 -0.6745 -1.4976
  179SLPC  H13B20320   2.933   0.368   1.792  0.1922  0.9475 -1.6236
  179SLPC  H13C20321   2.824   0.472   1.869  0.3927  1.9182 -0.5991
  179SLPC   C1420322   2.911   0.295   2.047 -0.2833  0.2387  0.0660
  179SLPC  H14A20323   2.921   0.285   2.154  1.7037  1.7113  0.0616
  179SLPC  H14B20324   2.807   0.305   2.019 -0.1650  1.6734  0.0679
  179SLPC  H14C20325   2.963   0.209   2.006  1.5896  0.4409  1.8501
  179SLPC   C1520326   2.957   0.523   2.082 -0.7823 -0.5144 -0.8690
  179SLPC  H15A20327   2.996   0.495   2.179 -0.5929 -1.6702 -1.2621
  179SLPC  H15B20328   3.002   0.616   2.051 -0.1972 -0.4315  0.1835
  179SLPC  H15C20329   2.850   0.537   2.090 -0.4696  3.4106 -1.5434
  179SLPC   C1220330   3.131   0.375   1.979  0.1523  0.0976  0.2790
  179SLPC  H12A20331   3.178   0.340   2.070 -0.6000  0.6359  0.8973
  179SLPC  H12B20332   3.184   0.463   1.948  0.2395  0.0131  0.1891
  179SLPC   C1120333   3.173   0.272   1.865 -0.3769  0.0782  0.7406
  179SLPC  H11A20334   3.284   0.273   1.861 -0.3551  2.3958  0.5996
  179SLPC  H11B20335   3.141   0.314   1.767 -0.0336  0.6105  0.8500
  179SLPC     P20336   3.198   0.033   1.961  0.0559 -0.1843 -0.5274
  179SLPC   O1320337   3.111  -0.013   2.071 -0.1687  0.4410 -0.0517
  179SLPC   O1420338   3.242  -0.059   1.858 -0.1287 -0.5035  0.2605
  179SLPC   O1220339   3.112   0.143   1.887 -0.1780 -0.3772 -0.0475
  179SLPC   O1120340   3.328   0.108   2.017  0.4401  0.1752 -0.1598
  179SLPC    C120341   3.444   0.044   2.041 -0.0514 -0.4244 -0.1450
  179SLPC    HA20342   3.489   0.010   1.945  0.1602 -1.1895  0.2173
  179SLPC    HB20343   3.523   0.115   2.074 -1.1563  0.5635  0.4438
  179SLPC    C220344   3.443  -0.076   2.145 -0.0847 -0.1106 -0.2724
  179SLPC    HS20345   3.365  -0.135   2.092  0.0089 -0.2084 -0.3001
  179SLPC   O2120346   3.411  -0.028   2.272  0.2972  0.2432 -0.3777
  179SLPC   C2120347   3.351  -0.111   2.352 -0.6558 -0.3190 -0.1046
  179SLPC   O2220348   3.322  -0.224   2.319  0.5463 -0.0215 -0.0477
  179SLPC   C2220349   3.325  -0.043   2.488  0.6611 -0.2173  1.0002
  179SLPC   H2R20350   3.419  -0.000   2.528  1.2934 -2.0701  1.5528
  179SLPC   H2S20351   3.262   0.048   2.475 -1.1184 -1.5253  0.0168
  179SLPC    C320352   3.575  -0.158   2.149 -0.3177 -0.4918 -0.4273
  179SLPC    HX20353   3.605  -0.179   2.044 -0.2910  3.2498 -1.3304
  179SLPC    HY20354   3.570  -0.257   2.200  1.4904  0.9020  2.8008
  179SLPC   O3120355   3.681  -0.079   2.217  0.3515  0.4559 -0.1306
  179SLPC   C3120356   3.806  -0.132   2.225 -0.3865 -0.5626 -0.4539
  179SLPC   O3220357   3.849  -0.229   2.162 -0.5008 -0.4661 -0.1507
  179SLPC   C3220358   3.887  -0.043   2.318 -0.3761 -0.1954  0.3697
  179SLPC   H2X20359   3.912   0.045   2.255 -0.3350 -0.1027  0.5137
  179SLPC   H2Y20360   3.987  -0.090   2.332 -0.0102  0.2628 -0.5669
  179SLPC   C2320361   3.252  -0.137   2.589 -0.2442 -0.7527  1.2606
  179SLPC   H3R20362   3.307  -0.233   2.598 -0.5654 -0.9046  1.5836
  179SLPC   H3S20363   3.148  -0.158   2.557 -0.3829  2.2007 -0.6839
  179SLPC   C2420364   3.252  -0.076   2.728  0.5810 -0.2089  0.2373
  179SLPC   H4R20365   3.220  -0.161   2.793 -0.0851 -0.0132  0.1749
  179SLPC   H4S20366   3.164  -0.008   2.731 -0.6293 -1.7523  1.6297
  179SLPC   C2520367   3.367   0.006   2.773  0.5055  0.4872  0.7592
  179SLPC   H5R20368   3.364   0.098   2.711 -1.6415  1.3504  2.0301
  179SLPC   H5S20369   3.467  -0.038   2.752  0.8980  2.6741 -2.7731
  179SLPC   C2620370   3.345   0.055   2.915  0.3819 -1.0662 -0.5392
  179SLPC   H6R20371   3.419   0.134   2.939 -2.0533  0.8712  1.0396
  179SLPC   H6S20372   3.343  -0.024   2.993 -0.2048 -1.5991 -1.0792
  179SLPC   C2720373   3.209   0.119   2.942  0.1342  0.3717 -0.3015
  179SLPC   H7R20374   3.127   0.045   2.937  1.2241 -0.9069  0.0479
  179SLPC   H7S20375   3.194   0.189   2.856 -1.8249  2.8023  1.8613
  179SLPC   C2820376   3.207   0.217   3.068 -0.3483  0.6176 -0.1269
  179SLPC   H8R20377   3.116   0.277   3.050  0.3495  1.2882 -1.6380
  179SLPC   H8S20378   3.295   0.285   3.073 -0.0740  0.1694  1.7127
  179SLPC   C2920379   3.204   0.135   3.198  0.3635  0.6456  0.1976
  179SLPC   H9R20380   3.106   0.115   3.243  0.7458 -1.5559  0.1675
  179SLPC  C21020381   3.313   0.107   3.276  0.0642 -0.3421 -0.4320
  179SLPC  H10R20382   3.298   0.054   3.371  1.3471  0.2436  0.1243
  179SLPC  C21120383   3.456   0.146   3.247 -0.7643 -0.4109 -0.5817
  179SLPC  H11R20384   3.453   0.257   3.259  0.6143 -0.2792 -1.2403
  179SLPC  H11S20385   3.509   0.110   3.157 -0.1231 -2.6167  0.6086
  179SLPC  C21220386   3.543   0.100   3.361 -0.1078 -1.0722  0.9727
  179SLPC  H12R20387   3.575  -0.006   3.358 -1.9695 -1.6627 -2.3760
  179SLPC  C21320388   3.588   0.183   3.459 -0.0408  0.6672 -0.2873
  179SLPC  H13R20389   3.674   0.140   3.513 -1.1462 -1.4159 -0.1094
  179SLPC  C21420390   3.563   0.332   3.481 -0.3899  0.1806  0.4023
  179SLPC  H14R20391   3.462   0.355   3.440  0.4469 -0.2985 -2.0870
  179SLPC  H14S20392   3.638   0.386   3.420 -1.7877 -0.8921 -2.4321
  179SLPC  C21520393   3.572   0.371   3.624  0.3324  0.2318  0.3232
  179SLPC  H15R20394   3.497   0.319   3.687  0.1712  0.5488  0.3946
  179SLPC  H15S20395   3.570   0.482   3.628  4.5494  0.6378 -2.3051
  179SLPC  C21620396   3.716   0.336   3.675  0.0991 -0.1613 -0.3932
  179SLPC  H16R20397   3.793   0.345   3.595 -0.4009  1.1318 -0.7467
  179SLPC  H16S20398   3.707   0.237   3.726  1.9384 -0.6664 -0.9354
  179SLPC  C21720399   3.776   0.437   3.777  1.1137  0.5810  0.0473
  179SLPC  H17R20400   3.795   0.535   3.730 -1.0253  0.7645 -0.5649
  179SLPC  H17S20401   3.876   0.404   3.812  1.2055  2.5602  1.8458
  179SLPC  C21820402   3.691   0.433   3.908  0.6415  0.6754  0.5624
  179SLPC  H18R20403   3.691   0.528   3.964 -1.6898  2.1224 -1.6717
  179SLPC  H18S20404   3.728   0.345   3.965  1.1423  0.9174  0.6230
  179SLPC  H18T20405   3.588   0.402   3.882 -0.1669  2.5659  1.4121
  179SLPC   C3320406   3.823  -0.019   2.455 -0.4039  0.8574 -0.1049
  179SLPC   H3X20407   3.718   0.016   2.446 -0.5774  0.1254 -1.1929
  179SLPC   H3Y20408   3.878   0.069   2.495 -0.3797  1.2624 -0.9874
  179SLPC   C3420409   3.821  -0.131   2.566  0.4683 -0.2476 -0.2944
  179SLPC   H4X20410   3.926  -0.168   2.577  1.3780  2.3835  0.6635
  179SLPC   H4Y20411   3.762  -0.215   2.525  0.6544 -0.1119 -0.8607
  179SLPC   C3520412   3.758  -0.091   2.700 -0.1049 -0.2295  0.1536
  179SLPC   H5X20413   3.663  -0.042   2.668  0.9802  1.4937 -0.5786
  179SLPC   H5Y20414   3.737  -0.192   2.741 -0.7651  0.4098  1.4515
  179SLPC   C3620415   3.836  -0.004   2.795 -0.2294 -0.2833  0.3312
  179SLPC   H6X20416   3.850   0.097   2.753  1.8745 -0.4943  0.4392
  179SLPC   H6Y20417   3.936  -0.047   2.814 -0.2535 -0.6405 -0.3228
  179SLPC   C3720418   3.757   0.016   2.931  0.1977  1.1900 -0.3275
  179SLPC   H7X20419   3.742  -0.084   2.977  2.2663  0.5661 -0.8916
  179SLPC   H7Y20420   3.657   0.061   2.911  0.9254  2.6847 -0.7979
  179SLPC   C3820421   3.837   0.107   3.026  0.5779  0.4644  0.1393
  179SLPC   H8X20422   3.774   0.118   3.117  0.7206 -0.8177  0.4054
  179SLPC   H8Y20423   3.852   0.206   2.977 -0.2374  1.7601  2.3592
  179SLPC   C3920424   3.973   0.057   3.066  0.2467  0.0182 -0.1044
  179SLPC   H9X20425   3.993  -0.044   3.024 -1.0461 -0.1601 -0.3437
  179SLPC   H9Y20426   3.967   0.050   3.177 -0.5312 -2.8457 -0.2316
  179SLPC  C31020427   4.096   0.145   3.043  0.1169  0.9506 -0.4262
  179SLPC  H10X20428   4.092   0.237   3.105  1.3583 -0.2251  1.5217
  179SLPC  H10Y20429   4.087   0.173   2.936 -0.1290  0.3345 -0.5678
  179SLPC  C31120430   4.236   0.081   3.071 -0.3307 -0.4040  0.1484
  179SLPC  H11X20431   4.231  -0.026   3.043 -3.2209 -0.5784  0.9884
  179SLPC  H11Y20432   4.250   0.086   3.181 -1.1729 -0.6702  0.2736
  179SLPC  C31220433   4.352   0.153   3.006  0.2867  0.2993  0.2493
  179SLPC  H12X20434   4.367   0.256   3.044  0.0449 -0.2943  2.0388
  179SLPC  H12Y20435   4.331   0.168   2.898 -2.1782 -1.3698  0.4032
  179SLPC  C31320436   4.481   0.081   3.036 -0.6144 -0.8686 -0.0332
  179SLPC  H13X20437   4.490   0.037   3.137  2.0897 -2.0500 -0.6961
  179SLPC  H13Y20438   4.566   0.151   3.023 -0.3565 -0.9476  1.1222
  179SLPC  C31420439   4.511  -0.029   2.929 -0.3824  0.1058 -0.2725
  179SLPC  H14X20440   4.482  -0.001   2.825  1.3653 -0.8618 -1.0789
  179SLPC  H14Y20441   4.441  -0.107   2.965  1.3596 -0.5516  1.9274
  179SLPC  C31520442   4.656  -0.090   2.924  0.0063 -0.0452 -0.4635
  179SLPC  H15X20443   4.711  -0.069   3.018 -2.2449 -1.7625  1.3740
  179SLPC  H15Y20444   4.718  -0.039   2.848  0.2701  1.0126  0.4222
  179SLPC  C31620445   4.656  -0.242   2.918 -0.5325 -0.0753  0.1197
  179SLPC  H16X20446   4.570  -0.281   2.976  0.3892 -1.1719  0.7849
  179SLPC  H16Y20447   4.753  -0.288   2.947  0.8599  1.6577 -1.5380
  179SLPC  C31720448   4.631  -0.288   2.777 -0.4283 -0.6470 -0.2257
  179SLPC  H17X20449   4.726  -0.266   2.725 -1.2656  0.0486 -1.5017
  179SLPC  H17Y20450   4.554  -0.218   2.740 -0.3649 -0.7598 -0.5779
  179SLPC  C31820451   4.592  -0.432   2.758  0.7288 -0.5377  0.0502
  179SLPC  H18X20452   4.569  -0.455   2.651 -0.3852  2.3162 -0.4095
  179SLPC  H18Y20453   4.504  -0.448   2.823  0.9785  2.7136  1.3670
  179SLPC  H18Z20454   4.667  -0.504   2.798 -1.1905 -1.9044  1.3239
  180SLPC     N20455   0.948   2.899   1.733  0.4414 -0.7353 -0.1916
  180SLPC   C1320456   0.971   2.853   1.592  0.5035  0.3376 -0.4489
  180SLPC  H13A20457   0.890   2.876   1.524  0.0526  0.6358  0.1860
  180SLPC  H13B20458   1.052   2.910   1.549  0.5798  0.6457  0.0948
  180SLPC  H13C20459   0.990   2.747   1.592  1.3227  0.3906  2.7302
  180SLPC   C1420460   0.819   2.833   1.774 -0.3277 -0.1836 -0.1189
  180SLPC  H14A20461   0.821   2.725   1.761 -1.9161 -0.0873 -1.4193
  180SLPC  H14B20462   0.804   2.850   1.880 -1.0922  0.7607 -0.3777
  180SLPC  H14C20463   0.736   2.863   1.712 -0.1945  0.7895  0.1552
  180SLPC   C1520464   0.935   3.047   1.730 -0.3199  0.1978  0.0423
  180SLPC  H15A20465   0.912   3.078   1.830  1.2639  0.7412  0.2613
  180SLPC  H15B20466   1.027   3.094   1.699 -0.1753 -0.1686 -0.0960
  180SLPC  H15C20467   0.857   3.084   1.665  1.0465 -0.7598 -2.2705
  180SLPC   C1220468   1.070   2.863   1.822  0.1634 -0.3561  0.1060
  180SLPC  H12A20469   1.158   2.923   1.808  0.5365 -0.0986  2.9104
  180SLPC  H12B20470   1.110   2.765   1.801 -2.1625 -1.6220  1.1015
  180SLPC   C1120471   1.044   2.873   1.976  0.0228 -0.3060  0.5627
  180SLPC  H11A20472   1.132   2.832   2.029  0.5988  0.3568  0.1402
  180SLPC  H11B20473   0.952   2.817   2.004 -3.1687  4.2181  0.3799
  180SLPC     P20474   1.163   3.098   2.026  0.5141 -0.4447  0.2222
  180SLPC   O1320475   1.282   3.014   2.028 -0.6484  0.2752  0.3006
  180SLPC   O1420476   1.150   3.200   1.919  0.0495 -0.5708 -0.5307
  180SLPC   O1220477   1.029   3.012   2.019 -0.0466  0.4817  0.5567
  180SLPC   O1120478   1.142   3.173   2.168 -0.2579  0.8509 -0.4120
  180SLPC    C120479   1.047   3.275   2.179  0.2670 -0.4530 -0.6639
  180SLPC    HA20480   1.104   3.369   2.162 -1.0791  0.1149 -2.3404
  180SLPC    HB20481   0.970   3.265   2.099 -1.2477 -0.4083  0.7316
  180SLPC    C220482   0.984   3.282   2.322 -0.1745  0.1954 -0.0047
  180SLPC    HS20483   0.918   3.369   2.339 -0.6750 -0.1626 -0.0909
  180SLPC   O2120484   1.090   3.267   2.418 -0.2364  0.0629  0.8384
  180SLPC   C2120485   1.123   3.375   2.477 -0.4342  0.2883  0.1019
  180SLPC   O2220486   1.091   3.492   2.446 -0.1870  0.7712  0.3023
  180SLPC   C2220487   1.224   3.345   2.596  0.2381  1.2536  0.0840
  180SLPC   H2R20488   1.206   3.237   2.614  1.8506  1.1118  1.1287
  180SLPC   H2S20489   1.328   3.351   2.556 -0.4511 -0.8106 -2.2294
  180SLPC    C320490   0.873   3.172   2.330 -0.1436 -0.4138 -0.4364
  180SLPC    HX20491   0.917   3.076   2.297 -1.8820 -1.0031 -1.1609
  180SLPC    HY20492   0.787   3.184   2.260 -1.3143 -0.3924  0.9629
  180SLPC   O3120493   0.823   3.165   2.464  0.4449  0.6075 -0.7679
  180SLPC   C3120494   0.733   3.265   2.496 -0.3190  0.0066  0.0121
  180SLPC   O3220495   0.680   3.336   2.412  0.1467 -0.1140  0.6618
  180SLPC   C3220496   0.693   3.257   2.644  0.2971 -0.2822 -0.9311
  180SLPC   H2X20497   0.768   3.305   2.710 -0.5526 -1.2480  0.7824
  180SLPC   H2Y20498   0.693   3.149   2.671 -2.7657  0.0195  0.7075
  180SLPC   C2320499   1.215   3.438   2.715  0.3829  0.6531  0.1770
  180SLPC   H3R20500   1.109   3.448   2.748 -0.5757 -1.7527 -1.8669
  180SLPC   H3S20501   1.236   3.543   2.686 -0.0903  0.6323 -0.2561
  180SLPC   C2420502   1.300   3.395   2.833  0.3008 -0.5013  0.2524
  180SLPC   H4R20503   1.408   3.390   2.806  0.5526  0.6340  0.9389
  180SLPC   H4S20504   1.256   3.298   2.864  0.3551 -0.2625  1.1079
  180SLPC   C2520505   1.282   3.484   2.952  0.5268  0.2364 -0.6822
  180SLPC   H5R20506   1.181   3.456   2.989 -0.8018  0.7711 -3.6390
  180SLPC   H5S20507   1.273   3.592   2.926  1.9186  0.5837  0.1765
  180SLPC   C2620508   1.390   3.473   3.062 -0.0392  0.1909 -0.3843
  180SLPC   H6R20509   1.495   3.490   3.028 -0.4154  0.0207 -1.7085
  180SLPC   H6S20510   1.380   3.373   3.108  2.0231  0.1812  0.1572
  180SLPC   C2720511   1.381   3.588   3.166  0.0156 -0.1937  0.1398
  180SLPC   H7R20512   1.273   3.599   3.187  0.0627  1.9811 -0.5690
  180SLPC   H7S20513   1.416   3.678   3.111  0.1262 -0.0630  0.4212
  180SLPC   C2820514   1.459   3.569   3.299 -0.3863  0.7120  0.9764
  180SLPC   H8R20515   1.566   3.567   3.272 -0.2752 -2.0186  1.3835
  180SLPC   H8S20516   1.433   3.469   3.338  0.2731  0.3758  0.5528
  180SLPC   C2920517   1.443   3.683   3.393 -0.0479 -0.1221 -0.3045
  180SLPC   H9R20518   1.508   3.769   3.375 -0.8437  0.4977 -0.2736
  180SLPC  C21020519   1.359   3.697   3.500 -0.9141  0.3821  0.4764
  180SLPC  H10R20520   1.369   3.789   3.559  1.3277  1.7409 -1.8060
  180SLPC  C21120521   1.260   3.594   3.551  0.2039  0.3334 -0.2719
  180SLPC  H11R20522   1.281   3.494   3.508  1.0920 -0.6050  2.1635
  180SLPC  H11S20523   1.159   3.632   3.523  0.6770  1.0984 -0.9511
  180SLPC  C21220524   1.248   3.583   3.697  0.6288  0.1312 -0.5866
  180SLPC  H12R20525   1.298   3.654   3.764 -0.6538  0.1054  0.4502
  180SLPC  C21320526   1.169   3.485   3.749  0.0348  0.0150 -0.3932
  180SLPC  H13R20527   1.167   3.471   3.858  1.8750  1.8307 -0.0582
  180SLPC  C21420528   1.091   3.391   3.663  0.4615  0.1648 -0.0514
  180SLPC  H14R20529   1.127   3.287   3.679  0.5193  0.0947 -0.6050
  180SLPC  H14S20530   1.091   3.408   3.553 -0.6342  0.7492  0.0260
  180SLPC  C21520531   0.938   3.391   3.691  0.3766  0.7375 -0.7189
  180SLPC  H15R20532   0.921   3.356   3.795 -0.3586  0.1643 -1.0246
  180SLPC  H15S20533   0.898   3.308   3.629  0.4738 -1.7158  2.2403
  180SLPC  C21620534   0.869   3.529   3.668 -0.0635 -0.2263  1.4212
  180SLPC  H16R20535   0.770   3.509   3.623 -0.9081  3.6114  1.2033
  180SLPC  H16S20536   0.932   3.577   3.590  0.5346 -1.7104  0.9659
  180SLPC  C21720537   0.838   3.605   3.791 -0.2712 -1.1362 -0.3960
  180SLPC  H17R20538   0.931   3.634   3.846 -0.2897 -0.5545 -0.6666
  180SLPC  H17S20539   0.789   3.537   3.865  0.9940 -0.6620  0.9310
  180SLPC  C21820540   0.737   3.718   3.756 -1.0122 -0.2807  0.2611
  180SLPC  H18R20541   0.688   3.705   3.657 -1.2139 -2.8485  0.6402
  180SLPC  H18S20542   0.780   3.821   3.756  1.6386 -1.2789 -1.2793
  180SLPC  H18T20543   0.673   3.736   3.845  0.0430  5.3007  0.2584
  180SLPC   C3320544   0.557   3.324   2.673 -1.2182 -0.2566 -0.0712
  180SLPC   H3X20545   0.475   3.265   2.626 -2.1648 -0.6768  1.9874
  180SLPC   H3Y20546   0.564   3.429   2.636 -1.1143  0.6634  2.3876
  180SLPC   C3420547   0.529   3.349   2.830  0.5538  0.3451 -0.2231
  180SLPC   H4X20548   0.491   3.452   2.844  0.2535  0.6155 -2.5459
  180SLPC   H4Y20549   0.620   3.326   2.888  1.6408 -0.7998 -2.2658
  180SLPC   C3520550   0.428   3.245   2.879 -0.6769  0.1421 -0.2804
  180SLPC   H5X20551   0.472   3.144   2.891  1.5860  1.1454  0.5147
  180SLPC   H5Y20552   0.341   3.239   2.810 -0.2592  1.8537 -1.0221
  180SLPC   C3620553   0.366   3.289   3.006 -0.7079 -0.3287  0.9390
  180SLPC   H6X20554   0.284   3.221   3.038 -0.4334 -0.8972  0.4596
  180SLPC   H6Y20555   0.333   3.395   3.001 -2.8019 -0.9721 -0.5148
  180SLPC   C3720556   0.479   3.281   3.122  0.3201 -0.0437  0.3495
  180SLPC   H7X20557   0.547   3.369   3.120  0.0989  0.1334 -1.7872
  180SLPC   H7Y20558   0.536   3.187   3.110 -0.9453 -0.5750 -2.6114
  180SLPC   C3820559   0.406   3.284   3.267 -0.1563  0.0590 -0.3461
  180SLPC   H8X20560   0.341   3.195   3.275  0.1911 -0.0944  1.2381
  180SLPC   H8Y20561   0.337   3.372   3.270  0.9440  0.9488 -0.4646
  180SLPC   C3920562   0.503   3.284   3.380 -0.3849  0.0813  0.1166
  180SLPC   H9X20563   0.544   3.386   3.395 -1.6942  0.9111 -1.6227
  180SLPC   H9Y20564   0.583   3.212   3.353 -1.8001 -1.5826  0.1042
  180SLPC  C31020565   0.442   3.242   3.514  0.3544 -0.4548 -0.3565
  180SLPC  H10X20566   0.516   3.186   3.575  0.1390 -1.4664 -1.0187
  180SLPC  H10Y20567   0.360   3.174   3.485 -0.0656 -0.2049  0.2194
  180SLPC  C31120568   0.400   3.368   3.601  0.1687  0.0318 -0.6175
  180SLPC  H11X20569   0.482   3.443   3.607  0.4151 -0.1911 -1.1677
  180SLPC  H11Y20570   0.372   3.327   3.701  0.0238 -0.3571 -0.8146
  180SLPC  C31220571   0.270   3.431   3.549 -0.1550  0.2306  0.5214
  180SLPC  H12X20572   0.202   3.425   3.637  1.5357 -0.2082  1.8311
  180SLPC  H12Y20573   0.223   3.362   3.476 -0.0268 -0.7934  1.3846
  180SLPC  C31320574   0.276   3.574   3.501 -0.4049  0.1036 -0.0249
  180SLPC  H13X20575   0.335   3.577   3.407  0.5933  0.6658  0.6005
  180SLPC  H13Y20576   0.330   3.628   3.582 -1.3093  1.6859 -0.4457
  180SLPC  C31420577   0.138   3.628   3.462 -0.2780  0.1498 -0.2074
  180SLPC  H14X20578   0.084   3.616   3.558  0.1609 -0.6415 -0.0501
  180SLPC  H14Y20579   0.094   3.567   3.379 -0.1489 -0.2044 -0.0182
  180SLPC  C31520580   0.133   3.779   3.412 -0.5281  0.3758 -0.6353
  180SLPC  H15X20581   0.185   3.778   3.314 -0.5308  0.7281 -0.6414
  180SLPC  H15Y20582   0.193   3.832   3.489  1.9579 -1.1621 -1.3802
  180SLPC  C31620583  -0.002   3.831   3.377  0.7206  0.0943 -0.3999
  180SLPC  H16X20584  -0.002   3.935   3.338 -0.0732 -0.1792 -1.1678
  180SLPC  H16Y20585  -0.049   3.825   3.477 -0.8104 -2.3419 -1.1727
  180SLPC  C31720586  -0.100   3.747   3.295  0.5686 -0.0356 -0.1187
  180SLPC  H17X20587  -0.105   3.646   3.340 -0.5966  0.8646  1.8963
  180SLPC  H17Y20588  -0.057   3.742   3.192  0.2494 -0.2274 -0.2456
  180SLPC  C31820589  -0.240   3.801   3.299 -0.2974  0.7546  0.1409
  180SLPC  H18X20590  -0.299   3.752   3.219  0.6391  2.8570 -1.9298
  180SLPC  H18Y20591  -0.245   3.911   3.283 -1.4831  0.5542 -1.0189
  180SLPC  H18Z20592  -0.293   3.773   3.393 -2.5080  1.0033 -0.9658
  181SLPC     N20593   0.887   6.612   2.134  0.1546  0.0670 -0.0807
  181SLPC   C1320594   0.987   6.723   2.105 -0.4810  0.0251  0.1451
  181SLPC  H13A20595   1.027   6.758   2.199  0.6633 -0.5887 -0.0962
  181SLPC  H13B20596   1.074   6.689   2.051 -0.6318  1.5964 -1.1836
  181SLPC  H13C20597   0.948   6.811   2.056  0.3416  0.6237  0.5334
  181SLPC   C1420598   0.890   6.525   2.007  0.0824  0.0976 -0.2562
  181SLPC  H14A20599   0.988   6.481   1.993  0.7957  1.0317  1.4002
  181SLPC  H14B20600   0.817   6.445   2.016  0.4868 -0.3326 -0.7092
  181SLPC  H14C20601   0.871   6.594   1.927 -1.0071 -0.6305 -0.6567
  181SLPC   C1520602   0.750   6.672   2.151  0.1506 -0.9133 -0.3119
  181SLPC  H15A20603   0.677   6.594   2.165 -0.0715 -1.1902 -2.7065
  181SLPC  H15B20604   0.748   6.719   2.249 -0.5106  0.0125 -0.7606
  181SLPC  H15C20605   0.721   6.745   2.078  0.3500 -1.1126 -0.5908
  181SLPC   C1220606   0.933   6.531   2.251 -0.0793 -0.5705 -0.2407
  181SLPC  H12A20607   0.859   6.454   2.268  0.1490 -0.3986  1.7418
  181SLPC  H12B20608   0.934   6.594   2.339  2.4356  0.5902 -0.9955
  181SLPC   C1120609   1.069   6.458   2.234  0.3881 -0.2530  0.2561
  181SLPC  H11A20610   1.086   6.412   2.334 -0.5063  0.7754  0.9100
  181SLPC  H11B20611   1.150   6.531   2.212  1.3897 -1.9818 -2.2590
  181SLPC     P20612   1.147   6.228   2.123 -0.0408 -0.2303 -0.1936
  181SLPC   O1320613   1.103   6.158   2.003  0.1299  0.8788  0.5630
  181SLPC   O1420614   1.286   6.263   2.143 -1.1722 -0.3047  0.9603
  181SLPC   O1220615   1.062   6.360   2.132 -0.2986 -0.1892  0.1613
  181SLPC   O1120616   1.104   6.144   2.252 -0.1181  0.8050  0.5889
  181SLPC    C120617   0.963   6.124   2.261  0.0974 -0.4229 -0.0853
  181SLPC    HA20618   0.906   6.216   2.288 -0.5150 -0.7762 -0.1559
  181SLPC    HB20619   0.917   6.073   2.174 -0.3311 -0.9568  0.4525
  181SLPC    C220620   0.920   6.051   2.398  0.3948  0.4713  0.7691
  181SLPC    HS20621   0.810   6.036   2.401  0.5058 -0.7206 -0.2571
  181SLPC   O2120622   0.973   6.123   2.506 -0.5662  0.0172 -0.3931
  181SLPC   C2120623   0.875   6.177   2.585  0.3455 -0.4142 -0.0620
  181SLPC   O2220624   0.756   6.161   2.567 -0.3242  0.2737 -0.0474
  181SLPC   C2220625   0.933   6.240   2.701 -0.2457 -0.0238 -0.0704
  181SLPC   H2R20626   0.991   6.331   2.675 -0.4413  0.8734  2.3213
  181SLPC   H2S20627   0.850   6.285   2.761 -1.4135 -0.9520 -0.9442
  181SLPC    C320628   0.990   5.921   2.400 -0.2158 -0.0050 -0.3248
  181SLPC    HX20629   1.096   5.940   2.426 -0.0556 -3.1392  2.0069
  181SLPC    HY20630   0.981   5.880   2.297  0.3579  0.7272 -0.6724
  181SLPC   O3120631   0.927   5.836   2.495  0.5572  0.2821 -0.1915
  181SLPC   C3120632   1.006   5.788   2.598 -0.0742 -0.1193  0.3632
  181SLPC   O3220633   1.106   5.840   2.651 -0.9921 -0.2472  0.5205
  181SLPC   C3220634   0.951   5.652   2.638 -0.6703  0.1685 -0.3878
  181SLPC   H2X20635   0.840   5.654   2.640 -0.7031 -0.1513  2.8649
  181SLPC   H2Y20636   0.972   5.631   2.745  2.0157 -0.7420 -1.0063
  181SLPC   C2320637   1.020   6.148   2.791  0.1599 -0.0460  0.4139
  181SLPC   H3R20638   1.112   6.119   2.736 -1.1883 -1.0403 -1.4245
  181SLPC   H3S20639   0.967   6.052   2.811  2.2837 -1.3057  0.3764
  181SLPC   C2420640   1.053   6.206   2.926  0.0450  0.1360  0.1161
  181SLPC   H4R20641   0.986   6.293   2.942 -1.3957 -1.1705  1.4503
  181SLPC   H4S20642   1.157   6.245   2.926  0.0718  0.3232 -2.8468
  181SLPC   C2520643   1.023   6.112   3.043 -0.2800 -0.0791  0.5803
  181SLPC   H5R20644   1.102   6.035   3.030 -0.3702  0.0992 -1.2605
  181SLPC   H5S20645   0.927   6.062   3.017  0.3880 -0.0418 -2.1893
  181SLPC   C2620646   1.032   6.173   3.186  0.2035  0.8725  0.3522
  181SLPC   H6R20647   0.942   6.237   3.199  0.2908  1.5672 -2.0786
  181SLPC   H6S20648   1.128   6.226   3.204  1.1917 -1.2730  1.7940
  181SLPC   C2720649   1.020   6.057   3.292 -0.0284 -0.0466 -0.2929
  181SLPC   H7R20650   1.111   5.994   3.282  1.2416  1.5959  0.6816
  181SLPC   H7S20651   0.935   5.995   3.255 -0.6523  0.8534 -0.3858
  181SLPC   C2820652   0.979   6.100   3.430  0.2142  0.2892 -0.8748
  181SLPC   H8R20653   0.870   6.119   3.425  0.6049  2.5318 -2.2750
  181SLPC   H8S20654   1.018   6.198   3.467  0.9565 -0.4694  0.3992
  181SLPC   C2920655   0.998   5.983   3.531  0.2527 -0.2945 -0.6181
  181SLPC   H9R20656   0.966   5.887   3.488 -0.0849 -0.4046 -0.1302
  181SLPC  C21020657   1.078   5.986   3.641 -0.7187  0.1678  0.7594
  181SLPC  H10R20658   1.093   5.902   3.710  3.3598  0.0324 -0.0375
  181SLPC  C21120659   1.149   6.102   3.703 -0.2457 -0.7971 -0.5481
  181SLPC  H11R20660   1.081   6.160   3.769  1.4303  0.5774  0.0602
  181SLPC  H11S20661   1.174   6.176   3.624  0.2948 -0.2140  0.1621
  181SLPC  C21220662   1.276   6.068   3.773  0.1535 -0.3600 -0.4486
  181SLPC  H12R20663   1.364   6.092   3.712 -0.4911  2.6937 -0.3380
  181SLPC  C21320664   1.290   6.043   3.902  0.1300  0.4743 -0.8060
  181SLPC  H13R20665   1.392   6.030   3.941  0.1251  0.9304 -0.6343
  181SLPC  C21420666   1.171   6.020   3.996  0.5467  0.5063  0.4174
  181SLPC  H14R20667   1.079   6.002   3.938  1.1435  3.2375 -1.5643
  181SLPC  H14S20668   1.157   6.116   4.051  2.2991  1.9485 -1.4565
  181SLPC  C21520669   1.187   5.897   4.094  0.2239  0.1807 -0.2802
  181SLPC  H15R20670   1.279   5.927   4.149  0.4737  0.3854 -0.7985
  181SLPC  H15S20671   1.220   5.813   4.030  1.1598  0.0280  0.3700
  181SLPC  C21620672   1.063   5.872   4.183 -0.0358 -0.3498  0.8802
  181SLPC  H16R20673   0.968   5.863   4.127  0.0389 -2.5787  1.0327
  181SLPC  H16S20674   1.046   5.965   4.242 -0.1489 -0.4164  0.9556
  181SLPC  C21720675   1.090   5.766   4.278 -0.4231 -0.0629  0.6409
  181SLPC  H17R20676   1.182   5.805   4.328 -0.1463  1.6970 -1.1236
  181SLPC  H17S20677   1.106   5.667   4.230 -0.6709  0.9219 -1.5935
  181SLPC  C21820678   0.981   5.749   4.388  0.1658 -0.2384 -0.2639
  181SLPC  H18R20679   1.010   5.667   4.457  0.2122 -0.0736 -0.0862
  181SLPC  H18S20680   0.886   5.725   4.335  0.5309  1.4863 -1.8300
  181SLPC  H18T20681   0.980   5.843   4.448  0.1209 -0.1232 -0.4409
  181SLPC   C3320682   0.999   5.531   2.548  0.3898  0.2358 -0.8878
  181SLPC   H3X20683   1.094   5.495   2.593  1.4135  1.4045 -2.0334
  181SLPC   H3Y20684   1.022   5.558   2.442  3.2965  0.8522 -0.1792
  181SLPC   C3420685   0.886   5.424   2.535  0.0295 -0.1274 -0.0281
  181SLPC   H4X20686   0.920   5.352   2.458  0.7560  1.1777 -0.9824
  181SLPC   H4Y20687   0.793   5.472   2.498 -0.1811 -1.1010 -0.8042
  181SLPC   C3520688   0.849   5.361   2.663 -0.4419  0.0194 -0.4308
  181SLPC   H5X20689   0.826   5.442   2.736 -0.0687 -1.9020  1.9622
  181SLPC   H5Y20690   0.931   5.304   2.711 -0.1823  0.1755 -0.6864
  181SLPC   C3620691   0.730   5.259   2.663  0.6217 -0.2817 -0.3113
  181SLPC   H6X20692   0.749   5.156   2.626  2.1876  0.5675 -2.0175
  181SLPC   H6Y20693   0.662   5.318   2.598 -0.4390  0.6050  1.5158
  181SLPC   C3720694   0.660   5.255   2.801  0.4000 -0.8027  0.5081
  181SLPC   H7X20695   0.571   5.189   2.806  0.2571 -0.6793 -0.3097
  181SLPC   H7Y20696   0.621   5.358   2.818  0.7246 -0.4919 -0.5500
  181SLPC   C3820697   0.746   5.191   2.904  0.7396  0.0670 -0.6554
  181SLPC   H8X20698   0.839   5.249   2.922  0.6072 -0.2246  1.2192
  181SLPC   H8Y20699   0.766   5.085   2.875 -3.7065 -1.4626  0.9626
  181SLPC   C3920700   0.674   5.151   3.042 -0.3231  0.0708 -0.1764
  181SLPC   H9X20701   0.606   5.072   3.004  0.4958 -0.8548  0.2471
  181SLPC   H9Y20702   0.612   5.234   3.084 -1.4469  0.6076 -2.7156
  181SLPC  C31020703   0.763   5.086   3.154 -0.2257 -0.6536  0.4466
  181SLPC  H10X20704   0.853   5.150   3.161 -2.2012  2.5922 -1.3930
  181SLPC  H10Y20705   0.791   4.982   3.125 -1.2794 -1.3431  1.7629
  181SLPC  C31120706   0.690   5.073   3.290 -0.1394 -1.0689  0.6604
  181SLPC  H11X20707   0.604   5.003   3.282 -1.2261  0.3390 -0.3792
  181SLPC  H11Y20708   0.638   5.168   3.314  0.1488 -1.4319  3.0443
  181SLPC  C31220709   0.803   5.034   3.398  0.2023  0.4535  0.4389
  181SLPC  H12X20710   0.869   5.120   3.423 -0.6622  1.0502  0.6947
  181SLPC  H12Y20711   0.863   4.966   3.334  0.3055  2.8579 -2.2248
  181SLPC  C31320712   0.750   4.973   3.526 -0.2609 -0.2580  0.0833
  181SLPC  H13X20713   0.834   4.918   3.574  0.3530  2.7452  2.7666
  181SLPC  H13Y20714   0.675   4.904   3.482 -0.5280  0.2035 -0.1971
  181SLPC  C31420715   0.698   5.081   3.624 -0.2635  0.1824  0.0417
  181SLPC  H14X20716   0.620   5.141   3.572  1.6686  0.8577 -2.2932
  181SLPC  H14Y20717   0.784   5.148   3.643 -0.7122  0.1079  2.6336
  181SLPC  C31520718   0.646   5.033   3.757  0.2018 -0.1766  0.4314
  181SLPC  H15X20719   0.599   5.120   3.807 -0.6683 -1.7725  2.5629
  181SLPC  H15Y20720   0.723   4.981   3.819  0.3600 -1.7501 -0.9934
  181SLPC  C31620721   0.535   4.923   3.751 -0.5468  0.0507 -0.3006
  181SLPC  H16X20722   0.595   4.832   3.728  2.3387  2.1635 -1.6000
  181SLPC  H16Y20723   0.451   4.942   3.682 -0.3434  0.1420 -0.5228
  181SLPC  C31720724   0.477   4.903   3.891 -0.0400 -0.1324 -0.7152
  181SLPC  H17X20725   0.554   4.883   3.969 -0.9160  2.6945  1.0241
  181SLPC  H17Y20726   0.416   4.811   3.890 -0.2354 -0.0834  1.5093
  181SLPC  C31820727   0.387   5.020   3.930 -0.3232  0.3131  0.3260
  181SLPC  H18X20728   0.301   5.022   3.859 -0.8565  1.5198  0.9684
  181SLPC  H18Y20729   0.438   5.117   3.916  2.5693 -0.9751  1.2145
  181SLPC  H18Z20730   0.352   5.014   4.036  0.3371  2.3074  0.6945
  182SLPC     N20731   6.225   4.008   1.353  0.1659  0.6633 -0.0859
  182SLPC   C1320732   6.167   4.128   1.292  0.0713  0.7648 -0.5510
  182SLPC  H13A20733   6.212   4.217   1.333  2.3151 -1.3285  1.8692
  182SLPC  H13B20734   6.190   4.127   1.187  0.4546  2.6789 -0.5105
  182SLPC  H13C20735   6.061   4.137   1.307  0.3667  0.7694  2.1284
  182SLPC   C1420736   6.368   3.987   1.303  0.6893 -0.6097  0.0500
  182SLPC  H14A20737   6.430   4.075   1.303 -1.2121  0.7914 -0.0208
  182SLPC  H14B20738   6.418   3.910   1.359 -2.1069 -2.0422  0.7523
  182SLPC  H14C20739   6.365   3.956   1.199  1.7650 -0.0322 -0.1626
  182SLPC   C1520740   6.144   3.886   1.321 -0.8927 -1.1839 -0.3022
  182SLPC  H15A20741   6.116   3.890   1.216 -1.0194 -0.4034 -0.2442
  182SLPC  H15B20742   6.197   3.794   1.340 -0.5125 -0.7970  0.5423
  182SLPC  H15C20743   6.052   3.881   1.377 -3.2273  4.5569 -2.7963
  182SLPC   C1220744   6.226   4.019   1.501  0.1763  0.0724 -0.5316
  182SLPC  H12A20745   6.302   4.091   1.527 -0.9972  0.4510  2.2364
  182SLPC  H12B20746   6.263   3.939   1.563 -1.0509  0.4106  0.6993
  182SLPC   C1120747   6.095   4.062   1.572  0.0377  0.0714 -0.1291
  182SLPC  H11A20748   6.067   4.159   1.526  1.3597  0.0531 -1.0099
  182SLPC  H11B20749   6.111   4.087   1.679 -0.2294 -0.7947  0.1283
  182SLPC     P20750   6.008   3.832   1.656  0.0407  0.2350  0.7300
  182SLPC   O1320751   5.919   3.726   1.605 -0.3688 -0.2232  0.3801
  182SLPC   O1420752   6.150   3.797   1.665 -0.3296  0.0980  0.5257
  182SLPC   O1220753   5.989   3.960   1.563 -0.0296  0.0145 -0.5861
  182SLPC   O1120754   5.954   3.876   1.795 -0.1126 -0.0669 -0.1070
  182SLPC    C120755   5.828   3.937   1.832  0.1225 -0.7708  0.2674
  182SLPC    HA20756   5.756   3.939   1.747 -0.6382 -1.6194  0.8590
  182SLPC    HB20757   5.785   3.880   1.919 -0.9691  2.7356  2.2273
  182SLPC    C220758   5.831   4.084   1.887 -0.0274 -0.1730 -0.2218
  182SLPC    HS20759   5.867   4.141   1.798 -1.1994 -0.0340 -0.6378
  182SLPC   O2120760   5.923   4.090   1.999 -0.3973 -0.2819 -0.6363
  182SLPC   C2120761   5.966   4.204   2.041 -0.3575  0.2792  0.4168
  182SLPC   O2220762   5.937   4.313   1.986 -0.2026  0.2488  0.2094
  182SLPC   C2220763   6.055   4.185   2.162 -0.5955 -0.2791  0.8122
  182SLPC   H2R20764   6.006   4.118   2.236  0.3306 -0.6676  1.0916
  182SLPC   H2S20765   6.147   4.132   2.128 -1.3696 -0.2571 -1.4810
  182SLPC    C320766   5.690   4.132   1.933 -0.3085 -0.2290 -0.3974
  182SLPC    HX20767   5.633   4.130   1.837 -0.0447 -0.6933 -0.5483
  182SLPC    HY20768   5.696   4.241   1.956 -1.8292 -0.1500 -0.2562
  182SLPC   O3120769   5.634   4.056   2.043  0.1063  0.7908  0.5346
  182SLPC   C3120770   5.631   4.099   2.164 -0.0500  0.9367 -0.1126
  182SLPC   O3220771   5.681   4.201   2.206  0.9073  0.4410  0.4377
  182SLPC   C3220772   5.576   3.990   2.252 -0.0617 -0.6467  0.5997
  182SLPC   H2X20773   5.611   3.887   2.229 -3.8097 -2.0977  0.6972
  182SLPC   H2Y20774   5.468   3.984   2.225 -0.2115  1.0050  0.7630
  182SLPC   C2320775   6.081   4.317   2.228 -0.4348 -0.3866  0.8065
  182SLPC   H3R20776   5.994   4.377   2.265  0.9239  1.8522  0.5871
  182SLPC   H3S20777   6.137   4.374   2.151 -0.2512 -2.9862 -1.1050
  182SLPC   C2420778   6.180   4.302   2.351  0.7862  0.0256 -0.8047
  182SLPC   H4R20779   6.220   4.405   2.363  0.9189 -0.1300  0.2524
  182SLPC   H4S20780   6.248   4.217   2.330 -0.7572 -0.8524 -2.5281
  182SLPC   C2520781   6.121   4.265   2.488  0.2293 -0.1819  0.0005
  182SLPC   H5R20782   6.199   4.233   2.560  3.8865 -1.2229 -4.0069
  182SLPC   H5S20783   6.060   4.174   2.475  1.3578 -0.7771 -1.4201
  182SLPC   C2620784   6.017   4.363   2.544 -0.0441 -0.2549  0.4102
  182SLPC   H6R20785   5.939   4.375   2.466 -0.8033  1.8420  1.4139
  182SLPC   H6S20786   6.062   4.464   2.552 -0.9254  0.5559 -3.3154
  182SLPC   C2720787   5.967   4.315   2.676  0.3784  0.5336  0.2154
  182SLPC   H7R20788   6.059   4.321   2.739  2.0814  1.7673 -2.2106
  182SLPC   H7S20789   5.919   4.216   2.665  2.3650 -0.4436 -0.0951
  182SLPC   C2820790   5.864   4.420   2.716  0.1859 -0.5244  0.1058
  182SLPC   H8R20791   5.774   4.403   2.653  1.9735 -0.5580 -2.6054
  182SLPC   H8S20792   5.898   4.523   2.693 -1.4407 -0.2378 -1.2624
  182SLPC   C2920793   5.818   4.401   2.856  0.0279 -0.2140  0.1634
  182SLPC   H9R20794   5.735   4.328   2.857  0.2033 -0.4469 -1.2870
  182SLPC  C21020795   5.836   4.482   2.964  0.0743 -0.3996  0.3394
  182SLPC  H10R20796   5.777   4.455   3.053 -0.3779 -0.5983 -0.0200
  182SLPC  C21120797   5.925   4.603   2.974 -0.0269 -0.3686  0.1488
  182SLPC  H11R20798   5.947   4.641   2.872  1.4226 -0.2528  0.4810
  182SLPC  H11S20799   6.032   4.583   3.000 -0.0996 -0.9363  0.0305
  182SLPC  C21220800   5.867   4.716   3.057 -0.9595  0.3675  0.3066
  182SLPC  H12R20801   5.838   4.806   3.001 -0.2134  0.0745 -0.5770
  182SLPC  C21320802   5.869   4.719   3.193 -0.0550  1.1530  0.7881
  182SLPC  H13R20803   5.834   4.807   3.248 -2.9360  0.0369  0.8896
  182SLPC  C21420804   5.909   4.609   3.284  0.3141  0.6145 -0.2128
  182SLPC  H14R20805   5.996   4.634   3.349 -0.3312  0.1068  0.8713
  182SLPC  H14S20806   5.939   4.524   3.219 -1.8084 -0.2298 -0.1555
  182SLPC  C21520807   5.797   4.572   3.391  1.0558 -0.0822  0.3213
  182SLPC  H15R20808   5.796   4.466   3.423 -1.6498  0.2677  1.7288
  182SLPC  H15S20809   5.698   4.589   3.342  2.3885  2.3194 -1.7546
  182SLPC  C21620810   5.792   4.670   3.513  0.1350  0.4484 -0.1601
  182SLPC  H16R20811   5.793   4.773   3.472  0.5605 -0.0287 -1.4133
  182SLPC  H16S20812   5.883   4.657   3.575  2.0574 -2.4293 -3.1880
  182SLPC  C21720813   5.661   4.651   3.599 -0.5992 -1.0007  0.3819
  182SLPC  H17R20814   5.661   4.540   3.611 -0.0460 -1.2468 -1.4882
  182SLPC  H17S20815   5.561   4.675   3.558 -0.2542 -1.8400 -1.0653
  182SLPC  C21820816   5.680   4.714   3.737  0.4248 -1.0124  0.0023
  182SLPC  H18R20817   5.689   4.824   3.745 -2.1138 -0.5716 -2.0072
  182SLPC  H18S20818   5.758   4.653   3.788  0.2642 -1.9447 -0.8234
  182SLPC  H18T20819   5.590   4.682   3.793 -1.9117  0.8978 -2.3864
  182SLPC   C3320820   5.574   4.018   2.404 -0.0316  0.3492  0.3811
  182SLPC   H3X20821   5.476   3.970   2.427 -0.7136  1.9612  1.0252
  182SLPC   H3Y20822   5.566   4.124   2.437  0.6548  0.7345 -0.6572
  182SLPC   C3420823   5.692   3.944   2.468 -0.1635 -0.2281 -0.5236
  182SLPC   H4X20824   5.788   3.981   2.425  0.7872 -0.6100  1.1797
  182SLPC   H4Y20825   5.691   3.835   2.444 -0.4098 -0.6325  1.2015
  182SLPC   C3520826   5.704   3.953   2.628  0.8167 -0.2705  0.2198
  182SLPC   H5X20827   5.736   4.054   2.661  0.3449  0.0301 -0.2256
  182SLPC   H5Y20828   5.774   3.877   2.667  1.4247 -1.1122 -2.3068
  182SLPC   C3620829   5.578   3.909   2.702  0.1674  0.7664 -0.8774
  182SLPC   H6X20830   5.555   3.810   2.658  3.4175 -0.0845 -0.9115
  182SLPC   H6Y20831   5.490   3.970   2.675 -0.3332 -0.2872 -1.6963
  182SLPC   C3720832   5.598   3.899   2.857 -0.1049 -0.8907  0.5075
  182SLPC   H7X20833   5.602   4.005   2.889 -2.1534 -0.6735  0.2185
  182SLPC   H7Y20834   5.693   3.848   2.883 -1.3618 -2.9340  1.3387
  182SLPC   C3820835   5.484   3.830   2.935 -0.2615 -0.5553  0.2448
  182SLPC   H8X20836   5.466   3.725   2.905 -0.1468 -0.2668 -0.9152
  182SLPC   H8Y20837   5.389   3.886   2.920  1.3429  2.3620  0.0913
  182SLPC   C3920838   5.521   3.842   3.084  0.1509 -0.1335 -0.6224
  182SLPC   H9X20839   5.529   3.951   3.105 -1.0411 -0.1556  0.0819
  182SLPC   H9Y20840   5.606   3.777   3.114 -0.8960  0.0962  3.5697
  182SLPC  C31020841   5.407   3.789   3.186  0.4502  0.2701  0.3915
  182SLPC  H10X20842   5.383   3.681   3.184  2.0402 -0.2002  2.7790
  182SLPC  H10Y20843   5.315   3.847   3.162 -0.9230 -1.2676  1.6814
  182SLPC  C31120844   5.458   3.806   3.327 -0.0703  0.2047  0.3545
  182SLPC  H11X20845   5.489   3.911   3.342  2.2656 -0.7157  2.8121
  182SLPC  H11Y20846   5.548   3.741   3.327  1.8746  2.7253  1.2120
  182SLPC  C31220847   5.348   3.768   3.434 -0.5427  0.0732  0.2573
  182SLPC  H12X20848   5.333   3.658   3.422  2.5285 -0.4817  0.4781
  182SLPC  H12Y20849   5.252   3.823   3.426 -1.8129 -2.1050 -0.3290
  182SLPC  C31320850   5.417   3.788   3.578 -0.0747  0.4929  0.2854
  182SLPC  H13X20851   5.426   3.898   3.577  0.3804  0.4596 -1.0356
  182SLPC  H13Y20852   5.518   3.743   3.580 -0.0304  0.3175 -2.3462
  182SLPC  C31420853   5.335   3.719   3.693  0.1669 -0.6733  0.6707
  182SLPC  H14X20854   5.329   3.611   3.667  0.1954  0.1466 -3.2499
  182SLPC  H14Y20855   5.231   3.758   3.690 -0.3491 -2.0672 -0.5527
  182SLPC  C31520856   5.392   3.760   3.831  0.4958 -0.1834 -0.9349
  182SLPC  H15X20857   5.333   3.716   3.914  0.9905  2.6173  1.0481
  182SLPC  H15Y20858   5.386   3.870   3.847 -2.0405 -0.4827  0.7258
  182SLPC  C31620859   5.536   3.720   3.873  0.5164  0.6124  0.4817
  182SLPC  H16X20860   5.559   3.743   3.979 -0.4187  3.0440  0.2256
  182SLPC  H16Y20861   5.608   3.773   3.808  0.5615 -0.6704 -0.5527
  182SLPC  C31720862   5.562   3.570   3.851 -0.3582 -0.5207  0.0957
  182SLPC  H17X20863   5.545   3.563   3.741  2.4726  0.1242 -0.4628
  182SLPC  H17Y20864   5.488   3.508   3.907  0.3167 -1.8397 -0.4289
  182SLPC  C31820865   5.707   3.518   3.875 -0.0697 -0.5113  0.1487
  182SLPC  H18X20866   5.771   3.571   3.802 -2.0451  2.2045  0.2455
  182SLPC  H18Y20867   5.709   3.410   3.846  1.7639 -0.9276  1.6045
  182SLPC  H18Z20868   5.729   3.544   3.981 -2.8897  0.9749  0.4693
  183SLPC     N20869   0.294   5.933   1.853  0.3011  0.4047 -0.2460
  183SLPC   C1320870   0.257   6.080   1.840 -0.7680 -0.2978  0.0750
  183SLPC  H13A20871   0.190   6.092   1.756  0.1851 -0.3732 -0.7133
  183SLPC  H13B20872   0.214   6.108   1.934  0.9476 -0.7703  1.0377
  183SLPC  H13C20873   0.351   6.129   1.823 -0.7632 -0.1569  0.5040
  183SLPC   C1420874   0.375   5.908   1.733 -0.0247 -0.3395 -0.7121
  183SLPC  H14A20875   0.386   5.801   1.728  1.1159 -0.2540 -0.3401
  183SLPC  H14B20876   0.316   5.932   1.647 -1.8632 -1.4358  0.1751
  183SLPC  H14C20877   0.475   5.948   1.738 -0.5015  0.7633  1.5720
  183SLPC   C1520878   0.171   5.845   1.868 -0.6204 -0.1233  0.4035
  183SLPC  H15A20879   0.124   5.867   1.962 -1.4872 -1.9765  0.4241
  183SLPC  H15B20880   0.101   5.875   1.791  0.9273  1.3858 -0.5098
  183SLPC  H15C20881   0.197   5.743   1.844  4.7211  0.7950  0.8753
  183SLPC   C1220882   0.389   5.918   1.974  0.2914  0.7041 -0.2170
  183SLPC  H12A20883   0.464   5.996   1.972  0.1094  0.9099  0.4978
  183SLPC  H12B20884   0.449   5.829   1.970  1.2550  1.3228  0.1748
  183SLPC   C1120885   0.318   5.927   2.109 -1.1457  0.0813  0.2353
  183SLPC  H11A20886   0.240   6.006   2.118 -0.1124  1.0596  0.9023
  183SLPC  H11B20887   0.396   5.959   2.182 -0.2626 -0.4310 -0.4574
  183SLPC     P20888   0.341   5.683   2.202  0.3261  0.2613  0.3704
  183SLPC   O1320889   0.255   5.561   2.207 -1.0894 -0.3299 -0.2468
  183SLPC   O1420890   0.460   5.665   2.113 -0.0596  0.0582  0.0851
  183SLPC   O1220891   0.259   5.800   2.134  0.3399 -0.2149 -0.4853
  183SLPC   O1120892   0.377   5.740   2.341 -0.2690  0.3461 -0.3539
  183SLPC    C120893   0.513   5.762   2.363 -0.3198 -0.5011  0.3753
  183SLPC    HA20894   0.584   5.686   2.323  1.6459  2.2997 -1.9274
  183SLPC    HB20895   0.546   5.860   2.322  2.5587 -1.2060  0.7808
  183SLPC    C220896   0.549   5.772   2.513  0.0645  0.0012 -0.5787
  183SLPC    HS20897   0.657   5.748   2.525  0.0289  0.5643  1.0887
  183SLPC   O2120898   0.462   5.688   2.592 -0.3405  0.2849  0.3254
  183SLPC   C2120899   0.457   5.559   2.561 -0.3154 -0.2911  0.3016
  183SLPC   O2220900   0.528   5.502   2.480 -0.2896  0.3705  0.2446
  183SLPC   C2220901   0.336   5.495   2.646 -0.2891 -0.4258  0.5921
  183SLPC   H2R20902   0.237   5.506   2.597  1.0191  0.9533 -1.9662
  183SLPC   H2S20903   0.350   5.386   2.658 -1.9271 -0.8731 -1.0539
  183SLPC    C320904   0.537   5.912   2.567 -0.0015  0.4505 -0.7986
  183SLPC    HX20905   0.431   5.933   2.543 -1.1549 -1.4219  2.1303
  183SLPC    HY20906   0.603   5.975   2.503  1.6926 -0.7323 -0.3118
  183SLPC   O3120907   0.539   5.941   2.708 -0.1249 -0.4855  0.1108
  183SLPC   C3120908   0.654   5.922   2.767  0.5889  0.4011 -0.0990
  183SLPC   O3220909   0.753   5.871   2.722 -0.3716  0.4539 -0.0108
  183SLPC   C3220910   0.654   5.985   2.907 -0.1344 -0.1362 -0.3055
  183SLPC   H2X20911   0.580   6.068   2.911  0.5407  0.4288  1.3974
  183SLPC   H2Y20912   0.753   6.035   2.912  0.2663 -0.8753 -0.6905
  183SLPC   C2320913   0.319   5.562   2.787  0.2484 -0.6546 -0.4340
  183SLPC   H3R20914   0.217   5.538   2.824  0.5590 -2.5055 -0.6694
  183SLPC   H3S20915   0.330   5.672   2.783  1.8920 -0.8186 -1.2806
  183SLPC   C2420916   0.412   5.509   2.888 -0.2556 -0.1636 -0.1482
  183SLPC   H4R20917   0.519   5.537   2.876  0.0230 -1.6499 -1.4476
  183SLPC   H4S20918   0.410   5.398   2.887 -1.4102 -0.1646  0.8785
  183SLPC   C2520919   0.358   5.552   3.029 -0.3643  0.1217  0.1676
  183SLPC   H5R20920   0.251   5.524   3.036  0.2369 -2.8141 -1.0300
  183SLPC   H5S20921   0.380   5.660   3.046 -0.8249 -0.0422  1.9359
  183SLPC   C2620922   0.435   5.481   3.136 -0.3868 -0.3322 -0.2362
  183SLPC   H6R20923   0.540   5.511   3.114 -0.2602  0.4132  1.2561
  183SLPC   H6S20924   0.444   5.371   3.122  0.7177 -0.3944  0.7475
  183SLPC   C2720925   0.402   5.516   3.281  0.0216 -0.2619  0.2428
  183SLPC   H7R20926   0.395   5.625   3.301 -0.4801 -0.5277  1.6058
  183SLPC   H7S20927   0.483   5.476   3.345  0.1076  0.5071  0.6196
  183SLPC   C2820928   0.265   5.466   3.337 -0.4588  0.4563  0.0621
  183SLPC   H8R20929   0.254   5.356   3.346 -2.0919  0.7253  1.9565
  183SLPC   H8S20930   0.185   5.494   3.264 -0.3116  3.1950  0.8658
  183SLPC   C2920931   0.244   5.535   3.471 -0.9378 -0.7695 -0.5207
  183SLPC   H9R20932   0.211   5.640   3.469  0.8918 -0.0208  2.1088
  183SLPC  C21020933   0.263   5.486   3.595  0.2544  0.1003 -0.3229
  183SLPC  H10R20934   0.247   5.534   3.693  0.6189 -0.3075 -0.0598
  183SLPC  C21120935   0.303   5.339   3.621 -0.8060 -0.4467  0.5009
  183SLPC  H11R20936   0.366   5.332   3.712 -1.1190 -0.4967  0.7179
  183SLPC  H11S20937   0.380   5.306   3.548  1.0951  2.2718  1.1374
  183SLPC  C21220938   0.188   5.238   3.629  0.3617  0.1141 -0.1182
  183SLPC  H12R20939   0.157   5.184   3.538 -1.0539  0.0376  0.3845
  183SLPC  C21320940   0.106   5.229   3.735 -0.2500 -0.2712 -0.0505
  183SLPC  H13R20941   0.031   5.149   3.730  0.0423 -0.5635  0.1573
  183SLPC  C21420942   0.120   5.313   3.865  0.0189  0.6006  0.7822
  183SLPC  H14R20943   0.203   5.387   3.873 -0.9330  1.7118  0.5479
  183SLPC  H14S20944   0.138   5.249   3.954  0.1841  0.4788  0.6630
  183SLPC  C21520945  -0.002   5.393   3.902  0.2564 -0.0940  0.5679
  183SLPC  H15R20946  -0.017   5.401   4.011 -0.3756 -2.0841  0.6753
  183SLPC  H15S20947  -0.097   5.346   3.868 -0.7958  1.9155  0.5937
  183SLPC  C21620948  -0.006   5.537   3.842 -0.3695 -0.3673 -0.0796
  183SLPC  H16R20949  -0.007   5.519   3.733 -0.0622  0.8898 -0.3112
  183SLPC  H16S20950   0.086   5.593   3.869  0.6744 -1.2238 -1.6915
  183SLPC  C21720951  -0.138   5.608   3.884  0.0819  0.1103  0.4800
  183SLPC  H17R20952  -0.213   5.526   3.892 -0.2556  0.3303 -0.3412
  183SLPC  H17S20953  -0.162   5.675   3.799  0.2178 -2.5267 -1.7925
  183SLPC  C21820954  -0.137   5.687   4.014 -0.2565 -0.1454  0.8503
  183SLPC  H18R20955  -0.238   5.725   4.040 -0.0948  0.9140  0.0096
  183SLPC  H18S20956  -0.063   5.770   4.017 -1.5780  1.3053 -1.9820
  183SLPC  H18T20957  -0.098   5.615   4.089 -0.2065 -0.1527  0.8175
  183SLPC   C3320958   0.643   5.882   3.022 -0.0794  0.0593  0.5379
  183SLPC   H3X20959   0.734   5.818   3.024  0.6353  1.0024 -0.6271
  183SLPC   H3Y20960   0.557   5.814   3.002 -0.6291  0.3125  1.9293
  183SLPC   C3420961   0.618   5.941   3.157  0.3170  0.0206  0.3609
  183SLPC   H4X20962   0.528   6.005   3.147 -0.2016 -0.9551 -1.8059
  183SLPC   H4Y20963   0.703   6.001   3.197 -0.7010  0.6346  1.6581
  183SLPC   C3520964   0.596   5.840   3.264 -0.0343 -0.3040 -0.2586
  183SLPC   H5X20965   0.681   5.769   3.267  2.2175  2.2468  0.7157
  183SLPC   H5Y20966   0.505   5.783   3.239 -1.8166  2.2580 -0.0338
  183SLPC   C3620967   0.600   5.899   3.404  0.4986  0.3167 -0.1400
  183SLPC   H6X20968   0.540   5.992   3.413 -0.0167 -0.2563  3.6723
  183SLPC   H6Y20969   0.704   5.929   3.430  0.6570 -0.8203  0.5971
  183SLPC   C3720970   0.560   5.808   3.516 -0.1900  0.5197  0.1208
  183SLPC   H7X20971   0.641   5.735   3.536 -1.7428 -1.3047  0.0626
  183SLPC   H7Y20972   0.458   5.765   3.502 -1.0434  0.9713  3.9328
  183SLPC   C3820973   0.540   5.878   3.657 -0.3832 -0.6287  0.2199
  183SLPC   H8X20974   0.501   5.797   3.722  0.6874 -1.3065  0.0448
  183SLPC   H8Y20975   0.467   5.958   3.632 -0.7486 -1.3805 -1.2209
  183SLPC   C3920976   0.653   5.960   3.725  0.1205  0.0585 -0.7094
  183SLPC   H9X20977   0.709   6.011   3.644 -0.8961 -1.3158 -2.3342
  183SLPC   H9Y20978   0.727   5.889   3.768 -0.4355 -0.9564 -1.3995
  183SLPC  C31020979   0.603   6.062   3.820  1.1069 -0.1462 -0.3142
  183SLPC  H10X20980   0.526   6.015   3.886 -1.5359  1.0887 -2.3386
  183SLPC  H10Y20981   0.539   6.133   3.764  0.6870 -1.3570 -1.4266
  183SLPC  C31120982   0.706   6.150   3.890 -0.1089  0.2899 -0.0433
  183SLPC  H11X20983   0.759   6.197   3.804 -2.1521  0.6156 -1.2004
  183SLPC  H11Y20984   0.773   6.084   3.950  0.8918  2.3425  1.1998
  183SLPC  C31220985   0.646   6.258   3.982 -0.2954  0.3602 -0.6598
  183SLPC  H12X20986   0.535   6.257   3.983 -0.3182 -0.2811  1.8784
  183SLPC  H12Y20987   0.667   6.361   3.948  0.1176  0.0597 -1.3614
  183SLPC  C31320988   0.693   6.240   4.130 -0.1884 -0.6993  0.1302
  183SLPC  H13X20989   0.684   6.142   4.182 -0.0720 -0.7888 -0.0156
  183SLPC  H13Y20990   0.634   6.312   4.190 -0.8415 -0.7952 -0.3830
  183SLPC  C31420991   0.844   6.289   4.150  0.5875 -0.4993  0.0918
  183SLPC  H14X20992   0.859   6.395   4.121  0.0693  0.3401  2.6615
  183SLPC  H14Y20993   0.901   6.215   4.090 -1.4127 -2.5706  0.6147
  183SLPC  C31520994   0.889   6.273   4.302  0.0638  0.0557  0.4554
  183SLPC  H15X20995   0.876   6.164   4.320  1.0846 -0.2530 -0.5495
  183SLPC  H15Y20996   0.822   6.334   4.366 -0.0587  1.1593 -0.6848
  183SLPC  C31620997   1.031   6.325   4.336 -0.2437 -0.2016  0.4636
  183SLPC  H16X20998   1.111   6.267   4.286 -0.3458 -1.0231  1.2289
  183SLPC  H16Y20999   1.056   6.309   4.443 -1.9498 -0.1398  0.8944
  183SLPC  C31721000   1.044   6.472   4.298  0.5378  0.2040  0.0682
  183SLPC  H17X21001   0.957   6.528   4.339 -1.5562 -1.5126 -1.7836
  183SLPC  H17Y21002   1.041   6.488   4.188 -2.0519  2.1447  0.3254
  183SLPC  C31821003   1.168   6.527   4.358  0.2639 -0.3678 -0.4350
  183SLPC  H18X21004   1.258   6.464   4.338  0.5623  0.4970 -1.9158
  183SLPC  H18Y21005   1.145   6.529   4.467 -1.8516  1.3280 -0.8438
  183SLPC  H18Z21006   1.184   6.629   4.318  0.7768 -0.0787  0.4762
  184SLPC     N21007   5.185   0.460   2.175 -0.4847  0.0617  0.5206
  184SLPC   C1321008   5.061   0.441   2.260 -0.7341 -0.2720  0.0502
  184SLPC  H13A21009   5.075   0.347   2.311  0.3079 -0.0527  0.1791
  184SLPC  H13B21010   5.051   0.519   2.333 -0.1373  0.8125 -0.9970
  184SLPC  H13C21011   4.973   0.441   2.197 -0.9738 -1.3724  0.3544
  184SLPC   C1421012   5.304   0.455   2.249 -1.0530 -0.3222  0.4079
  184SLPC  H14A21013   5.315   0.534   2.322  0.1035 -0.0773 -0.0160
  184SLPC  H14B21014   5.319   0.374   2.318  0.2129 -0.0008  0.5402
  184SLPC  H14C21015   5.387   0.463   2.181 -0.1825  1.5252  1.6110
  184SLPC   C1521016   5.183   0.591   2.105  0.2525  0.6943 -0.7062
  184SLPC  H15A21017   5.099   0.588   2.036 -0.1526 -0.0300 -0.2013
  184SLPC  H15B21018   5.158   0.667   2.178  2.0142 -0.2606  0.9841
  184SLPC  H15C21019   5.275   0.623   2.060  0.5922  3.5262  1.6409
  184SLPC   C1221020   5.180   0.346   2.074  0.1672 -0.0317 -0.2555
  184SLPC  H12A21021   5.076   0.326   2.054  0.2422  0.4491 -1.1580
  184SLPC  H12B21022   5.215   0.254   2.118 -0.6474 -1.3969 -2.3368
  184SLPC   C1121023   5.263   0.363   1.947  0.7587 -0.9659  0.0243
  184SLPC  H11A21024   5.247   0.463   1.902 -1.4354 -2.0725 -1.9017
  184SLPC  H11B21025   5.226   0.306   1.859  0.7080  3.3001 -3.0478
  184SLPC     P21026   5.468   0.185   1.980  0.1645 -0.4898  0.0732
  184SLPC   O1321027   5.420   0.112   1.861  0.3427 -0.0384  0.3170
  184SLPC   O1421028   5.612   0.192   2.003 -0.1739 -0.0692  0.1914
  184SLPC   O1221029   5.400   0.334   1.968 -0.1527 -0.5934  0.1086
  184SLPC   O1121030   5.407   0.125   2.115  0.1516  0.3366  0.0506
  184SLPC    C121031   5.392  -0.017   2.117 -0.6124  0.0539 -0.0156
  184SLPC    HA21032   5.319  -0.058   2.044  1.5220 -0.3862 -2.0212
  184SLPC    HB21033   5.492  -0.063   2.102  0.6939  1.6322  3.0028
  184SLPC    C221034   5.340  -0.076   2.252 -1.1781 -0.0348 -0.3233
  184SLPC    HS21035   5.262  -0.004   2.284 -1.1892  0.6959 -1.8911
  184SLPC   O2121036   5.442  -0.057   2.357 -0.9505  0.3802  0.0208
  184SLPC   C2121037   5.392  -0.050   2.482  0.1524  0.7487  0.0129
  184SLPC   O2221038   5.275  -0.049   2.512  0.3455 -0.2756  0.1263
  184SLPC   C2221039   5.502  -0.046   2.585 -0.3342  0.3775  0.3375
  184SLPC   H2R21040   5.549  -0.147   2.583  0.7144  0.8581 -0.3165
  184SLPC   H2S21041   5.578   0.023   2.542  0.6079 -0.1085  1.1963
  184SLPC    C321042   5.312  -0.229   2.261 -0.4917 -0.5592 -0.1825
  184SLPC    HX21043   5.408  -0.283   2.246 -0.7151 -0.8735 -0.4859
  184SLPC    HY21044   5.252  -0.254   2.171  0.7161 -1.4674 -0.7614
  184SLPC   O3121045   5.245  -0.280   2.378 -0.3902  0.0719 -0.4429
  184SLPC   C3121046   5.128  -0.352   2.356 -0.0496 -0.0436 -0.6200
  184SLPC   O3221047   5.089  -0.386   2.245 -0.3605  0.0555  0.2110
  184SLPC   C3221048   5.055  -0.354   2.491 -0.1775  0.5595  0.6668
  184SLPC   H2X21049   4.964  -0.290   2.489 -1.1987 -0.8429 -1.3668
  184SLPC   H2Y21050   5.115  -0.309   2.573  0.6005  2.3770 -0.8447
  184SLPC   C2321051   5.451  -0.005   2.721 -0.3420 -0.2218 -0.0522
  184SLPC   H3R21052   5.535  -0.041   2.784  1.7144  0.4122 -2.2551
  184SLPC   H3S21053   5.355  -0.049   2.753  0.2255 -1.4178  0.0478
  184SLPC   C2421054   5.424   0.154   2.723 -0.2971  1.0818  0.3323
  184SLPC   H4R21055   5.314   0.162   2.707 -0.1891  0.5919 -0.7980
  184SLPC   H4S21056   5.479   0.204   2.641  0.8240  0.2180  0.5284
  184SLPC   C2521057   5.462   0.226   2.852  0.8121 -0.0354 -0.0402
  184SLPC   H5R21058   5.559   0.279   2.862  0.6113  0.2185  0.5885
  184SLPC   H5S21059   5.479   0.135   2.913  1.2290 -0.9457 -1.4715
  184SLPC   C2621060   5.338   0.308   2.908  0.1022  0.4284 -0.1422
  184SLPC   H6R21061   5.247   0.243   2.905 -0.1517  0.7802 -0.1618
  184SLPC   H6S21062   5.326   0.386   2.830 -2.1296  0.8895  0.5737
  184SLPC   C2721063   5.353   0.376   3.043 -0.6860  0.3980 -0.1890
  184SLPC   H7R21064   5.445   0.437   3.039 -0.9455  0.7467 -1.1579
  184SLPC   H7S21065   5.369   0.300   3.124 -0.8780 -1.1668 -1.5593
  184SLPC   C2821066   5.246   0.474   3.100  0.2576  0.7512 -0.0005
  184SLPC   H8R21067   5.279   0.495   3.204  0.2868 -0.2481  0.2006
  184SLPC   H8S21068   5.157   0.411   3.120  0.2265  0.9322  0.4454
  184SLPC   C2921069   5.232   0.603   3.033 -0.6492 -0.4201  0.5938
  184SLPC   H9R21070   5.318   0.669   3.052  0.0576 -0.9358 -0.7066
  184SLPC  C21021071   5.143   0.644   2.941 -0.0715  0.2945 -0.3271
  184SLPC  H10R21072   5.152   0.742   2.891  0.4522  0.6873  0.5114
  184SLPC  C21121073   5.015   0.575   2.900  0.3697 -0.2283 -0.3797
  184SLPC  H11R21074   4.932   0.648   2.889 -0.3167 -0.9534 -0.0644
  184SLPC  H11S21075   4.977   0.514   2.985 -0.8640  2.4890  1.1281
  184SLPC  C21221076   5.047   0.497   2.773  0.7524 -0.0232 -0.3882
  184SLPC  H12R21077   5.129   0.540   2.714  0.6811 -1.5547 -1.7001
  184SLPC  C21321078   4.992   0.381   2.737 -0.7213 -0.5077  0.3721
  184SLPC  H13R21079   5.027   0.334   2.644 -0.0364  1.5091 -0.4517
  184SLPC  C21421080   4.884   0.312   2.820 -0.2093  0.5103 -0.4664
  184SLPC  H14R21081   4.808   0.257   2.761 -0.5496  0.3210  0.1480
  184SLPC  H14S21082   4.828   0.382   2.885  0.7378  0.8150  0.0399
  184SLPC  C21521083   4.941   0.198   2.903 -0.3481  0.2142 -0.0856
  184SLPC  H15R21084   4.853   0.157   2.957 -1.1947 -0.1862 -1.7032
  184SLPC  H15S21085   5.015   0.219   2.983  1.0258 -1.2558 -0.9088
  184SLPC  C21621086   5.006   0.076   2.828 -0.2073 -0.2615 -0.2221
  184SLPC  H16R21087   5.090   0.102   2.760 -1.6940 -1.2223 -2.5612
  184SLPC  H16S21088   4.930   0.035   2.758 -1.2202 -0.0072  0.6893
  184SLPC  C21721089   5.049  -0.035   2.925 -0.3327 -0.5687  0.0869
  184SLPC  H17R21090   4.965  -0.049   2.997 -1.6616  2.3212 -0.7279
  184SLPC  H17S21091   5.129   0.016   2.983  0.9426  2.0386 -3.6050
  184SLPC  C21821092   5.094  -0.165   2.864  0.6020  1.4105 -0.3809
  184SLPC  H18R21093   5.004  -0.228   2.849 -1.1159  2.6233  3.5241
  184SLPC  H18S21094   5.144  -0.223   2.945  0.6993  0.6190 -0.9933
  184SLPC  H18T21095   5.157  -0.159   2.772  0.2330  0.6247 -0.6958
  184SLPC   C3321096   5.015  -0.501   2.530  0.5622  0.1519  0.4768
  184SLPC   H3X21097   5.094  -0.579   2.522 -0.2293 -0.4649 -2.2725
  184SLPC   H3Y21098   4.940  -0.521   2.451  0.6399  2.0944 -0.1367
  184SLPC   C3421099   4.948  -0.516   2.668 -0.1023  0.8686  0.2598
  184SLPC   H4X21100   4.878  -0.602   2.668  1.5682 -0.5632  0.2687
  184SLPC   H4Y21101   4.888  -0.429   2.699 -1.0987 -0.9919  4.1161
  184SLPC   C3521102   5.047  -0.547   2.784  0.5486 -0.0429 -0.4827
  184SLPC   H5X21103   5.129  -0.473   2.769 -0.5169  0.9086 -1.9952
  184SLPC   H5Y21104   5.084  -0.651   2.772 -0.5639 -0.2358 -3.0386
  184SLPC   C3621105   4.973  -0.540   2.918 -0.3564  0.6081 -1.0876
  184SLPC   H6X21106   4.893  -0.617   2.925 -1.2431  1.6333  1.5134
  184SLPC   H6Y21107   4.920  -0.443   2.929  0.1664  0.7560  0.2633
  184SLPC   C3721108   5.067  -0.577   3.037 -0.5000 -0.0245  0.5718
  184SLPC   H7X21109   5.160  -0.518   3.024  0.5723 -1.9750 -1.2126
  184SLPC   H7Y21110   5.091  -0.685   3.032  3.0065  0.6319  0.9408
  184SLPC   C3821111   5.015  -0.542   3.173  0.2089  0.1008 -0.2288
  184SLPC   H8X21112   5.079  -0.582   3.255 -2.0680  0.9422  2.0894
  184SLPC   H8Y21113   4.911  -0.580   3.187 -0.2280  1.3886  0.1690
  184SLPC   C3921114   5.023  -0.393   3.209 -0.2450  0.3159  1.1757
  184SLPC   H9X21115   4.996  -0.339   3.116  1.8625 -2.5890 -1.3260
  184SLPC   H9Y21116   5.130  -0.364   3.216 -0.0949 -0.5650  3.6577
  184SLPC  C31021117   4.933  -0.362   3.325 -0.3413  0.4981 -0.1440
  184SLPC  H10X21118   4.983  -0.404   3.414 -0.8169 -0.3744 -0.2792
  184SLPC  H10Y21119   4.839  -0.421   3.314 -0.2035  0.6564 -2.9321
  184SLPC  C31121120   4.914  -0.210   3.333  0.0824  0.6101  0.0668
  184SLPC  H11X21121   4.896  -0.177   3.229  0.5415 -3.4978 -1.5019
  184SLPC  H11Y21122   5.011  -0.179   3.378 -0.1985 -0.0762  1.1850
  184SLPC  C31221123   4.804  -0.174   3.431 -0.6480 -0.4290 -0.5190
  184SLPC  H12X21124   4.851  -0.179   3.532  0.4583 -0.1243 -0.9953
  184SLPC  H12Y21125   4.735  -0.260   3.444 -1.9963  0.4927 -1.3500
  184SLPC  C31321126   4.736  -0.035   3.424  0.1926 -0.5372 -0.3431
  184SLPC  H13X21127   4.671  -0.021   3.335  0.3292  1.4759 -0.1662
  184SLPC  H13Y21128   4.809   0.049   3.421 -1.3163  0.8869  1.0983
  184SLPC  C31421129   4.652  -0.008   3.557 -0.0375 -0.1107  0.5009
  184SLPC  H14X21130   4.709  -0.003   3.652 -0.8756  0.5807  0.9858
  184SLPC  H14Y21131   4.577  -0.090   3.562  0.4202 -0.5029  0.9756
  184SLPC  C31521132   4.581   0.131   3.554  0.1559  0.8772  0.9053
  184SLPC  H15X21133   4.521   0.138   3.461  0.4368  0.5127  0.6960
  184SLPC  H15Y21134   4.656   0.213   3.558 -1.8836  2.9522 -0.6478
  184SLPC  C31621135   4.499   0.160   3.675  0.0217  0.2629  0.8314
  184SLPC  H16X21136   4.546   0.149   3.775 -1.0591  1.9935  1.5711
  184SLPC  H16Y21137   4.410   0.097   3.695  0.5648  0.2098  3.5053
  184SLPC  C31721138   4.446   0.305   3.663  0.5576 -0.0158  0.0048
  184SLPC  H17X21139   4.382   0.309   3.572 -1.2748 -2.6066  1.0712
  184SLPC  H17Y21140   4.539   0.366   3.662  0.3383  0.3260  0.2846
  184SLPC  C31821141   4.363   0.337   3.786 -0.0994 -0.3909  0.0283
  184SLPC  H18X21142   4.298   0.425   3.768  0.7509 -0.0114 -1.2827
  184SLPC  H18Y21143   4.432   0.345   3.872 -2.2799 -1.1855  1.9565
  184SLPC  H18Z21144   4.293   0.255   3.813 -1.4169 -0.6276 -3.5319
  185POPC     N21145   6.946   4.545   5.814 -0.3941  0.0595  0.5886
  185POPC   C1221146   6.921   4.677   5.874 -0.3298 -0.5275  0.0506
  185POPC  H12A21147   7.015   4.712   5.913 -1.3001  0.7595  1.3344
  185POPC  H12B21148   6.849   4.660   5.953 -0.8752 -1.3057 -0.5950
  185POPC   C1321149   7.072   4.550   5.723  0.0365  0.6722 -0.2371
  185POPC  H13A21150   7.046   4.601   5.631 -0.0902 -0.4113 -0.8157
  185POPC  H13B21151   7.150   4.603   5.776 -1.1740 -0.0448  2.4436
  185POPC  H13C21152   7.105   4.448   5.709 -1.5961  0.1490 -0.4621
  185POPC   C1421153   6.977   4.454   5.928  0.0511 -0.8093 -0.6059
  185POPC  H14A21154   7.067   4.490   5.977 -2.8097  2.5325  2.9197
  185POPC  H14B21155   6.896   4.453   6.000  1.7001  0.3082  1.3837
  185POPC  H14C21156   6.975   4.353   5.892 -0.6620 -1.3519  0.8776
  185POPC   C1521157   6.825   4.488   5.746 -0.0228 -0.7584  0.0600
  185POPC  H15A21158   6.850   4.387   5.719 -1.1787 -1.7907  2.4900
  185POPC  H15B21159   6.781   4.558   5.676 -0.9692  0.7064  2.0183
  185POPC  H15C21160   6.745   4.484   5.818  1.3680  0.7770  1.8123
  185POPC   C1121161   6.851   4.785   5.781 -0.1733 -0.3659  0.2336
  185POPC  H11A21162   6.914   4.797   5.690 -1.2706 -0.7767 -0.5968
  185POPC  H11B21163   6.856   4.881   5.837  0.3645 -0.7977  0.9531
  185POPC     P21164   6.601   4.821   5.817 -0.0102 -0.6771 -0.1039
  185POPC   O1321165   6.610   4.968   5.807 -0.3664  0.4309  0.0866
  185POPC   O1421166   6.598   4.759   5.954 -0.0493 -0.4008  0.0922
  185POPC   O1221167   6.724   4.751   5.735  0.7691 -0.0563 -0.1152
  185POPC   O1121168   6.479   4.774   5.730  0.7196  0.1554 -0.0986
  185POPC    C121169   6.485   4.753   5.590  0.2487 -0.2783  0.3807
  185POPC    HA21170   6.394   4.698   5.558  0.7721 -0.4617 -0.8358
  185POPC    HB21171   6.580   4.701   5.561  0.5493  0.9526 -0.9394
  185POPC    C221172   6.478   4.888   5.515 -1.1458 -0.4581  0.0064
  185POPC    HS21173   6.547   4.961   5.562  0.6696 -0.7420 -2.0587
  185POPC   O2121174   6.344   4.936   5.524 -0.2393 -0.2435 -0.1863
  185POPC   C2121175   6.334   5.060   5.490  0.1610 -0.5452  0.1216
  185POPC   O2221176   6.426   5.130   5.446  0.1046  0.0952 -0.8974
  185POPC   C2221177   6.196   5.105   5.525  0.7236 -0.2417  0.4106
  185POPC   H2R21178   6.195   5.142   5.630  0.0451 -0.1128  0.3644
  185POPC   H2S21179   6.129   5.016   5.534  0.5833 -0.0833  0.9994
  185POPC    C321180   6.539   4.871   5.372 -0.2594 -0.0008  0.4412
  185POPC    HX21181   6.547   4.969   5.320  1.0838  0.3984  1.3374
  185POPC    HY21182   6.475   4.808   5.308  1.2180  0.0538 -1.1658
  185POPC   O3121183   6.671   4.808   5.366  0.5929 -0.0268 -0.2618
  185POPC   C3121184   6.770   4.874   5.415  0.6086  0.0851  0.1497
  185POPC   O3221185   6.770   4.987   5.461  0.8612 -0.0499 -0.5929
  185POPC   C3221186   6.894   4.789   5.409 -0.0019 -1.0698 -0.0156
  185POPC   H2X21187   6.878   4.691   5.459 -2.2883 -0.4947  0.5046
  185POPC   H2Y21188   6.973   4.840   5.467  1.4213  0.1608 -2.8386
  185POPC   C2321189   6.134   5.212   5.431 -0.1915 -0.3172 -0.3342
  185POPC   H3R21190   6.023   5.210   5.438 -0.1632 -2.3500  0.1338
  185POPC   H3S21191   6.152   5.181   5.326  0.8931  1.9245 -0.8799
  185POPC   C2421192   6.175   5.355   5.487  1.1334 -0.4859  0.6964
  185POPC   H4R21193   6.283   5.379   5.490  0.9649  0.4907 -0.1639
  185POPC   H4S21194   6.144   5.361   5.593  2.1738 -0.5161  1.0118
  185POPC   C2521195   6.089   5.464   5.421  0.4017  0.5699  0.7853
  185POPC   H5R21196   6.125   5.567   5.441 -2.5529  1.8641  0.0251
  185POPC   H5S21197   5.985   5.463   5.461  0.8483 -0.5955  1.9493
  185POPC   C2621198   6.072   5.445   5.271 -0.5252 -0.1105  0.0128
  185POPC   H6R21199   6.005   5.363   5.240  0.9619 -1.6769  0.7717
  185POPC   H6S21200   6.173   5.422   5.230 -0.4775 -0.0780  0.1127
  185POPC   C2721201   6.018   5.582   5.212  0.2640  0.4260 -0.7601
  185POPC   H7R21202   6.092   5.664   5.202 -0.5939  1.4630  0.8922
  185POPC   H7S21203   5.942   5.619   5.283  0.2634  0.8316 -0.9728
  185POPC   C2821204   5.958   5.562   5.071  0.9490  0.0837 -0.2040
  185POPC   H8R21205   5.906   5.655   5.038 -3.6808 -0.7218  3.5815
  185POPC   H8S21206   5.878   5.485   5.076  0.3788  0.6118 -0.9991
  185POPC   C2921207   6.063   5.530   4.974 -0.3060 -0.2854 -0.0883
  185POPC   H9121208   6.157   5.493   5.018 -0.8928  1.0935  2.5347
  185POPC  C21021209   6.071   5.565   4.845 -0.4901 -0.4116  0.2361
  185POPC  H10121210   6.161   5.526   4.795 -0.1077 -0.0522  0.6409
  185POPC  C21121211   5.970   5.631   4.763 -0.1915 -0.6178 -0.1202
  185POPC  H11R21212   5.994   5.735   4.734  0.6472 -0.8089 -0.1262
  185POPC  H11S21213   5.868   5.647   4.805 -0.9904 -1.0141 -1.8200
  185POPC  C21221214   5.950   5.545   4.639  0.0179 -0.2554 -0.0923
  185POPC  H12R21215   5.868   5.591   4.579  0.0034 -1.9277 -1.4145
  185POPC  H12S21216   5.919   5.440   4.655  1.7587 -0.9625 -1.1389
  185POPC  C21321217   6.060   5.556   4.534  0.2275  0.1413  0.2228
  185POPC  H13R21218   6.161   5.537   4.575  0.5319 -1.8440 -1.2845
  185POPC  H13S21219   6.048   5.656   4.487 -1.7661 -0.9418 -1.7980
  185POPC  C21421220   6.055   5.452   4.418  1.1402  0.3392 -0.4760
  185POPC  H14R21221   5.950   5.451   4.382  0.4498  1.4246  1.3562
  185POPC  H14S21222   6.059   5.355   4.471 -2.4170  1.9063  3.2727
  185POPC  C21521223   6.165   5.474   4.308  0.4199  0.6677 -0.8439
  185POPC  H15R21224   6.189   5.376   4.260  1.1626  1.5192 -2.2653
  185POPC  H15S21225   6.268   5.484   4.349  0.5652 -0.3806 -0.9152
  185POPC  C21621226   6.125   5.572   4.200  0.8126 -0.3457  0.2586
  185POPC  H16R21227   6.155   5.669   4.244  1.8272 -0.0845 -0.9663
  185POPC  H16S21228   6.016   5.574   4.179  0.9260 -0.2628 -0.3332
  185POPC  C21721229   6.185   5.562   4.064 -0.2238 -0.0813  0.4921
  185POPC  H17R21230   6.134   5.638   4.000  2.1535  0.2240 -1.1627
  185POPC  H17S21231   6.171   5.468   4.006  1.6182 -0.8421  1.2067
  185POPC  C21821232   6.335   5.595   4.068  0.0369 -0.1325 -0.1679
  185POPC  H18R21233   6.391   5.509   4.111 -1.2302 -0.3885  1.0485
  185POPC  H18S21234   6.353   5.690   4.122 -1.6606  0.3551 -0.3912
  185POPC  H18T21235   6.355   5.602   3.959  0.5386 -0.1457 -0.0794
  185POPC   C3321236   6.943   4.759   5.268 -0.5042  0.2961 -0.2819
  185POPC   H3X21237   6.865   4.715   5.202  1.3190 -3.5350 -0.0980
  185POPC   H3Y21238   7.027   4.687   5.279  0.1277  1.0307 -0.2124
  185POPC   C3421239   6.994   4.888   5.205  0.1348  0.3446  0.3431
  185POPC   H4X21240   7.101   4.906   5.228  0.6955 -1.8064 -0.3182
  185POPC   H4Y21241   6.948   4.982   5.241  2.3335  1.8793 -0.6158
  185POPC   C3521242   6.978   4.890   5.046  0.1391 -0.2668  0.3620
  185POPC   H5X21243   7.031   4.980   5.008  0.1427 -0.9440 -1.3103
  185POPC   H5Y21244   6.868   4.898   5.032  0.0195 -1.3213  0.6167
  185POPC   C3621245   7.035   4.774   4.973  0.4314  0.3805 -0.2707
  185POPC   H6X21246   6.968   4.687   4.985  1.3989 -0.1289  2.0711
  185POPC   H6Y21247   7.135   4.760   5.019  0.1660  1.4907  0.6977
  185POPC   C3721248   7.050   4.801   4.821 -0.0642  0.3770 -0.0753
  185POPC   H7X21249   7.095   4.897   4.789  0.5593 -0.2150 -1.0243
  185POPC   H7Y21250   6.950   4.803   4.773 -0.2030 -3.0985 -0.1766
  185POPC   C3821251   7.108   4.676   4.758 -0.7095 -0.6356  0.4759
  185POPC   H8X21252   7.055   4.585   4.794  0.3206 -1.3418  0.2644
  185POPC   H8Y21253   7.216   4.681   4.785 -0.0839  1.8830 -2.0494
  185POPC   C3921254   7.102   4.673   4.599  0.7394 -0.8251 -0.1324
  185POPC   H9X21255   7.153   4.583   4.559  0.8571 -0.6208 -0.4532
  185POPC   H9Y21256   7.155   4.760   4.553  1.5172  0.1676  2.4670
  185POPC  C31021257   6.959   4.667   4.545  0.3165 -0.9500  0.0725
  185POPC  H10X21258   6.895   4.749   4.584 -1.0501 -1.3172 -1.2821
  185POPC  H10Y21259   6.900   4.573   4.557 -1.5852 -0.1160 -2.0058
  185POPC  C31121260   6.960   4.691   4.394  0.4202 -0.1396 -0.1554
  185POPC  H11X21261   6.978   4.596   4.339  0.4500  0.1416 -0.6365
  185POPC  H11Y21262   7.044   4.762   4.376  1.9240 -1.5431  0.9034
  185POPC  C31221263   6.830   4.748   4.347  0.2360  0.0290  0.2100
  185POPC  H12X21264   6.817   4.848   4.393  1.2572 -0.3349  1.3379
  185POPC  H12Y21265   6.748   4.688   4.394 -0.6784  2.2166  1.5400
  185POPC  C31321266   6.817   4.749   4.196  0.3561 -0.3086 -0.3982
  185POPC  H13X21267   6.721   4.800   4.172  0.0725 -0.4588  0.3938
  185POPC  H13Y21268   6.811   4.646   4.155 -0.9981  0.0170 -1.0658
  185POPC  C31421269   6.921   4.830   4.124 -0.1674 -0.0679 -0.5381
  185POPC  H14X21270   7.016   4.775   4.138 -0.7022 -1.2056 -1.3023
  185POPC  H14Y21271   6.917   4.923   4.186 -0.7780 -1.1776  1.1733
  185POPC  C31521272   6.889   4.857   3.975  1.1437  0.1119 -0.6294
  185POPC  H15X21273   6.801   4.924   3.960 -1.1445 -2.4483  0.3564
  185POPC  H15Y21274   6.867   4.754   3.937  1.1154  0.0040 -0.3272
  185POPC  C31621275   6.994   4.918   3.882  1.0778 -0.5123 -0.2209
  185POPC  H16X21276   7.094   4.871   3.894  1.0060 -0.8218 -0.7914
  185POPC  H16Y21277   7.012   5.027   3.897  0.2408 -0.3256 -0.4858
  185POPC  H16Z21278   6.954   4.894   3.782 -2.4389  1.4406  0.5366
  186POPC     N21279   3.051   5.392   6.652 -0.0757 -0.0906 -0.2297
  186POPC   C1221280   3.082   5.280   6.553 -0.4235  0.2857 -0.0630
  186POPC  H12A21281   3.188   5.282   6.531 -0.8406  1.4082 -2.2512
  186POPC  H12B21282   3.042   5.303   6.455 -1.0815 -1.1021 -0.1491
  186POPC   C1321283   3.117   5.366   6.792 -0.0579 -0.1897  0.2183
  186POPC  H13A21284   3.219   5.401   6.786 -0.4211  1.6640  3.0082
  186POPC  H13B21285   3.061   5.415   6.871 -0.0587 -2.3400  1.6229
  186POPC  H13C21286   3.118   5.261   6.815  1.7662 -0.7546 -2.0543
  186POPC   C1421287   3.123   5.516   6.610 -0.6509 -0.9186 -0.4760
  186POPC  H14A21288   3.084   5.548   6.515  0.6342  0.0588 -0.7136
  186POPC  H14B21289   3.093   5.596   6.677 -1.5650 -1.4999 -0.1891
  186POPC  H14C21290   3.231   5.507   6.610  0.1566  3.3836  4.4574
  186POPC   C1521291   2.906   5.410   6.652  0.2052  0.5245 -0.2564
  186POPC  H15A21292   2.877   5.494   6.712  1.6218  0.7736  0.1018
  186POPC  H15B21293   2.865   5.318   6.691  1.2545  0.6259  1.1397
  186POPC  H15C21294   2.865   5.431   6.554 -2.6994 -0.5728  0.6141
  186POPC   C1121295   3.039   5.144   6.595 -0.5885  0.3969 -0.4942
  186POPC  H11A21296   2.934   5.129   6.629  0.1784 -1.1757  1.3481
  186POPC  H11B21297   3.090   5.115   6.689 -0.2048  0.8539 -0.5567
  186POPC     P21298   2.982   5.038   6.365  0.3297 -0.4074  0.1206
  186POPC   O1321299   2.944   5.167   6.316  0.1772 -0.2041  0.2387
  186POPC   O1421300   2.885   4.932   6.381  0.1243  0.3218 -0.3672
  186POPC   O1221301   3.075   5.057   6.492  0.0392  0.2111  0.2270
  186POPC   O1121302   3.081   4.981   6.256 -0.0059  0.0499  0.0840
  186POPC    C121303   3.214   5.027   6.218  0.3452 -0.1096  0.3262
  186POPC    HA21304   3.294   4.972   6.273  1.5005 -1.4914 -2.5375
  186POPC    HB21305   3.236   5.132   6.245 -1.5995  1.2657 -2.8401
  186POPC    C221306   3.246   5.011   6.069 -0.4467 -0.8907  0.2967
  186POPC    HS21307   3.354   5.034   6.051 -0.4281  0.8663  2.3181
  186POPC   O2121308   3.152   5.090   5.984 -0.7382  0.1988 -0.2595
  186POPC   C2121309   3.164   5.223   5.985  0.3341  0.0352 -0.0765
  186POPC   O2221310   3.243   5.281   6.062  0.4315 -0.6348  0.1417
  186POPC   C2221311   3.067   5.286   5.897  0.6374 -0.0971 -0.4507
  186POPC   H2R21312   3.076   5.397   5.896  1.6981 -0.1679 -0.3859
  186POPC   H2S21313   2.969   5.244   5.924  1.2018 -1.4967 -0.5165
  186POPC    C321314   3.237   4.861   6.028  0.0122 -0.4448  0.1645
  186POPC    HX21315   3.139   4.818   6.056 -0.8909  1.9978  1.0295
  186POPC    HY21316   3.307   4.805   6.093  0.5766 -2.2666 -1.9127
  186POPC   O3121317   3.276   4.847   5.894  0.1385 -0.0877 -0.4752
  186POPC   C3121318   3.178   4.840   5.805  0.4471  0.8409  0.8087
  186POPC   O3221319   3.061   4.851   5.839 -0.0119 -0.1190 -0.4459
  186POPC   C3221320   3.221   4.806   5.663 -0.2365  0.6000  0.4958
  186POPC   H2X21321   3.203   4.697   5.649 -1.3618  0.5179  2.2227
  186POPC   H2Y21322   3.328   4.834   5.649 -0.3301 -0.1598 -2.3080
  186POPC   C2321323   3.096   5.244   5.747 -0.5752 -0.3386 -0.2554
  186POPC   H3R21324   3.101   5.133   5.736 -0.0636 -0.2572 -0.9270
  186POPC   H3S21325   3.199   5.280   5.726 -0.1836 -0.4638  1.3699
  186POPC   C2421326   3.016   5.297   5.636 -0.5168  0.0546 -0.0034
  186POPC   H4R21327   3.039   5.406   5.639 -0.1164 -0.0436  0.9968
  186POPC   H4S21328   2.907   5.282   5.652 -0.0670  0.7756  5.7898
  186POPC   C2521329   3.063   5.241   5.500 -0.4764 -0.3714  0.6379
  186POPC   H5R21330   3.003   5.151   5.476  0.0592 -0.2651 -1.2767
  186POPC   H5S21331   3.172   5.231   5.485 -0.8981 -2.1648 -1.8373
  186POPC   C2621332   3.015   5.344   5.395  0.2363 -0.0279  0.5351
  186POPC   H6R21333   3.050   5.314   5.294  0.3423  2.7290 -0.3231
  186POPC   H6S21334   3.065   5.439   5.423 -0.8586  0.1390  2.0630
  186POPC   C2721335   2.859   5.362   5.387  0.7463  0.2849  0.2905
  186POPC   H7R21336   2.842   5.430   5.474 -0.0883 -0.1308  0.4590
  186POPC   H7S21337   2.813   5.264   5.412  0.8255  0.5813  1.7117
  186POPC   C2821338   2.793   5.427   5.262 -0.5334 -0.1838  0.2648
  186POPC   H8R21339   2.800   5.364   5.171  1.2883  1.8601 -1.1082
  186POPC   H8S21340   2.852   5.519   5.246  0.2676 -0.8464 -0.7121
  186POPC   C2921341   2.652   5.460   5.274 -0.0215  0.5357  0.2772
  186POPC   H9121342   2.609   5.459   5.375 -1.6428  0.0580 -0.3767
  186POPC  C21021343   2.591   5.542   5.189 -0.2516 -0.3627 -0.6241
  186POPC  H10121344   2.488   5.571   5.214 -0.7688 -1.9960 -0.7065
  186POPC  C21121345   2.645   5.596   5.054 -0.4143  0.2230  0.5034
  186POPC  H11R21346   2.595   5.542   4.970 -0.7502  0.8009  0.3231
  186POPC  H11S21347   2.753   5.573   5.046 -0.5295  0.3390 -2.5990
  186POPC  C21221348   2.638   5.751   5.033 -0.1742 -0.1273  0.1399
  186POPC  H12R21349   2.683   5.808   5.117 -2.7959  0.6553  1.1334
  186POPC  H12S21350   2.531   5.780   5.035  0.1801  1.5099  3.7692
  186POPC  C21321351   2.709   5.802   4.908 -0.0678 -0.9131 -0.4513
  186POPC  H13R21352   2.802   5.744   4.894  0.0361 -1.0992  0.8253
  186POPC  H13S21353   2.730   5.911   4.920 -0.0215 -0.2731 -4.7207
  186POPC  C21421354   2.630   5.790   4.778 -0.0519 -0.5388  0.1478
  186POPC  H14R21355   2.530   5.830   4.805  0.0852 -0.7113  0.9475
  186POPC  H14S21356   2.619   5.682   4.752 -3.2788  0.3263 -2.7621
  186POPC  C21521357   2.683   5.848   4.646 -0.1728  0.3475 -0.7238
  186POPC  H15R21358   2.676   5.959   4.643 -3.3055  0.2411 -1.4572
  186POPC  H15S21359   2.630   5.810   4.556  2.8149 -3.0027 -1.2730
  186POPC  C21621360   2.839   5.818   4.632  0.5957  0.0092  0.5856
  186POPC  H16R21361   2.856   5.710   4.615 -1.4811 -0.5627  1.7336
  186POPC  H16S21362   2.897   5.852   4.720  0.6809 -1.0372  0.9491
  186POPC  C21721363   2.896   5.886   4.510 -0.0999  0.2281 -0.2122
  186POPC  H17R21364   2.890   5.997   4.508  0.3247  0.2714  0.6718
  186POPC  H17S21365   2.827   5.860   4.427 -1.3969 -0.5972  1.0793
  186POPC  C21821366   3.038   5.845   4.470 -0.4439  0.1828 -0.6571
  186POPC  H18R21367   3.034   5.741   4.432 -3.1647  0.8640 -2.4791
  186POPC  H18S21368   3.104   5.854   4.559 -0.7361  3.6428 -0.6462
  186POPC  H18T21369   3.081   5.914   4.394 -0.6460 -0.4086 -1.3178
  186POPC   C3321370   3.136   4.887   5.564  0.6076  0.5629  0.2150
  186POPC   H3X21371   3.190   4.982   5.543  0.8903 -0.1577 -2.8166
  186POPC   H3Y21372   3.028   4.905   5.584  0.3980 -2.0953  1.9497
  186POPC   C3421373   3.145   4.831   5.421  0.6837 -0.0477 -0.5271
  186POPC   H4X21374   3.084   4.739   5.416 -0.8080  0.9643 -2.1105
  186POPC   H4Y21375   3.249   4.803   5.392  1.0106 -0.5432  1.0594
  186POPC   C3521376   3.095   4.929   5.314  0.6251 -0.1982  0.3001
  186POPC   H5X21377   3.156   5.022   5.318 -1.7482  1.9185 -4.7472
  186POPC   H5Y21378   2.988   4.958   5.320 -0.2499 -2.9159 -0.7275
  186POPC   C3621379   3.116   4.873   5.175  0.1823 -0.1171  0.7360
  186POPC   H6X21380   3.046   4.789   5.159  0.6139 -0.4140  0.3784
  186POPC   H6Y21381   3.218   4.828   5.168 -0.1611 -0.9911  1.2607
  186POPC   C3721382   3.092   4.989   5.076 -0.1295 -0.3573  0.2107
  186POPC   H7X21383   3.132   5.082   5.121 -0.5821 -0.0346 -0.0503
  186POPC   H7Y21384   2.981   4.996   5.079 -0.4971 -4.0554  0.0275
  186POPC   C3821385   3.139   4.969   4.929  0.4015  0.2387 -0.8148
  186POPC   H8X21386   3.250   4.968   4.923  0.5950  1.6023  1.4634
  186POPC   H8Y21387   3.105   5.048   4.857  0.2333  0.9792  0.0588
  186POPC   C3921388   3.101   4.837   4.868 -0.4236  0.0508 -0.1808
  186POPC   H9X21389   2.995   4.826   4.899 -1.0587  0.5009 -2.1030
  186POPC   H9Y21390   3.154   4.751   4.916 -1.7191 -0.8451 -0.3225
  186POPC  C31021391   3.097   4.831   4.715  0.0626 -0.3570 -0.1470
  186POPC  H10X21392   3.025   4.905   4.676  0.5292  0.2121  0.0596
  186POPC  H10Y21393   3.060   4.733   4.677 -1.3074  1.1547 -3.0407
  186POPC  C31121394   3.237   4.872   4.655 -0.4074 -0.0403 -0.9473
  186POPC  H11X21395   3.309   4.809   4.711 -0.0268  1.5428  0.4170
  186POPC  H11Y21396   3.261   4.976   4.686 -0.1663 -0.2444 -0.4465
  186POPC  C31221397   3.256   4.857   4.502  0.2620  0.3864  0.9556
  186POPC  H12X21398   3.164   4.819   4.453 -0.2026  2.6508 -0.0314
  186POPC  H12Y21399   3.344   4.789   4.490 -1.3148 -1.4057 -1.3404
  186POPC  C31321400   3.289   4.983   4.421  0.0258  0.1436  0.1579
  186POPC  H13X21401   3.328   4.965   4.319 -0.9551  1.9052 -0.5700
  186POPC  H13Y21402   3.374   5.028   4.475  1.5556 -0.7827 -1.3970
  186POPC  C31421403   3.171   5.077   4.407 -0.2849 -0.2792  0.8050
  186POPC  H14X21404   3.124   5.085   4.508 -1.0688  1.7582  0.3313
  186POPC  H14Y21405   3.096   5.041   4.334 -0.7229 -3.7856  2.7690
  186POPC  C31521406   3.204   5.230   4.372  0.0034 -0.2092  0.3530
  186POPC  H15X21407   3.149   5.261   4.280  0.2530  0.7469  0.5114
  186POPC  H15Y21408   3.314   5.242   4.358 -0.1140 -0.1158 -0.5732
  186POPC  C31621409   3.145   5.316   4.477 -0.3203  0.2393  0.4774
  186POPC  H16X21410   3.200   5.297   4.572  0.8592  0.4377 -0.1424
  186POPC  H16Y21411   3.035   5.303   4.487 -0.2351 -0.2533  0.7936
  186POPC  H16Z21412   3.157   5.423   4.447 -0.6543  0.2010  0.1989
  187POPC     N21413   4.559   2.515   2.330  0.8382 -0.3630  0.1271
  187POPC   C1221414   4.687   2.507   2.254  0.4932 -0.2597 -0.1503
  187POPC  H12A21415   4.758   2.435   2.291  0.9177  0.3010  0.1390
  187POPC  H12B21416   4.745   2.597   2.264  1.2118 -0.6622 -0.6306
  187POPC   C1321417   4.466   2.398   2.317 -0.5007  0.3431 -0.0935
  187POPC  H13A21418   4.452   2.370   2.214  2.7088  2.9315 -1.4328
  187POPC  H13B21419   4.528   2.315   2.347 -0.9277 -1.1212 -2.9653
  187POPC  H13C21420   4.374   2.410   2.372 -1.1606  1.1771 -1.3526
  187POPC   C1421421   4.582   2.536   2.481  0.5696 -0.0479 -0.5547
  187POPC  H14A21422   4.592   2.435   2.518  0.3929  0.4433  0.8678
  187POPC  H14B21423   4.665   2.605   2.478 -0.5874  1.3819 -2.1165
  187POPC  H14C21424   4.490   2.575   2.521  0.9966  0.2225  0.1757
  187POPC   C1521425   4.491   2.634   2.278 -0.1542  0.0975  0.0643
  187POPC  H15A21426   4.542   2.728   2.294 -1.4254  0.7078  0.6684
  187POPC  H15B21427   4.390   2.639   2.317 -0.0510  0.8564  0.2343
  187POPC  H15C21428   4.466   2.631   2.173  0.2838  0.6962 -0.0618
  187POPC   C1121429   4.670   2.483   2.103 -0.5814 -0.1778 -0.8346
  187POPC  H11A21430   4.767   2.510   2.055  0.1307  3.1431  2.0683
  187POPC  H11B21431   4.611   2.563   2.056 -1.5635 -0.5246 -0.2223
  187POPC     P21432   4.741   2.243   2.060  0.5649 -0.0166  0.3549
  187POPC   O1321433   4.815   2.261   1.932  0.7131 -0.2531 -0.1480
  187POPC   O1421434   4.683   2.114   2.085 -0.6013  0.5268  0.0816
  187POPC   O1221435   4.622   2.350   2.077  0.1206  0.0683  0.3225
  187POPC   O1121436   4.842   2.271   2.175  0.4318  0.4289 -0.0521
  187POPC    C121437   4.968   2.204   2.189 -0.0024  0.1313 -0.3470
  187POPC    HA21438   5.025   2.224   2.096 -0.0184  0.1877 -0.3447
  187POPC    HB21439   4.945   2.096   2.198 -2.2968  0.6461  0.8034
  187POPC    C221440   5.061   2.251   2.308  1.1035 -0.3081  0.3039
  187POPC    HS21441   5.148   2.186   2.329  1.4290  0.5753  1.8328
  187POPC   O2121442   4.984   2.246   2.430  0.7501 -0.6850  0.0895
  187POPC   C2121443   4.962   2.121   2.464 -0.2868  0.6252 -0.4045
  187POPC   O2221444   5.016   2.022   2.412  0.2584 -0.6971  0.4910
  187POPC   C2221445   4.880   2.115   2.593  0.0115  0.8240 -0.5552
  187POPC   H2R21446   4.866   2.008   2.619 -0.2006  0.3904 -2.3059
  187POPC   H2S21447   4.777   2.145   2.566 -0.9928 -0.7304  1.2927
  187POPC    C321448   5.124   2.394   2.283 -0.2862  0.2011  0.0346
  187POPC    HX21449   5.032   2.455   2.296 -0.8681 -0.7316  0.4346
  187POPC    HY21450   5.162   2.390   2.179 -0.1901 -1.1198  0.1056
  187POPC   O3121451   5.233   2.414   2.374  0.1156  0.3436  0.0561
  187POPC   C3121452   5.219   2.495   2.479 -0.7885  0.3034  0.4378
  187POPC   O3221453   5.115   2.551   2.509 -0.2604  0.3174 -0.3724
  187POPC   C3221454   5.347   2.499   2.565 -0.2382 -0.4367  0.3997
  187POPC   H2X21455   5.401   2.596   2.555 -0.5198 -0.3244 -0.0734
  187POPC   H2Y21456   5.416   2.425   2.519  0.2347 -0.0837  0.5325
  187POPC   C2321457   4.929   2.209   2.703  0.2070  0.1005  0.0686
  187POPC   H3R21458   4.846   2.222   2.776  0.7204  1.1826  0.4712
  187POPC   H3S21459   4.953   2.315   2.680  0.1487  0.7499  2.6332
  187POPC   C2421460   5.042   2.148   2.793 -0.7511 -0.0072 -0.1879
  187POPC   H4R21461   5.137   2.135   2.736 -0.0726  1.9700  0.3932
  187POPC   H4S21462   5.003   2.050   2.826 -2.5806  0.6938 -0.1360
  187POPC   C2521463   5.086   2.245   2.896  0.0505 -0.4337  0.3906
  187POPC   H5R21464   5.005   2.270   2.969  0.9763  0.6803  1.0703
  187POPC   H5S21465   5.101   2.337   2.835 -1.7884  0.5461  1.3249
  187POPC   C2621466   5.208   2.213   2.973 -0.7427  0.1222 -0.3826
  187POPC   H6R21467   5.305   2.217   2.918  0.1641  0.5015  1.1968
  187POPC   H6S21468   5.195   2.115   3.023 -0.7641  0.6612  0.6953
  187POPC   C2721469   5.224   2.311   3.089 -0.3060 -0.5070  0.3465
  187POPC   H7R21470   5.136   2.305   3.156 -1.2229 -1.5762 -0.8877
  187POPC   H7S21471   5.218   2.416   3.052  2.3339 -0.5172 -0.2856
  187POPC   C2821472   5.352   2.281   3.168  0.2297  0.8318 -0.1146
  187POPC   H8R21473   5.336   2.346   3.257 -0.9964  1.4075 -0.7357
  187POPC   H8S21474   5.434   2.317   3.102  3.3302 -2.9773  1.2629
  187POPC   C2921475   5.376   2.135   3.216  0.4119  0.2755  0.7897
  187POPC   H9121476   5.289   2.083   3.259  1.9702 -0.9277  2.6556
  187POPC  C21021477   5.489   2.065   3.193 -0.0678  0.2234 -0.1735
  187POPC  H10121478   5.493   1.959   3.222 -0.2732  0.1231 -0.5060
  187POPC  C21121479   5.616   2.117   3.125 -0.0398  0.5677 -0.0379
  187POPC  H11R21480   5.602   2.224   3.098 -1.4339  0.7538  1.2710
  187POPC  H11S21481   5.645   2.047   3.044 -0.2192 -2.4903  2.3660
  187POPC  C21221482   5.725   2.107   3.228  0.0392 -0.4740  0.3480
  187POPC  H12R21483   5.814   2.163   3.192 -1.2966  1.3703 -0.2470
  187POPC  H12S21484   5.753   2.002   3.249  1.1055 -0.1126  0.8408
  187POPC  C21321485   5.678   2.172   3.360  0.2440 -0.0202  0.0679
  187POPC  H13R21486   5.617   2.095   3.412 -0.4033  0.8016  0.5640
  187POPC  H13S21487   5.620   2.267   3.362 -0.3233 -0.3715  0.3804
  187POPC  C21421488   5.791   2.205   3.463  0.5500 -0.1729  0.5024
  187POPC  H14R21489   5.754   2.258   3.552  0.1025 -2.7895  1.9912
  187POPC  H14S21490   5.864   2.263   3.403  0.2290 -0.8827 -0.6123
  187POPC  C21521491   5.843   2.074   3.531 -0.4447 -0.6924 -0.3021
  187POPC  H15R21492   5.891   2.012   3.453  3.3709  1.9901 -0.3560
  187POPC  H15S21493   5.752   2.025   3.573 -1.4199 -0.2329 -1.8201
  187POPC  C21621494   5.937   2.100   3.651 -0.0267 -0.2022  0.4477
  187POPC  H16R21495   5.884   2.166   3.723 -0.3438  2.2602 -1.8533
  187POPC  H16S21496   6.024   2.155   3.608 -1.3983  0.8979 -1.0684
  187POPC  C21721497   5.987   1.972   3.715  0.4764  0.4114 -0.9471
  187POPC  H17R21498   6.087   1.985   3.761  0.3986 -2.5139  0.2579
  187POPC  H17S21499   5.988   1.893   3.638  0.1340 -2.8511  2.1455
  187POPC  C21821500   5.898   1.913   3.827 -0.2863 -0.3170  1.0162
  187POPC  H18R21501   5.788   1.921   3.814 -0.2594 -1.5224 -0.1490
  187POPC  H18S21502   5.914   1.972   3.920 -0.6749  2.8109 -0.7258
  187POPC  H18T21503   5.930   1.809   3.848 -0.7619 -0.7537 -0.3019
  187POPC   C3321504   5.322   2.459   2.715 -0.4862 -0.4745  0.2396
  187POPC   H3X21505   5.279   2.357   2.716 -0.6473 -0.4073  1.2500
  187POPC   H3Y21506   5.255   2.527   2.772 -2.2064 -2.1193  0.2902
  187POPC   C3421507   5.454   2.460   2.792 -0.6327  0.4507 -0.3742
  187POPC   H4X21508   5.541   2.418   2.737 -0.1495  1.7355 -0.6303
  187POPC   H4Y21509   5.441   2.407   2.889  1.0379  1.4000  0.4397
  187POPC   C3521510   5.497   2.604   2.817 -0.2750 -0.2977 -0.0839
  187POPC   H5X21511   5.408   2.662   2.849 -0.7579 -0.8344 -0.4454
  187POPC   H5Y21512   5.519   2.646   2.716 -0.2355  0.3403  0.1873
  187POPC   C3621513   5.615   2.621   2.915  0.0271  0.2925 -0.0096
  187POPC   H6X21514   5.659   2.718   2.883  0.2516  0.1702 -0.0700
  187POPC   H6Y21515   5.695   2.545   2.910  0.0689  0.3110  0.3859
  187POPC   C3721516   5.582   2.616   3.063 -0.0907 -0.5550  0.2587
  187POPC   H7X21517   5.525   2.523   3.088 -0.0912  0.1421  3.3357
  187POPC   H7Y21518   5.506   2.695   3.084  0.8280  0.1257  1.1192
  187POPC   C3821519   5.704   2.639   3.146  0.1733  0.0405 -0.0433
  187POPC   H8X21520   5.762   2.721   3.099  0.9840 -1.7568 -2.4046
  187POPC   H8Y21521   5.777   2.555   3.141 -0.9217 -1.1362  2.0674
  187POPC   C3921522   5.675   2.669   3.291 -0.3293  0.3066 -0.4132
  187POPC   H9X21523   5.629   2.768   3.310  2.4395  1.3886  1.2601
  187POPC   H9Y21524   5.775   2.681   3.338 -0.0301  3.1853 -1.5813
  187POPC  C31021525   5.592   2.567   3.362  0.1427  0.6923  0.1639
  187POPC  H10X21526   5.637   2.466   3.372 -0.1952  0.5857  0.6749
  187POPC  H10Y21527   5.493   2.567   3.312  0.2142 -0.6754 -0.0092
  187POPC  C31121528   5.566   2.601   3.514 -0.2772 -0.4048 -0.5511
  187POPC  H11X21529   5.512   2.694   3.542  1.6223  0.3635  0.7723
  187POPC  H11Y21530   5.662   2.614   3.569 -0.6800  1.8952 -0.2719
  187POPC  C31221531   5.484   2.493   3.575  0.0783  0.2106 -0.0556
  187POPC  H12X21532   5.529   2.392   3.565 -0.9909 -0.2457 -0.4781
  187POPC  H12Y21533   5.390   2.500   3.516  0.4556  0.9392 -0.5854
  187POPC  C31321534   5.456   2.513   3.729  0.4151  0.4187 -0.2982
  187POPC  H13X21535   5.367   2.451   3.751  1.3317 -0.6537  0.5418
  187POPC  H13Y21536   5.428   2.618   3.750  0.2814 -0.0831  2.3790
  187POPC  C31421537   5.574   2.483   3.832 -0.3831 -0.2445 -0.1026
  187POPC  H14X21538   5.544   2.497   3.938 -2.6378  0.1260 -0.7239
  187POPC  H14Y21539   5.641   2.569   3.811 -0.6347  0.1706  0.7517
  187POPC  C31521540   5.639   2.351   3.807  0.6125 -0.2484  0.4085
  187POPC  H15X21541   5.720   2.348   3.731  1.2234 -1.2448  1.0754
  187POPC  H15Y21542   5.558   2.278   3.785  0.0291  0.3666  0.5007
  187POPC  C31621543   5.711   2.313   3.931 -0.4809 -0.1140  0.3788
  187POPC  H16X21544   5.641   2.321   4.017 -1.5721  1.9107 -0.6213
  187POPC  H16Y21545   5.793   2.387   3.946  0.6097 -1.1985 -0.0906
  187POPC  H16Z21546   5.755   2.211   3.930 -1.6847 -0.6628  0.9881
  188POPC     N21547   5.832   1.471   1.729 -0.0406 -0.1281  0.7670
  188POPC   C1221548   5.948   1.546   1.806 -0.2137 -0.3576 -0.8263
  188POPC  H12A21549   5.983   1.628   1.744 -1.3238  0.4241 -0.4370
  188POPC  H12B21550   6.024   1.476   1.838  0.0595  0.0947 -0.4788
  188POPC   C1321551   5.872   1.394   1.609 -0.1791  0.3724 -0.2209
  188POPC  H13A21552   5.792   1.329   1.577  0.6826 -1.8984  1.9356
  188POPC  H13B21553   5.897   1.459   1.527  3.1627 -1.5983 -0.9392
  188POPC  H13C21554   5.961   1.333   1.617  0.1284  0.8775  0.3262
  188POPC   C1421555   5.759   1.387   1.832  0.4691  0.0530 -0.5700
  188POPC  H14A21556   5.719   1.452   1.908 -1.3219  1.9563 -2.9342
  188POPC  H14B21557   5.672   1.345   1.784 -0.3730 -0.0304  0.9630
  188POPC  H14C21558   5.818   1.308   1.874  0.0401  0.6073  1.1411
  188POPC   C1521559   5.735   1.575   1.678  0.2367  0.7704 -0.1733
  188POPC  H15A21560   5.643   1.528   1.644  1.6303 -0.3286 -2.7917
  188POPC  H15B21561   5.769   1.630   1.591  0.4178  0.9038 -0.0179
  188POPC  H15C21562   5.716   1.650   1.753 -0.4253 -0.7684  1.2710
  188POPC   C1121563   5.912   1.616   1.941  0.9166  0.5243 -0.6373
  188POPC  H11A21564   6.006   1.652   1.987 -1.0992  1.5433  3.0683
  188POPC  H11B21565   5.867   1.540   2.008 -0.3619 -0.8862 -2.9692
  188POPC     P21566   5.867   1.860   1.867  0.0909 -0.1974  0.3355
  188POPC   O1321567   5.742   1.918   1.815  0.2356 -0.0368 -0.3898
  188POPC   O1421568   5.972   1.833   1.769  0.1035  0.2478 -0.5089
  188POPC   O1221569   5.822   1.724   1.936 -0.0568 -0.3310  0.3273
  188POPC   O1121570   5.923   1.945   1.990 -0.0490  0.1445 -0.1843
  188POPC    C121571   5.830   1.979   2.094  0.2786  0.3929 -0.4267
  188POPC    HA21572   5.763   1.895   2.120  0.4023  0.2455 -0.5827
  188POPC    HB21573   5.759   2.057   2.059 -0.8198 -0.6708 -0.6056
  188POPC    C221574   5.890   2.022   2.227  0.0431  0.1326  0.0664
  188POPC    HS21575   5.814   2.069   2.293 -0.1679 -2.1768  1.6078
  188POPC   O2121576   6.000   2.118   2.205  0.0929 -0.1734 -0.0663
  188POPC   C2121577   5.974   2.231   2.150 -0.5072 -0.0511 -0.5105
  188POPC   O2221578   5.872   2.270   2.096 -0.2470  0.6497 -0.1554
  188POPC   C2221579   6.110   2.312   2.149  0.1594 -0.3913 -0.8025
  188POPC   H2R21580   6.090   2.394   2.077 -1.9834 -1.4462 -1.4935
  188POPC   H2S21581   6.192   2.244   2.117  0.4419  0.2544 -1.4704
  188POPC    C321582   5.943   1.894   2.299  0.3425  0.0357  0.3238
  188POPC    HX21583   6.008   1.848   2.221 -1.6541 -2.6864  0.1276
  188POPC    HY21584   5.853   1.833   2.317  1.3339 -1.4818  0.3412
  188POPC   O3121585   6.009   1.916   2.426  0.1207 -0.1306  0.9279
  188POPC   C3121586   6.143   1.932   2.420  0.2798  0.4244  0.1785
  188POPC   O3221587   6.212   1.934   2.321 -1.3574  0.2013  0.5008
  188POPC   C3221588   6.190   1.954   2.560 -0.0967  0.6186  0.7956
  188POPC   H2X21589   6.138   2.046   2.594 -0.1947  0.8545  0.0077
  188POPC   H2Y21590   6.298   1.980   2.563  0.1120 -0.1498  0.1873
  188POPC   C2321591   6.149   2.363   2.290  0.1338  0.0862 -0.5779
  188POPC   H3R21592   6.246   2.417   2.284  1.1261 -1.6428 -0.7618
  188POPC   H3S21593   6.166   2.273   2.352  0.9398 -0.3354 -1.3779
  188POPC   C2421594   6.048   2.450   2.368  0.2709  0.1324  0.1867
  188POPC   H4R21595   5.976   2.388   2.425  0.1763 -0.5668 -0.6632
  188POPC   H4S21596   5.988   2.498   2.288 -2.8712 -2.9382  0.4688
  188POPC   C2521597   6.119   2.546   2.457 -0.4386  0.8517  0.0750
  188POPC   H5R21598   6.198   2.597   2.397 -1.5333  2.1130 -0.3476
  188POPC   H5S21599   6.167   2.495   2.543  0.7653 -0.7934 -1.4803
  188POPC   C2621600   6.018   2.650   2.513  0.1768 -0.3656  0.7709
  188POPC   H6R21601   5.928   2.599   2.552 -0.6680  0.8592  0.4706
  188POPC   H6S21602   5.992   2.729   2.439 -1.8479 -2.3238 -0.7625
  188POPC   C2721603   6.072   2.726   2.635  0.1107  0.2786 -0.0090
  188POPC   H7R21604   6.012   2.819   2.645 -2.9258 -1.7751  2.4820
  188POPC   H7S21605   6.181   2.745   2.622 -0.1792  1.2965 -1.1248
  188POPC   C2821606   6.046   2.660   2.772  1.1198  0.1329  0.1149
  188POPC   H8R21607   6.088   2.559   2.753  0.6993  0.1440 -0.9766
  188POPC   H8S21608   5.936   2.665   2.787  1.0834  0.3931 -0.2147
  188POPC   C2921609   6.129   2.715   2.883 -0.4593 -0.1360 -0.1045
  188POPC   H9121610   6.173   2.815   2.869  0.5251 -0.2719  1.6341
  188POPC  C21021611   6.195   2.643   2.977  0.3673 -0.1530  0.6670
  188POPC  H10121612   6.256   2.702   3.047  0.1398 -1.1598  1.7488
  188POPC  C21121613   6.179   2.500   3.003 -0.3155  0.2115  0.2397
  188POPC  H11R21614   6.226   2.436   2.926  0.8733  1.0972  0.1961
  188POPC  H11S21615   6.073   2.470   3.022 -0.4008 -0.2466 -0.9178
  188POPC  C21221616   6.242   2.473   3.141  0.3355 -0.9286 -0.1872
  188POPC  H12R21617   6.352   2.488   3.150 -0.0641  3.7168 -1.0488
  188POPC  H12S21618   6.233   2.363   3.157  0.8477 -0.8449  0.7755
  188POPC  C21321619   6.173   2.553   3.252  0.0494 -0.4345 -0.4645
  188POPC  H13R21620   6.069   2.514   3.252  0.6081 -2.0419  1.4204
  188POPC  H13S21621   6.156   2.661   3.230 -1.0595 -0.4441  0.2634
  188POPC  C21421622   6.234   2.525   3.393  0.0686  0.7249  0.0959
  188POPC  H14R21623   6.324   2.588   3.400  1.9456 -1.7132 -0.5584
  188POPC  H14S21624   6.270   2.420   3.382  0.1669  0.6350  1.1345
  188POPC  C21521625   6.143   2.531   3.518  0.2418  0.1491 -0.3885
  188POPC  H15R21626   6.197   2.534   3.615 -0.8437  0.2682  0.2286
  188POPC  H15S21627   6.085   2.436   3.518 -1.1182  0.9545 -0.7303
  188POPC  C21621628   6.047   2.653   3.516 -0.1154 -0.3163  0.2003
  188POPC  H16R21629   5.983   2.633   3.427 -2.6020 -1.2727  2.0702
  188POPC  H16S21630   6.098   2.750   3.501 -1.8157  1.0061  2.3460
  188POPC  C21721631   5.965   2.667   3.646  0.5470  0.2492  0.2366
  188POPC  H17R21632   6.040   2.672   3.728  0.3950 -1.7802  0.5532
  188POPC  H17S21633   5.895   2.584   3.668 -1.3122  1.7202  0.1317
  188POPC  C21821634   5.890   2.797   3.642 -0.2126  0.2878 -0.4647
  188POPC  H18R21635   5.827   2.795   3.551  0.1414 -2.3533 -0.7316
  188POPC  H18S21636   5.957   2.885   3.656  3.1043 -2.3290  1.5079
  188POPC  H18T21637   5.822   2.804   3.730 -0.7131 -0.6009 -0.7714
  188POPC   C3321638   6.164   1.830   2.659  0.5138 -0.8872 -0.4059
  188POPC   H3X21639   6.191   1.739   2.602 -0.7884  0.3820 -3.2377
  188POPC   H3Y21640   6.056   1.821   2.685  0.5502  0.3142  0.2576
  188POPC   C3421641   6.259   1.838   2.776 -0.2223 -0.1300  0.2221
  188POPC   H4X21642   6.243   1.931   2.834 -0.1611 -0.4077  0.6904
  188POPC   H4Y21643   6.366   1.829   2.747  0.0413 -2.1915  1.5789
  188POPC   C3521644   6.233   1.724   2.879  0.3226  0.1654  0.3467
  188POPC   H5X21645   6.223   1.630   2.820 -0.0978  0.3630  0.0979
  188POPC   H5Y21646   6.133   1.733   2.925 -0.8310 -2.3405 -1.4594
  188POPC   C3621647   6.341   1.711   2.997  0.2051 -0.6708 -0.2738
  188POPC   H6X21648   6.311   1.800   3.056 -0.5786 -1.2495  0.2224
  188POPC   H6Y21649   6.440   1.732   2.953  1.3585 -3.2398  0.8644
  188POPC   C3721650   6.340   1.582   3.075 -0.1080  0.1918 -0.4290
  188POPC   H7X21651   6.377   1.509   2.999 -0.2005  0.4584 -0.7311
  188POPC   H7Y21652   6.241   1.549   3.113 -2.0847  3.4699 -2.2505
  188POPC   C3821653   6.437   1.588   3.187 -0.4248 -0.6608 -0.2381
  188POPC   H8X21654   6.397   1.663   3.259  1.3821  1.3269 -1.1837
  188POPC   H8Y21655   6.539   1.621   3.159 -0.7827  1.1777  0.4592
  188POPC   C3921656   6.437   1.456   3.265 -0.6563  0.8005 -0.3789
  188POPC   H9X21657   6.442   1.367   3.199 -1.9370  0.3131  0.1364
  188POPC   H9Y21658   6.342   1.438   3.320  0.4224  0.4160  1.4377
  188POPC  C31021659   6.556   1.444   3.367  0.0826  0.1736 -0.8914
  188POPC  H10X21660   6.651   1.483   3.324  0.1815  1.1875  0.1742
  188POPC  H10Y21661   6.568   1.336   3.388  0.6267  0.1244 -1.4451
  188POPC  C31121662   6.524   1.536   3.489  0.0712 -0.0571 -0.3575
  188POPC  H11X21663   6.419   1.522   3.523  0.1933  0.8315  0.4204
  188POPC  H11Y21664   6.524   1.638   3.446  1.3345 -0.5332 -1.5570
  188POPC  C31221665   6.624   1.518   3.594 -0.7578 -0.1840 -0.0408
  188POPC  H12X21666   6.726   1.526   3.551 -0.6987 -0.4909  0.0431
  188POPC  H12Y21667   6.611   1.415   3.633  0.9827 -0.5548 -0.3356
  188POPC  C31321668   6.610   1.625   3.705  0.0171  0.4076 -0.0392
  188POPC  H13X21669   6.507   1.664   3.714 -0.6210 -0.9587 -1.0191
  188POPC  H13Y21670   6.665   1.715   3.669 -0.2382  0.8934  0.7740
  188POPC  C31421671   6.663   1.579   3.846  0.3538 -0.2427  0.1801
  188POPC  H14X21672   6.771   1.555   3.834  0.9203  1.1468  2.0632
  188POPC  H14Y21673   6.612   1.490   3.889  0.0933  0.8745  2.3085
  188POPC  C31521674   6.666   1.696   3.941  0.6071 -0.2047 -0.4959
  188POPC  H15X21675   6.565   1.744   3.939 -0.1800 -1.7943 -2.2841
  188POPC  H15Y21676   6.746   1.767   3.911 -0.3493  0.6301 -1.1525
  188POPC  C31621677   6.703   1.659   4.088  0.1141 -0.3677  0.3440
  188POPC  H16X21678   6.629   1.585   4.126  1.2547 -1.8581 -0.2576
  188POPC  H16Y21679   6.701   1.750   4.152 -0.9260  1.4235 -2.0512
  188POPC  H16Z21680   6.803   1.615   4.105 -0.5076 -1.0828  2.4341
  189SAPI   C1221681   0.714   4.380   6.090  0.1158  0.2183  0.3855
  189SAPI    H221682   0.647   4.450   6.144 -1.4407 -2.4538  2.1648
  189SAPI    O221683   0.807   4.325   6.192  0.0753 -0.4513 -0.1638
  189SAPI   HO221684   0.788   4.387   6.264 -0.5803  3.5069 -3.3749
  189SAPI   C1321685   0.639   4.268   6.021 -0.4501  0.7757 -0.2560
  189SAPI    H321686   0.586   4.308   5.932  1.3450 -1.6093 -2.5810
  189SAPI    O321687   0.550   4.201   6.111  1.4248 -0.0209 -0.5699
  189SAPI   HO321688   0.605   4.148   6.169  0.9591 -0.2867 -0.3639
  189SAPI   C1421689   0.737   4.164   5.965  0.3919 -0.6721  0.2788
  189SAPI    H421690   0.779   4.115   6.055 -0.7011  1.6151  2.1543
  189SAPI    O421691   0.675   4.055   5.886 -0.0890 -0.0751 -0.2240
  189SAPI   HO421692   0.592   4.027   5.924  1.1720 -1.4947  1.6835
  189SAPI   C1521693   0.847   4.223   5.881 -0.9642 -0.4290  0.4867
  189SAPI    H521694   0.817   4.237   5.775 -0.9250  0.9025  0.6286
  189SAPI    O521695   0.967   4.147   5.879 -0.0874 -0.8458 -0.1683
  189SAPI   HO521696   0.946   4.079   5.814 -0.1555  0.2865 -1.3744
  189SAPI   C1621697   0.884   4.382   5.905 -0.4812  1.1854 -1.0966
  189SAPI    H621698   0.982   4.370   5.957 -1.4340 -0.0517  0.4863
  189SAPI    O621699   0.912   4.441   5.778  0.4291  0.2326  0.6970
  189SAPI   HO621700   0.985   4.503   5.785  0.6504  0.2026 -0.9568
  189SAPI   C1121701   0.795   4.462   5.983 -0.2550 -0.8955  0.2788
  189SAPI    H121702   0.712   4.498   5.919 -1.3691 -3.1322  0.4018
  189SAPI     P21703   0.829   4.731   6.017 -0.1223  0.3074  0.0669
  189SAPI   O1321704   0.895   4.808   6.127  0.2468  0.2207 -0.6975
  189SAPI   O1421705   0.685   4.736   5.998  0.4893  0.4251 -0.0620
  189SAPI   O1221706   0.866   4.573   6.047  0.1687 -0.1551  0.2506
  189SAPI   O1121707   0.905   4.769   5.881 -0.2312 -0.4136  0.2795
  189SAPI    C121708   0.822   4.740   5.762  0.0720 -0.0640  0.6960
  189SAPI    HA21709   0.756   4.652   5.778 -2.6143  1.7981  0.6123
  189SAPI    HB21710   0.752   4.825   5.747  0.3239 -0.2178 -1.6612
  189SAPI    C221711   0.895   4.732   5.623 -0.5320 -1.0555  0.4483
  189SAPI    HS21712   0.970   4.650   5.626  0.4072 -0.2135  0.4579
  189SAPI   O2121713   0.964   4.862   5.612 -0.1295 -0.0398  0.0028
  189SAPI   C2121714   1.091   4.871   5.597 -0.3010 -0.1067  1.2256
  189SAPI   O2221715   1.164   4.769   5.576 -0.6945 -0.0457 -0.0615
  189SAPI   C2221716   1.150   5.011   5.620  0.2467 -0.0949 -0.2727
  189SAPI   H2R21717   1.067   5.083   5.636  0.9478  0.3759  1.6278
  189SAPI   H2S21718   1.206   4.998   5.716 -0.3982 -4.1389 -0.2781
  189SAPI    C321719   0.808   4.702   5.491  0.2996  0.2695 -0.5493
  189SAPI    HX21720   0.730   4.780   5.497 -2.5708 -2.4073 -0.1863
  189SAPI    HY21721   0.752   4.608   5.512 -1.5856  1.0684 -1.7581
  189SAPI   O3121722   0.872   4.696   5.357 -0.0551  0.2860 -0.1370
  189SAPI   C3121723   0.938   4.583   5.337  0.0936  1.1037 -0.2636
  189SAPI   O3221724   0.942   4.488   5.417 -0.3882  0.4069 -0.0754
  189SAPI   C3221725   1.015   4.605   5.210  0.5790  0.6388 -0.1696
  189SAPI   H2X21726   1.086   4.690   5.222  1.6757 -0.0993 -1.2919
  189SAPI   H2Y21727   0.948   4.628   5.124 -1.2377 -1.4920  0.5767
  189SAPI   C2321728   1.232   5.069   5.499 -0.0668 -0.5209 -0.5734
  189SAPI   H3R21729   1.243   5.173   5.536 -2.2452 -1.0736  1.9862
  189SAPI   H3S21730   1.169   5.077   5.408  0.1565  2.4024 -0.5541
  189SAPI   C2421731   1.370   5.007   5.476 -0.6843 -0.4109  0.2542
  189SAPI   H4R21732   1.432   5.014   5.568  1.5140  1.4724 -1.2528
  189SAPI   H4S21733   1.423   5.083   5.415 -0.3984 -1.0508 -0.3042
  189SAPI   C2521734   1.396   4.877   5.417 -0.0293  0.1318  0.8810
  189SAPI   H5R21735   1.397   4.789   5.483 -0.2273 -0.4731  0.0895
  189SAPI   C2621736   1.412   4.862   5.280  0.3710 -0.6341 -0.0767
  189SAPI   H6R21737   1.436   4.762   5.240  2.8325 -0.1987  0.1405
  189SAPI   C2721738   1.404   4.978   5.179 -0.0204  0.3473  0.1177
  189SAPI   H7R21739   1.506   4.995   5.138  1.0601 -0.4840  2.3300
  189SAPI   H7S21740   1.360   5.070   5.224  0.8520 -0.5252  2.9480
  189SAPI   C2821741   1.301   4.926   5.073 -0.3245 -0.0521  0.3155
  189SAPI   H8R21742   1.216   4.865   5.107 -1.9296  2.2542  0.6367
  189SAPI   C2921743   1.318   4.932   4.941 -0.1819 -0.9665  0.0453
  189SAPI   H9R21744   1.230   4.909   4.879 -1.1393 -1.2552  1.4757
  189SAPI  C21021745   1.445   4.996   4.877  0.0001  0.3251  0.0454
  189SAPI  H10R21746   1.528   4.928   4.905  1.3188  1.8032 -0.1182
  189SAPI  H10S21747   1.473   5.093   4.923  0.2919  0.2142  0.1076
  189SAPI  C21121748   1.435   5.018   4.734  0.5782 -0.7822 -0.4777
  189SAPI  H11R21749   1.410   4.929   4.674 -0.2404 -1.3026  0.6060
  189SAPI  C21221750   1.457   5.136   4.667  0.1397  0.5022  0.1147
  189SAPI  H12R21751   1.442   5.129   4.559 -1.5000 -1.7663  0.4099
  189SAPI  C21321752   1.495   5.272   4.721 -0.3039 -0.4286 -0.1025
  189SAPI  H13R21753   1.558   5.264   4.813 -3.8848 -0.9257  2.5074
  189SAPI  H13S21754   1.421   5.326   4.784  2.3794  2.2000  1.1019
  189SAPI  C21421755   1.557   5.365   4.611 -0.4081  0.1491  0.4315
  189SAPI  H14R21756   1.667   5.366   4.606 -0.3051 -0.5836  1.9202
  189SAPI  C21521757   1.490   5.416   4.507 -0.2632 -0.0552 -0.8517
  189SAPI  H15R21758   1.545   5.485   4.440  2.3801 -0.3155  0.8984
  189SAPI  C21621759   1.340   5.426   4.488 -0.1394  1.0909  0.2717
  189SAPI  H16R21760   1.285   5.347   4.543  0.6176  1.9027  2.2902
  189SAPI  H16S21761   1.309   5.412   4.382 -1.6298 -0.1965  0.8338
  189SAPI  C21721762   1.285   5.568   4.524 -0.0786  0.4197 -0.2454
  189SAPI  H17R21763   1.189   5.569   4.469  1.1750  1.7621 -2.6266
  189SAPI  H17S21764   1.343   5.647   4.472 -1.7868  0.1011 -2.8227
  189SAPI  C21821765   1.286   5.605   4.674 -0.2612  0.8171 -0.3478
  189SAPI  H18R21766   1.390   5.593   4.709 -0.3485  0.7761 -0.0989
  189SAPI  H18S21767   1.225   5.530   4.730  3.2363 -0.4711  2.0601
  189SAPI  C21921768   1.239   5.747   4.701  0.1821  0.3296 -0.1453
  189SAPI  H19R21769   1.153   5.761   4.632  1.5822 -2.0590 -2.5864
  189SAPI  H19S21770   1.318   5.801   4.645  1.0635 -0.3953  0.3569
  189SAPI  C22021771   1.223   5.784   4.849  0.7969  0.3413 -0.4445
  189SAPI  H20R21772   1.204   5.893   4.858  0.0023  0.3972 -2.3590
  189SAPI  H20S21773   1.302   5.738   4.912 -0.5453 -1.3991  0.0662
  189SAPI  H20T21774   1.126   5.739   4.880  1.1192 -0.7801 -1.0071
  189SAPI   C3321775   1.100   4.483   5.171  1.0868 -0.7296  0.0354
  189SAPI   H3X21776   1.035   4.406   5.124 -1.0614  0.8765  0.2025
  189SAPI   H3Y21777   1.154   4.438   5.257  0.0015 -1.1288  0.5338
  189SAPI   C3421778   1.200   4.519   5.063 -0.3840  0.1873  0.2140
  189SAPI   H4X21779   1.290   4.454   5.071  0.0823  0.8795  0.6988
  189SAPI   H4Y21780   1.235   4.623   5.078 -1.2464  0.6511 -0.8758
  189SAPI   C3521781   1.140   4.517   4.916  0.1926  0.2798  0.0676
  189SAPI   H5X21782   1.058   4.591   4.909 -0.7187 -0.6308  0.7814
  189SAPI   H5Y21783   1.085   4.422   4.895  0.2706  0.1395  0.4780
  189SAPI   C3621784   1.250   4.556   4.814  0.4781 -0.1800 -0.6514
  189SAPI   H6X21785   1.330   4.479   4.811 -0.5252 -1.2283 -1.4398
  189SAPI   H6Y21786   1.301   4.647   4.853  1.8239 -1.4562  0.6862
  189SAPI   C3721787   1.198   4.575   4.664  0.0114  0.1810 -0.9812
  189SAPI   H7X21788   1.110   4.643   4.668 -1.4731 -1.6446 -1.3763
  189SAPI   H7Y21789   1.168   4.474   4.628 -2.2927  0.7404 -0.8175
  189SAPI   C3821790   1.302   4.640   4.573 -0.0900  0.0766  0.3258
  189SAPI   H8X21791   1.318   4.747   4.599 -2.1721  0.9337 -1.6013
  189SAPI   H8Y21792   1.256   4.639   4.472 -0.8607  0.8092  0.6496
  189SAPI   C3921793   1.432   4.565   4.580 -0.9351  0.7790  0.4467
  189SAPI   H9X21794   1.401   4.458   4.581  0.0841  0.4438 -1.0000
  189SAPI   H9Y21795   1.489   4.585   4.673  1.2066  1.3808 -0.9177
  189SAPI  C31021796   1.533   4.584   4.461 -0.1123 -0.0620  0.0970
  189SAPI  H10X21797   1.475   4.565   4.368 -0.3588  0.2146  0.1955
  189SAPI  H10Y21798   1.617   4.511   4.475  0.3260  0.5055  0.4646
  189SAPI  C31121799   1.599   4.728   4.471  1.3256  0.1688 -0.4620
  189SAPI  H11X21800   1.631   4.764   4.571  1.3449 -1.4714  0.1497
  189SAPI  H11Y21801   1.515   4.797   4.453  1.2241  0.3412  0.6221
  189SAPI  C31221802   1.716   4.749   4.374  0.1290 -0.2870  0.0446
  189SAPI  H12X21803   1.688   4.692   4.283 -3.1712  0.4091  0.4985
  189SAPI  H12Y21804   1.807   4.701   4.416 -0.0171  0.4828  1.2796
  189SAPI  C31321805   1.751   4.891   4.330 -0.2168  0.1956 -0.5877
  189SAPI  H13X21806   1.837   4.919   4.393  0.5614 -1.5264 -0.8363
  189SAPI  H13Y21807   1.670   4.965   4.347 -2.5600 -1.0318 -4.8561
  189SAPI  C31421808   1.785   4.896   4.179  0.1190 -0.3128  0.1299
  189SAPI  H14X21809   1.836   4.992   4.157 -1.9508  0.7902 -0.1411
  189SAPI  H14Y21810   1.695   4.900   4.113 -1.2440  0.8734  1.9640
  189SAPI  C31521811   1.897   4.793   4.135  0.5952 -0.0015 -0.5784
  189SAPI  H15X21812   1.864   4.688   4.146 -1.6717  0.3256 -3.0093
  189SAPI  H15Y21813   1.981   4.821   4.202 -0.2261  1.9512 -0.2812
  189SAPI  C31621814   1.929   4.806   3.985 -0.0380 -0.3783 -1.0487
  189SAPI  H16X21815   1.993   4.897   3.989 -1.3279  0.5482 -0.9943
  189SAPI  H16Y21816   1.838   4.831   3.926 -1.6750 -0.1931  1.4286
  189SAPI  C31721817   2.009   4.687   3.930  0.1883 -0.0395 -1.1206
  189SAPI  H17X21818   1.944   4.596   3.930  0.1017 -0.0013 -2.5605
  189SAPI  H17Y21819   2.098   4.669   3.994 -0.4968 -1.2871 -0.4838
  189SAPI  C31821820   2.054   4.696   3.782  1.0054  0.5008 -0.1645
  189SAPI  H18X21821   2.126   4.613   3.764  2.1612  1.5614 -0.6569
  189SAPI  H18Y21822   2.112   4.790   3.765 -0.5642  1.3638 -0.8821
  189SAPI  H18Z21823   1.971   4.688   3.709  2.1376  1.6846 -1.6681
  190SAPI   C1221824   1.772   1.007   6.641  0.0812  0.1704 -0.2904
  190SAPI    H221825   1.762   1.093   6.573  1.1112 -0.5907 -1.4334
  190SAPI    O221826   1.713   0.885   6.589 -0.1739 -0.0642  0.8029
  190SAPI   HO221827   1.621   0.907   6.574  0.5669  1.3933 -2.5567
  190SAPI   C1321828   1.920   0.990   6.678 -0.1696  0.1165 -0.2219
  190SAPI    H321829   1.952   1.077   6.739 -2.7979 -0.0398  1.5272
  190SAPI    O321830   2.001   0.971   6.561 -0.6403 -0.4741 -0.8661
  190SAPI   HO321831   1.983   0.893   6.508 -1.1738 -1.2652  0.4290
  190SAPI   C1421832   1.941   0.881   6.782 -0.3313 -0.0734 -0.1240
  190SAPI    H421833   1.903   0.788   6.735 -1.0940  0.6619 -0.9913
  190SAPI    O421834   2.079   0.867   6.819 -0.6048 -0.1932  0.2455
  190SAPI   HO421835   2.081   0.802   6.890  3.8868  0.8284  1.3340
  190SAPI   C1521836   1.857   0.899   6.907 -0.4489  0.0993  0.4115
  190SAPI    H521837   1.896   0.986   6.964  2.4544 -1.7377  1.4749
  190SAPI    O521838   1.872   0.785   6.992  0.6025  0.2248  0.5806
  190SAPI   HO521839   1.885   0.823   7.079  0.2196 -1.1322  1.2679
  190SAPI   C1621840   1.715   0.940   6.881  0.5621 -0.4499  0.5533
  190SAPI    H621841   1.656   0.850   6.852 -0.2566  0.4744 -0.7749
  190SAPI    O621842   1.647   0.980   7.006  0.1733  0.0902  0.3389
  190SAPI   HO621843   1.554   0.956   6.996  0.3468 -0.1357 -0.8567
  190SAPI   C1121844   1.701   1.039   6.767 -0.3525 -0.7246 -0.2777
  190SAPI    H121845   1.740   1.134   6.809  1.7707  0.0617 -3.5983
  190SAPI     P21846   1.474   1.192   6.735 -0.2371 -0.1070 -0.0026
  190SAPI   O1321847   1.533   1.293   6.820 -0.5083 -0.0717 -0.1160
  190SAPI   O1421848   1.335   1.167   6.766  0.0048 -0.1967  0.6688
  190SAPI   O1221849   1.561   1.048   6.730 -0.2861 -0.5563 -0.0435
  190SAPI   O1121850   1.488   1.232   6.583 -0.0688 -0.0188 -0.5114
  190SAPI    C121851   1.396   1.170   6.490 -0.1797  0.4834 -0.0707
  190SAPI    HA21852   1.388   1.060   6.505  0.0743  0.6736  1.7276
  190SAPI    HB21853   1.291   1.190   6.519 -0.3201  1.6840 -1.2945
  190SAPI    C221854   1.426   1.218   6.347 -0.2421  0.0320 -0.7006
  190SAPI    HS21855   1.361   1.159   6.278 -1.0688  0.1508 -0.0308
  190SAPI   O2121856   1.569   1.215   6.321 -0.2046 -0.5726  0.1978
  190SAPI   C2121857   1.613   1.090   6.308  0.9340  0.2191  0.0274
  190SAPI   O2221858   1.552   0.987   6.339  0.2029 -0.8126 -0.0732
  190SAPI   C2221859   1.757   1.086   6.260  0.1859 -0.3348 -0.4265
  190SAPI   H2R21860   1.756   1.132   6.159 -3.8840  0.4138 -0.2065
  190SAPI   H2S21861   1.819   1.149   6.328 -0.1150 -1.7774  1.2654
  190SAPI    C321862   1.378   1.365   6.344 -0.8445  0.3108 -0.7762
  190SAPI    HX21863   1.458   1.423   6.395 -1.1203  2.4932 -2.6766
  190SAPI    HY21864   1.285   1.381   6.402 -1.4180  3.8503 -2.4394
  190SAPI   O3121865   1.367   1.408   6.207 -0.1320  0.0165  0.2310
  190SAPI   C3121866   1.242   1.411   6.152  0.0747 -0.0333 -0.8267
  190SAPI   O3221867   1.138   1.364   6.197  0.1653  0.1618 -0.6693
  190SAPI   C3221868   1.246   1.499   6.028 -0.1114 -0.1152  0.0536
  190SAPI   H2X21869   1.331   1.458   5.969  2.2975  2.2163  1.6899
  190SAPI   H2Y21870   1.274   1.601   6.060 -1.8874  0.4875 -0.2052
  190SAPI   C2321871   1.810   0.938   6.251  0.0388 -0.0850 -0.4546
  190SAPI   H3R21872   1.759   0.890   6.337  0.7576 -0.9682 -0.5119
  190SAPI   H3S21873   1.919   0.924   6.265 -0.0937 -0.6995 -0.0068
  190SAPI   C2421874   1.765   0.862   6.128 -0.3913  1.1629  0.5620
  190SAPI   H4R21875   1.658   0.879   6.101  0.5255  2.5097 -2.7866
  190SAPI   H4S21876   1.772   0.755   6.158 -0.2505  1.3484  1.2085
  190SAPI   C2521877   1.860   0.903   6.015 -0.5393 -0.2090 -0.3288
  190SAPI   H5R21878   1.963   0.936   6.039  0.1046 -1.7857 -0.8017
  190SAPI   C2621879   1.827   0.900   5.886  0.5567  0.1061 -0.8631
  190SAPI   H6R21880   1.911   0.913   5.816  0.8020 -0.8298 -0.7549
  190SAPI   C2721881   1.690   0.858   5.833 -0.2112 -0.0355  0.0854
  190SAPI   H7R21882   1.690   0.898   5.729 -0.2780 -0.8093 -0.2140
  190SAPI   H7S21883   1.612   0.910   5.893  0.1884 -0.3194  0.8690
  190SAPI   C2821884   1.691   0.707   5.838  0.6399  0.1722 -0.0671
  190SAPI   H8R21885   1.684   0.659   5.936  2.9136 -0.2076 -0.0416
  190SAPI   C2921886   1.674   0.629   5.728 -0.1499 -0.2168  0.1006
  190SAPI   H9R21887   1.679   0.521   5.747  1.1717 -0.5675 -1.8860
  190SAPI  C21021888   1.672   0.665   5.578  0.0271 -0.5632 -0.7371
  190SAPI  H10R21889   1.774   0.704   5.559  1.0650 -1.3845  2.4267
  190SAPI  H10S21890   1.592   0.737   5.552  0.1368  1.1048  2.9560
  190SAPI  C21121891   1.673   0.538   5.490 -0.0887 -0.6697  0.4544
  190SAPI  H11R21892   1.771   0.515   5.444 -0.6404 -1.3162 -0.4324
  190SAPI  C21221893   1.565   0.461   5.459  0.0829  0.8300  0.5287
  190SAPI  H12R21894   1.582   0.382   5.385  2.4516  0.9679  0.8465
  190SAPI  C21321895   1.427   0.478   5.505  0.2597 -0.5130 -0.6155
  190SAPI  H13R21896   1.354   0.472   5.421 -0.3457  0.7994 -0.2088
  190SAPI  H13S21897   1.411   0.579   5.546  0.1676 -1.2436  1.2335
  190SAPI  C21421898   1.379   0.378   5.614  0.3626  0.4576 -0.5426
  190SAPI  H14R21899   1.382   0.426   5.713 -0.6555 -0.0523 -0.2509
  190SAPI  C21521900   1.319   0.257   5.599  0.4392  0.5868  0.1951
  190SAPI  H15R21901   1.292   0.186   5.678  1.6236 -0.9330 -0.7051
  190SAPI  C21621902   1.303   0.204   5.459  0.6122 -1.2316 -0.2166
  190SAPI  H16R21903   1.395   0.217   5.398 -0.7856  0.7637 -2.0755
  190SAPI  H16S21904   1.228   0.264   5.403  2.6758 -0.3347 -2.1592
  190SAPI  C21721905   1.283   0.056   5.441 -0.1899 -0.5355 -0.2211
  190SAPI  H17R21906   1.214   0.019   5.521  0.5494  0.2462  0.8147
  190SAPI  H17S21907   1.379   0.007   5.465  0.3280  1.4976  2.3645
  190SAPI  C21821908   1.236   0.026   5.301 -0.9722  0.6286 -0.6347
  190SAPI  H18R21909   1.319   0.042   5.229  0.0347 -1.3175  0.0001
  190SAPI  H18S21910   1.150   0.093   5.285  0.3044  2.1960 -1.1720
  190SAPI  C21921911   1.194  -0.125   5.272 -0.1810 -0.2133  0.0336
  190SAPI  H19R21912   1.102  -0.153   5.328  0.1055 -2.2939 -0.4550
  190SAPI  H19S21913   1.265  -0.201   5.310 -1.6711 -1.2044  0.9479
  190SAPI  C22021914   1.168  -0.141   5.126 -0.1629  1.2929  0.6721
  190SAPI  H20R21915   1.143  -0.247   5.101 -1.1999  1.8948 -0.9933
  190SAPI  H20S21916   1.257  -0.121   5.063 -0.0727 -1.7399 -0.3675
  190SAPI  H20T21917   1.095  -0.066   5.088 -0.2047  0.7682 -0.3258
  190SAPI   C3321918   1.122   1.507   5.937  0.4180  0.3985  0.2897
  190SAPI   H3X21919   1.038   1.568   5.976  1.6386  2.8518 -0.7541
  190SAPI   H3Y21920   1.080   1.407   5.911  1.4014  0.1017 -0.2275
  190SAPI   C3421921   1.167   1.568   5.800 -0.3971  0.2894  0.3774
  190SAPI   H4X21922   1.256   1.508   5.773  1.4330  1.2869  3.6014
  190SAPI   H4Y21923   1.211   1.670   5.810 -3.0286  1.8157 -2.1238
  190SAPI   C3521924   1.064   1.563   5.691 -0.5367  0.7906  0.1409
  190SAPI   H5X21925   0.963   1.591   5.726 -1.5383 -0.1970 -1.7874
  190SAPI   H5Y21926   1.055   1.454   5.670  1.4512  0.5250  0.4115
  190SAPI   C3621927   1.111   1.620   5.558  0.0926  0.0895  0.0860
  190SAPI   H6X21928   1.202   1.571   5.516 -1.1732 -3.6514  1.3446
  190SAPI   H6Y21929   1.126   1.730   5.569 -1.9552  0.3809  0.2667
  190SAPI   C3721930   1.001   1.609   5.459  0.3373 -0.5412 -0.8841
  190SAPI   H7X21931   0.912   1.669   5.489  0.7101 -0.5805  0.3132
  190SAPI   H7Y21932   0.966   1.505   5.447 -1.1087 -0.1913  0.0950
  190SAPI   C3821933   1.047   1.664   5.325  0.5243  0.2071  0.6052
  190SAPI   H8X21934   1.139   1.611   5.292  1.1086  1.1478  0.6776
  190SAPI   H8Y21935   1.075   1.771   5.327 -0.9154  0.6216  0.0241
  190SAPI   C3921936   0.941   1.640   5.220 -0.6023 -0.5186  0.4774
  190SAPI   H9X21937   0.846   1.673   5.266  0.3313 -2.1153  3.8603
  190SAPI   H9Y21938   0.928   1.532   5.196 -0.9544 -0.5614  0.8541
  190SAPI  C31021939   0.972   1.717   5.089  0.7146 -0.5183  0.1461
  190SAPI  H10X21940   1.082   1.731   5.076  0.3978  2.0723 -0.3173
  190SAPI  H10Y21941   0.920   1.815   5.092  1.9044  0.1326  0.0013
  190SAPI  C31121942   0.918   1.637   4.967  0.0751 -0.4121  0.8847
  190SAPI  H11X21943   0.811   1.609   4.979  0.1224 -2.6018 -2.4526
  190SAPI  H11Y21944   0.970   1.539   4.970 -0.0386 -0.4567  1.5660
  190SAPI  C31221945   0.940   1.702   4.832  0.4727  0.6583  0.3979
  190SAPI  H12X21946   1.044   1.738   4.820  0.2115  1.1864 -0.4061
  190SAPI  H12Y21947   0.878   1.795   4.834 -0.8530 -0.1652 -0.6329
  190SAPI  C31321948   0.904   1.613   4.708 -0.1561 -0.2966 -0.6559
  190SAPI  H13X21949   0.804   1.567   4.719 -0.6548  0.6458 -1.1597
  190SAPI  H13Y21950   0.975   1.527   4.707 -0.7013 -0.8405  1.5606
  190SAPI  C31421951   0.918   1.695   4.577  0.0271  0.3332  0.0842
  190SAPI  H14X21952   0.907   1.625   4.490  1.8230 -1.7397  1.3991
  190SAPI  H14Y21953   1.018   1.743   4.580  0.5144 -0.6403  0.0469
  190SAPI  C31521954   0.827   1.813   4.564 -0.1882 -0.8286  0.0027
  190SAPI  H15X21955   0.853   1.887   4.642  0.4260  0.8967 -1.7579
  190SAPI  H15Y21956   0.722   1.783   4.584 -0.1031 -0.6608  0.7090
  190SAPI  C31621957   0.839   1.893   4.436  0.2674  0.4068 -0.2212
  190SAPI  H16X21958   0.763   1.855   4.364 -3.2539  4.5815  0.8384
  190SAPI  H16Y21959   0.937   1.880   4.386  0.5304  2.1897 -0.2348
  190SAPI  C31721960   0.797   2.042   4.443  0.1361 -0.3849  0.1440
  190SAPI  H17X21961   0.880   2.085   4.504 -0.4068  0.0282  0.6042
  190SAPI  H17Y21962   0.697   2.050   4.492  0.3026  1.5819  0.2355
  190SAPI  C31821963   0.786   2.108   4.305 -0.7845  0.9509 -0.4538
  190SAPI  H18X21964   0.722   2.041   4.245  0.4312 -3.0372  2.3152
  190SAPI  H18Y21965   0.883   2.121   4.251 -0.1892 -1.9318 -0.2415
  190SAPI  H18Z21966   0.749   2.213   4.309  0.0943  1.3140 -1.3734
  191SAPI   C1221967   4.300   1.861   1.976  1.1761 -0.1291  0.2812
  191SAPI    H221968   4.331   1.808   2.069 -0.6329  1.7379  2.0804
  191SAPI    O221969   4.182   1.928   2.013 -0.2218 -0.0734  0.6942
  191SAPI   HO221970   4.113   1.863   2.029  1.0871 -1.8379 -0.4535
  191SAPI   C1321971   4.404   1.957   1.923  0.2498 -0.0465  0.3663
  191SAPI    H321972   4.494   1.897   1.899  0.5658  0.8234 -0.6680
  191SAPI    O321973   4.428   2.059   2.025 -0.3146  0.0633 -0.1355
  191SAPI   HO321974   4.520   2.082   2.032 -1.0983  4.3290 -1.2696
  191SAPI   C1421975   4.357   2.038   1.805 -0.5384  0.3751  1.3682
  191SAPI    H421976   4.282   2.109   1.847 -0.6921 -0.5633  2.7620
  191SAPI    O421977   4.462   2.108   1.746 -0.0232 -0.3380  0.9138
  191SAPI   HO421978   4.465   2.200   1.773 -2.8246  0.2105 -0.2531
  191SAPI   C1521979   4.286   1.961   1.692 -1.0031 -0.0174 -0.2923
  191SAPI    H521980   4.367   1.928   1.624 -0.1560  1.2899  0.0392
  191SAPI    O521981   4.200   2.042   1.612  0.1891 -0.0181 -0.6531
  191SAPI   HO521982   4.139   2.083   1.673 -0.1948 -0.4128 -0.7668
  191SAPI   C1621983   4.231   1.834   1.733 -0.2198  0.0821  0.4201
  191SAPI    H621984   4.126   1.864   1.756  0.0063  0.6581  0.7060
  191SAPI    O621985   4.220   1.746   1.624 -0.3153  0.1686  0.0329
  191SAPI   HO621986   4.306   1.710   1.601 -0.9793 -0.1144 -2.2300
  191SAPI   C1121987   4.269   1.759   1.870 -0.2244 -0.1062  1.6118
  191SAPI    H121988   4.364   1.709   1.842 -1.4954 -1.0740 -1.3907
  191SAPI     P21989   4.206   1.517   1.970 -0.5094 -0.1821 -0.1782
  191SAPI   O1321990   4.328   1.468   1.899  0.1484 -0.2042  0.3580
  191SAPI   O1421991   4.095   1.420   1.986  0.1492 -0.0578  0.0581
  191SAPI   O1221992   4.163   1.658   1.898  0.1392  0.7546  0.1114
  191SAPI   O1121993   4.260   1.551   2.114  0.1812  0.0276  0.8491
  191SAPI    C121994   4.180   1.585   2.227 -0.4915 -0.3645  0.2944
  191SAPI    HA21995   4.149   1.691   2.215  1.8246  0.2457 -0.9075
  191SAPI    HB21996   4.086   1.526   2.221 -0.6326 -0.1857  0.6562
  191SAPI    C221997   4.245   1.556   2.368 -0.2626 -0.4447 -1.0139
  191SAPI    HS21998   4.182   1.600   2.448 -1.1575 -0.5522 -1.6450
  191SAPI   O2121999   4.379   1.603   2.374 -0.0922  0.0405 -0.0862
  191SAPI   C2122000   4.412   1.720   2.412 -0.3751  0.7707 -0.2583
  191SAPI   O2222001   4.336   1.807   2.455  0.7561 -0.0200  0.1763
  191SAPI   C2222002   4.563   1.730   2.414  0.4766 -0.1942 -0.3446
  191SAPI   H2R22003   4.607   1.640   2.366  0.4925  1.0869 -2.9378
  191SAPI   H2S22004   4.590   1.825   2.361 -0.5062  1.2992  1.6929
  191SAPI    C322005   4.243   1.410   2.384 -0.2796  0.6239 -0.1797
  191SAPI    HX22006   4.306   1.376   2.298  0.1051  1.4712 -0.2396
  191SAPI    HY22007   4.143   1.370   2.358  0.2221 -1.2991  0.7143
  191SAPI   O3122008   4.290   1.370   2.514 -0.3661  0.0410 -0.4103
  191SAPI   C3122009   4.376   1.268   2.515 -0.3265  0.5737  0.6622
  191SAPI   O3222010   4.425   1.207   2.417 -0.1007  0.3316 -0.1456
  191SAPI   C3222011   4.409   1.243   2.661 -0.7167  0.0845 -0.2900
  191SAPI   H2X22012   4.328   1.200   2.723 -0.7156 -1.1104 -1.0921
  191SAPI   H2Y22013   4.418   1.344   2.707 -0.8597 -0.3784  0.7818
  191SAPI   C2322014   4.596   1.763   2.563  0.6208  0.5944  0.5800
  191SAPI   H3R22015   4.515   1.813   2.620 -0.4123  0.4299 -0.6853
  191SAPI   H3S22016   4.680   1.835   2.569  1.4005 -0.0385 -1.6820
  191SAPI   C2422017   4.623   1.632   2.633  0.3114 -0.4745  0.2555
  191SAPI   H4R22018   4.699   1.572   2.580 -1.2967 -2.1606 -0.2454
  191SAPI   H4S22019   4.530   1.571   2.641  0.0964 -0.2433 -0.3729
  191SAPI   C2522020   4.680   1.665   2.766  0.3928 -0.8041 -0.5540
  191SAPI   H5R22021   4.787   1.689   2.755  0.2644  0.1457  0.1154
  191SAPI   C2622022   4.616   1.687   2.884  0.3858  0.5734 -0.6545
  191SAPI   H6R22023   4.680   1.709   2.970 -0.3518 -0.0161  0.0696
  191SAPI   C2722024   4.471   1.662   2.912  0.4527  0.1753 -0.4880
  191SAPI   H7R22025   4.442   1.609   3.006 -2.2575  0.4707 -1.0656
  191SAPI   H7S22026   4.436   1.584   2.841  1.1138 -0.7527  0.1689
  191SAPI   C2822027   4.376   1.777   2.887 -0.4416  0.1209 -0.3138
  191SAPI   H8R22028   4.358   1.812   2.784  0.7615  2.2825  0.1538
  191SAPI   C2922029   4.302   1.835   2.982  0.3343  0.1129 -1.2577
  191SAPI   H9R22030   4.222   1.905   2.951 -0.5937 -0.7262 -0.8034
  191SAPI  C21022031   4.297   1.812   3.132  0.1912 -0.4659 -0.5602
  191SAPI  H10R22032   4.320   1.913   3.172 -0.3585 -0.8433  0.7704
  191SAPI  H10S22033   4.382   1.749   3.166  1.1363  1.2695  0.4086
  191SAPI  C21122034   4.162   1.777   3.187 -0.2866 -0.1019 -0.3694
  191SAPI  H11R22035   4.083   1.750   3.116  0.8508 -0.3064 -1.5814
  191SAPI  C21222036   4.133   1.785   3.318 -0.4392 -1.0208 -0.4257
  191SAPI  H12R22037   4.035   1.751   3.354  0.0923 -3.2894 -0.9995
  191SAPI  C21322038   4.232   1.835   3.421  0.1365  0.0771  0.1231
  191SAPI  H13R22039   4.323   1.770   3.422 -0.2470 -0.4749 -0.3784
  191SAPI  H13S22040   4.192   1.823   3.524 -0.8448  3.2384  0.2105
  191SAPI  C21422041   4.286   1.974   3.411 -0.0057 -0.0471 -0.5009
  191SAPI  H14R22042   4.227   2.043   3.350  0.2300 -0.2744 -0.9874
  191SAPI  C21522043   4.393   2.029   3.462  0.1131  0.8605 -0.9000
  191SAPI  H15R22044   4.396   2.139   3.452  0.3381  1.0846  1.1068
  191SAPI  C21622045   4.486   1.967   3.560 -0.1621  0.5086  0.1689
  191SAPI  H16R22046   4.588   1.967   3.517 -0.4081  0.4636 -0.4206
  191SAPI  H16S22047   4.459   1.860   3.569 -1.5996  0.9260  1.2399
  191SAPI  C21722048   4.464   2.030   3.696 -0.0502  0.1666  0.3377
  191SAPI  H17R22049   4.468   2.141   3.691  3.5719  0.1502 -0.1878
  191SAPI  H17S22050   4.556   2.003   3.752  0.6554  0.9470 -0.4138
  191SAPI  C21822051   4.338   1.982   3.776 -0.0750 -0.3957  0.8532
  191SAPI  H18R22052   4.347   1.872   3.780 -0.8251 -0.4451  1.5656
  191SAPI  H18S22053   4.246   2.010   3.719 -0.2077  1.2510  1.8127
  191SAPI  C21922054   4.343   2.045   3.914  0.2351  0.3875  0.6781
  191SAPI  H19R22055   4.381   2.150   3.908 -1.0244  0.9225  1.7142
  191SAPI  H19S22056   4.420   1.984   3.967  0.0112  0.5681  1.2206
  191SAPI  C22022057   4.206   2.044   3.981 -0.1202 -0.8049 -1.1757
  191SAPI  H20R22058   4.164   1.941   3.983 -1.2635 -0.3455 -0.5284
  191SAPI  H20S22059   4.124   2.106   3.940 -1.3613  0.0948  2.2695
  191SAPI  H20T22060   4.220   2.067   4.089 -0.1568 -0.9558 -1.1378
  191SAPI   C3322061   4.532   1.162   2.677  0.2376 -0.0128 -0.1909
  191SAPI   H3X22062   4.616   1.216   2.628 -1.8399  3.3257 -0.3861
  191SAPI   H3Y22063   4.526   1.059   2.635  1.2605  0.5278 -1.7539
  191SAPI   C3422064   4.576   1.155   2.822 -0.4156 -0.6632 -0.4721
  191SAPI   H4X22065   4.660   1.083   2.824  1.7801  1.7636  2.0100
  191SAPI   H4Y22066   4.487   1.120   2.878 -0.2520 -2.2155 -1.1323
  191SAPI   C3522067   4.639   1.284   2.891  0.3640 -0.3062  0.2480
  191SAPI   H5X22068   4.550   1.334   2.935  1.0662 -1.1224  2.7674
  191SAPI   H5Y22069   4.686   1.362   2.826  1.6634 -0.8449  0.5077
  191SAPI   C3622070   4.731   1.259   3.015  0.1068  0.1068  0.3318
  191SAPI   H6X22071   4.774   1.359   3.037 -0.2917  0.0217  1.6135
  191SAPI   H6Y22072   4.822   1.205   2.984  1.4155  0.3545  3.3313
  191SAPI   C3722073   4.658   1.191   3.121  0.5840 -0.1549 -0.6639
  191SAPI   H7X22074   4.617   1.094   3.086  2.4594 -0.2076 -2.9540
  191SAPI   H7Y22075   4.579   1.262   3.153  0.9973 -0.0787  0.2430
  191SAPI   C3822076   4.747   1.169   3.238  0.1769 -0.2805 -0.5179
  191SAPI   H8X22077   4.690   1.138   3.328  0.8924 -0.9329 -0.2818
  191SAPI   H8Y22078   4.794   1.263   3.274 -1.3032  0.3276 -0.1120
  191SAPI   C3922079   4.855   1.067   3.205  0.0025 -0.3189  0.1469
  191SAPI   H9X22080   4.929   1.108   3.133 -0.3516  0.2277  0.0891
  191SAPI   H9Y22081   4.810   0.976   3.160 -1.1770 -0.0535  0.7513
  191SAPI  C31022082   4.939   1.032   3.335  0.4290 -0.2033  0.4850
  191SAPI  H10X22083   4.863   0.988   3.403  0.9985 -1.0634  0.5709
  191SAPI  H10Y22084   4.965   1.124   3.392  0.9065 -0.3538  0.5151
  191SAPI  C31122085   5.056   0.944   3.315 -0.3925 -0.1780  0.1675
  191SAPI  H11X22086   5.132   0.994   3.252  1.8978  0.9219  3.5321
  191SAPI  H11Y22087   5.030   0.852   3.257 -0.4671  1.1163 -1.9468
  191SAPI  C31222088   5.118   0.909   3.457 -0.0590  0.3720 -0.2468
  191SAPI  H12X22089   5.163   0.807   3.460  0.5232  0.6285 -0.1940
  191SAPI  H12Y22090   5.038   0.893   3.533  0.6433 -0.6332  0.3048
  191SAPI  C31322091   5.212   1.023   3.508 -0.5568  0.3577  0.0019
  191SAPI  H13X22092   5.160   1.120   3.493  0.1966  0.8349  0.4214
  191SAPI  H13Y22093   5.305   1.028   3.449 -0.1305  1.4605  0.7457
  191SAPI  C31422094   5.253   0.992   3.652  0.2441 -0.0392 -0.2209
  191SAPI  H14X22095   5.317   0.903   3.641  0.0509 -0.1704 -0.2932
  191SAPI  H14Y22096   5.165   0.960   3.713 -0.8843  3.0102 -0.0739
  191SAPI  C31522097   5.328   1.114   3.713  0.0488 -0.6850 -0.4043
  191SAPI  H15X22098   5.404   1.149   3.640 -1.8513  0.6461 -1.8278
  191SAPI  H15Y22099   5.385   1.091   3.805 -0.4539 -0.2027  0.0379
  191SAPI  C31622100   5.252   1.240   3.744 -0.3663 -0.8806  0.5876
  191SAPI  H16X22101   5.176   1.230   3.824 -1.0640 -0.5804 -0.0292
  191SAPI  H16Y22102   5.198   1.278   3.655  0.0769  0.3890  0.8377
  191SAPI  C31722103   5.340   1.356   3.789 -0.1806 -0.2947  0.3551
  191SAPI  H17X22104   5.283   1.448   3.815  1.9902  0.4831  2.6950
  191SAPI  H17Y22105   5.401   1.385   3.701  0.8173  0.1385  1.1750
  191SAPI  C31822106   5.429   1.336   3.909 -0.2020  0.5869 -0.6595
  191SAPI  H18X22107   5.389   1.266   3.986 -1.7137  2.3422  0.2500
  191SAPI  H18Y22108   5.443   1.433   3.961  0.2373 -0.7661  1.9540
  191SAPI  H18Z22109   5.518   1.279   3.876 -0.9730 -1.1044  0.0532
  192SAPI   C1222110   6.067   4.686   1.441 -1.0604 -0.1130  0.4287
  192SAPI    H222111   6.025   4.667   1.542 -1.4534 -2.7727 -0.1581
  192SAPI    O222112   6.209   4.697   1.459  0.1699 -0.2287  0.5500
  192SAPI   HO222113   6.213   4.764   1.528  1.5324  2.1763 -1.7216
  192SAPI   C1322114   6.027   4.581   1.348  0.4915  0.3397  0.5450
  192SAPI    H322115   5.918   4.592   1.334  0.3787 -2.7445 -2.1394
  192SAPI    O322116   6.034   4.448   1.395  0.1469  0.0303  0.1484
  192SAPI   HO322117   6.127   4.426   1.386  0.1394 -0.2478  0.6787
  192SAPI   C1422118   6.104   4.593   1.214 -0.0560  0.0504  0.1605
  192SAPI    H422119   6.203   4.559   1.251 -1.6754 -2.5265  2.5293
  192SAPI    O422120   6.072   4.502   1.108 -0.5454 -0.1748  0.0907
  192SAPI   HO422121   6.138   4.491   1.039  0.9270  0.5582  1.2942
  192SAPI   C1522122   6.109   4.741   1.170 -0.2389 -0.2778  0.2685
  192SAPI    H522123   6.033   4.761   1.091  1.7686 -1.9895 -2.2633
  192SAPI    O522124   6.234   4.763   1.095  0.0979 -0.1185 -0.3181
  192SAPI   HO522125   6.233   4.695   1.027 -3.0436 -0.6961  0.1336
  192SAPI   C1622126   6.073   4.851   1.270 -0.1033  1.4340  0.1810
  192SAPI    H622127   6.174   4.884   1.303  1.0498 -1.6728  0.1665
  192SAPI    O622128   6.014   4.970   1.211 -0.2349  0.2429 -0.7764
  192SAPI   HO622129   5.951   5.010   1.271 -0.3369  0.5794 -1.1004
  192SAPI   C1122130   6.012   4.820   1.400 -0.4221  0.2305  0.2921
  192SAPI    H122131   5.904   4.799   1.389 -0.1900 -0.4398 -0.9177
  192SAPI     P22132   5.930   5.040   1.536  0.2726  0.0728 -0.0218
  192SAPI   O1322133   5.873   5.095   1.413 -0.3084 -0.3298  0.0528
  192SAPI   O1422134   6.002   5.139   1.628 -0.0429 -0.4962 -0.0134
  192SAPI   O1222135   6.034   4.917   1.505 -0.7908 -0.2054 -0.4267
  192SAPI   O1122136   5.813   4.973   1.616 -0.2543  0.4088 -0.1523
  192SAPI    C122137   5.832   4.868   1.714 -0.7051 -0.8556  0.1993
  192SAPI    HA22138   5.736   4.813   1.720  0.2047 -2.5161  0.2075
  192SAPI    HB22139   5.913   4.800   1.680 -1.4600 -1.0409 -1.3120
  192SAPI    C222140   5.872   4.925   1.855 -0.5017  0.7658 -0.2996
  192SAPI    HS22141   5.961   4.989   1.838 -0.0993 -0.0488 -1.3798
  192SAPI   O2122142   5.902   4.815   1.943  0.1377  0.1571  0.3116
  192SAPI   C2122143   6.003   4.837   2.028  0.1504 -0.1379 -0.1795
  192SAPI   O2222144   6.088   4.922   2.023  0.4248  0.2098 -0.5623
  192SAPI   C2222145   5.999   4.730   2.136  0.1670  0.2758  0.8445
  192SAPI   H2R22146   5.897   4.703   2.170  0.1043 -1.7720 -0.7401
  192SAPI   H2S22147   6.027   4.639   2.078  0.1475  1.0493 -0.4219
  192SAPI    C322148   5.750   4.999   1.901  0.3104 -0.2675 -0.0630
  192SAPI    HX22149   5.659   4.936   1.890 -0.4344  1.0300 -2.0201
  192SAPI    HY22150   5.723   5.086   1.837 -1.7997 -0.4400  0.4998
  192SAPI   O3122151   5.744   5.038   2.039 -0.0562  0.1426  0.3669
  192SAPI   C3122152   5.777   5.166   2.060 -0.3545  0.2817 -0.4635
  192SAPI   O3222153   5.826   5.248   1.980  0.6665 -0.5490 -0.4054
  192SAPI   C3222154   5.741   5.195   2.207 -0.6698  0.0725 -0.3422
  192SAPI   H2X22155   5.782   5.114   2.272 -1.4481  0.5798  0.8056
  192SAPI   H2Y22156   5.632   5.192   2.224 -0.5255  0.3690  0.7495
  192SAPI   C2322157   6.097   4.755   2.249 -0.5004 -0.4136  0.0165
  192SAPI   H3R22158   6.199   4.787   2.218 -0.5355 -0.7220 -0.4237
  192SAPI   H3S22159   6.116   4.659   2.300  1.8986 -0.1797 -0.3157
  192SAPI   C2422160   6.070   4.868   2.350  0.7638 -0.6918  0.2655
  192SAPI   H4R22161   6.052   4.963   2.296  0.0134  0.0616  1.7836
  192SAPI   H4S22162   6.162   4.862   2.413 -0.2750 -2.2358  1.7138
  192SAPI   C2522163   5.951   4.841   2.436  0.3501 -0.4510  0.2538
  192SAPI   H5R22164   5.858   4.813   2.384  2.1962 -0.9500 -3.0366
  192SAPI   C2622165   5.941   4.869   2.567  0.1119  0.2822 -0.3451
  192SAPI   H6R22166   5.841   4.865   2.611  0.3525  0.6196  0.2471
  192SAPI   C2722167   6.048   4.916   2.658  0.1268  0.2172  0.4928
  192SAPI   H7R22168   5.994   4.970   2.739  0.7030  0.0004  1.0292
  192SAPI   H7S22169   6.102   4.990   2.596  0.2209 -0.3251 -0.0836
  192SAPI   C2822170   6.149   4.823   2.721 -0.6429  0.5907  0.0480
  192SAPI   H8R22171   6.149   4.727   2.667 -0.5497 -0.3357  1.6562
  192SAPI   C2922172   6.216   4.839   2.840 -0.3919 -0.5871  0.6092
  192SAPI   H9R22173   6.291   4.761   2.863 -2.1426 -2.3957  0.4209
  192SAPI  C21022174   6.201   4.966   2.924 -0.5533  0.5002  1.0797
  192SAPI  H10R22175   6.104   4.982   2.975 -1.2532  2.8907 -0.7917
  192SAPI  H10S22176   6.193   5.049   2.850 -0.4691 -0.6522 -0.2550
  192SAPI  C21122177   6.328   4.985   3.003  0.1822  0.0454  0.6527
  192SAPI  H11R22178   6.417   5.019   2.949  1.6930 -1.4708  2.0518
  192SAPI  C21222179   6.333   4.982   3.132  0.0391 -0.1919  0.4009
  192SAPI  H12R22180   6.425   4.999   3.191  0.1652 -1.8779  0.7344
  192SAPI  C21322181   6.225   4.929   3.230 -0.4919 -0.2739  0.2673
  192SAPI  H13R22182   6.137   4.896   3.171 -1.9047  2.0276  0.9441
  192SAPI  H13S22183   6.188   5.013   3.292  2.1690  2.1996 -1.2200
  192SAPI  C21422184   6.275   4.810   3.305 -0.0960 -0.0179 -0.5907
  192SAPI  H14R22185   6.350   4.758   3.243 -1.2788  0.7452 -2.7392
  192SAPI  C21522186   6.246   4.772   3.434 -0.4394  0.1802 -0.9158
  192SAPI  H15R22187   6.304   4.685   3.470  0.2924 -0.0731 -2.5946
  192SAPI  C21622188   6.148   4.839   3.533  0.4510 -0.1722  0.0202
  192SAPI  H16R22189   6.076   4.762   3.568  2.2664 -0.5561  3.3589
  192SAPI  H16S22190   6.098   4.929   3.493  1.6416  1.7332  2.5112
  192SAPI  C21722191   6.214   4.887   3.668  0.0198  0.0584  0.3997
  192SAPI  H17R22192   6.287   4.966   3.643 -1.2005  2.2927  3.2832
  192SAPI  H17S22193   6.257   4.794   3.710  0.5789  0.5223  0.8676
  192SAPI  C21822194   6.112   4.945   3.771 -0.2911 -0.4687 -0.3677
  192SAPI  H18R22195   6.163   4.954   3.870 -2.1779 -2.7298  0.9219
  192SAPI  H18S22196   6.034   4.869   3.794 -0.4011 -0.2224  0.0926
  192SAPI  C21922197   6.045   5.073   3.726 -0.2995 -0.4211  0.2369
  192SAPI  H19R22198   5.962   5.099   3.795 -0.5343  3.0771 -1.1420
  192SAPI  H19S22199   5.997   5.043   3.630  0.1008 -1.4323  0.3388
  192SAPI  C22022200   6.132   5.196   3.711  0.0504 -0.2338 -0.3803
  192SAPI  H20R22201   6.232   5.172   3.666 -0.5486  0.5552 -2.2459
  192SAPI  H20S22202   6.146   5.236   3.813  1.3082  1.0589 -1.0064
  192SAPI  H20T22203   6.093   5.273   3.640 -0.6266 -1.0257 -0.8926
  192SAPI   C3322204   5.792   5.326   2.268  0.1623  0.1163 -0.1487
  192SAPI   H3X22205   5.747   5.413   2.216  1.1528  0.2904 -0.7428
  192SAPI   H3Y22206   5.902   5.332   2.256 -0.0551  2.7560 -1.4641
  192SAPI   C3422207   5.757   5.336   2.418  0.9015  0.4095 -0.4072
  192SAPI   H4X22208   5.770   5.441   2.454 -1.1386  0.4396  0.3945
  192SAPI   H4Y22209   5.834   5.275   2.469  0.0681 -0.1780  0.1858
  192SAPI   C3522210   5.629   5.262   2.457  0.8470 -0.2369  0.4771
  192SAPI   H5X22211   5.637   5.152   2.449 -0.1814 -0.1973 -1.8393
  192SAPI   H5Y22212   5.546   5.287   2.387 -1.2853 -1.1325  2.5484
  192SAPI   C3622213   5.583   5.298   2.602 -0.3733  0.3645  0.2544
  192SAPI   H6X22214   5.487   5.243   2.615  0.4519 -0.9386  1.1571
  192SAPI   H6Y22215   5.550   5.404   2.610 -0.7088  0.2435  0.5524
  192SAPI   C3722216   5.682   5.259   2.714  0.0080  0.2355  0.5031
  192SAPI   H7X22217   5.685   5.344   2.785 -2.5034  2.1115 -1.4477
  192SAPI   H7Y22218   5.787   5.255   2.677  0.7045  0.7309  2.2931
  192SAPI   C3822219   5.647   5.120   2.783 -0.9793 -0.1028  0.3330
  192SAPI   H8X22220   5.647   5.052   2.695 -2.1564  1.3897 -0.8845
  192SAPI   H8Y22221   5.548   5.138   2.830 -0.0745  2.0459  1.5720
  192SAPI   C3922222   5.747   5.074   2.895  0.2126  0.8412  0.6787
  192SAPI   H9X22223   5.852   5.080   2.858  0.4091 -0.6774  0.9272
  192SAPI   H9Y22224   5.723   4.969   2.922  0.2656  0.8078  0.5984
  192SAPI  C31022225   5.750   5.171   3.014 -0.3535 -0.6391  0.2254
  192SAPI  H10X22226   5.647   5.191   3.050  0.2531  0.1523  1.6033
  192SAPI  H10Y22227   5.820   5.255   2.994  1.3689 -2.2267 -0.7143
  192SAPI  C31122228   5.797   5.078   3.131  0.2725  0.0509  0.6093
  192SAPI  H11X22229   5.893   5.029   3.106 -0.2235 -0.0306 -1.2364
  192SAPI  H11Y22230   5.723   4.997   3.149  1.9700 -1.8990 -0.7495
  192SAPI  C31222231   5.825   5.153   3.255 -0.1567  0.1886  0.0047
  192SAPI  H12X22232   5.873   5.251   3.234  3.1043 -0.5976  2.8110
  192SAPI  H12Y22233   5.907   5.097   3.305  1.9276  1.1126 -2.1208
  192SAPI  C31322234   5.704   5.179   3.348  0.8489 -0.3900 -0.6131
  192SAPI  H13X22235   5.614   5.208   3.289  1.6165 -1.1652 -2.2159
  192SAPI  H13Y22236   5.732   5.266   3.412 -0.8240 -0.8449  0.8144
  192SAPI  C31422237   5.682   5.064   3.447 -0.1361 -0.1653 -0.2127
  192SAPI  H14X22238   5.772   5.054   3.512 -1.8613  0.3284  2.4215
  192SAPI  H14Y22239   5.676   4.962   3.402 -0.0766 -0.6775  0.9095
  192SAPI  C31522240   5.563   5.082   3.532  0.3375  0.1107  0.4014
  192SAPI  H15X22241   5.561   4.989   3.593  1.7275  1.3236  2.4227
  192SAPI  H15Y22242   5.472   5.105   3.473  0.6988  1.3789  0.2962
  192SAPI  C31622243   5.578   5.191   3.637 -0.3147  0.2652  0.5852
  192SAPI  H16X22244   5.586   5.295   3.597 -0.0736 -0.1020 -0.3545
  192SAPI  H16Y22245   5.664   5.175   3.705 -1.8115  1.9077  3.0284
  192SAPI  C31722246   5.456   5.202   3.730  0.0776  1.1274  0.5120
  192SAPI  H17X22247   5.366   5.204   3.666 -0.5419  1.0260  1.3575
  192SAPI  H17Y22248   5.466   5.298   3.785  0.5692  1.8939 -0.8643
  192SAPI  C31822249   5.450   5.077   3.820  0.5102 -0.2061  0.1074
  192SAPI  H18X22250   5.369   5.084   3.896  1.9037  1.7299  1.5053
  192SAPI  H18Y22251   5.543   5.070   3.880  1.3403 -1.3497 -1.2567
  192SAPI  H18Z22252   5.437   4.976   3.778  0.2910 -0.7438  1.4136
  193SOD    SOD22253   6.187   0.060   7.760 -0.2461 -0.2151 -0.3083
  194SOD    SOD22254   4.456   3.631   6.973  0.2239  0.5073  0.0379
  195SOD    SOD22255   6.551   1.939   8.055  0.7287  0.1915 -0.1816
  196SOD    SOD22256   4.136   0.837   1.255 -0.2009  0.0993  0.3948
  197SOD    SOD22257   0.784   5.977   6.566  0.1940  0.0439  0.0360
  198SOD    SOD22258   3.378   6.916   8.205  0.9583  0.5025  0.6081
  199SOD    SOD22259   3.190   4.131   6.440 -0.0330 -0.2792 -0.6490
  200SOD    SOD22260   1.467   2.665   0.665 -0.3165  0.8091 -0.0128
  201SOD    SOD22261   4.217   5.321   7.308  0.2091 -0.2728  0.0473
  202SOD    SOD22262   5.138   2.367   1.458 -0.2021 -0.1051  0.0563
  203SOD    SOD22263   0.757   3.977   7.983  0.0488 -0.2859  0.1277
  204SOD    SOD22264   1.047   3.097   7.411  0.3292 -0.1212  0.1754
  205SOD    SOD22265   6.103   3.500   7.215 -0.3917 -0.0434 -0.4365
  206SOD    SOD22266   0.944   1.716   1.457 -0.2364 -0.1626  0.7941
  207SOD    SOD22267   1.495   0.776   1.366  0.4501 -0.4240 -0.2992
  208SOD    SOD22268   6.643   4.584   1.707  0.6872  0.3063  0.1573
  209SOD    SOD22269   1.281   6.806   1.833 -0.0687 -0.0943 -0.2637
  210SOD    SOD22270   2.896   3.216   0.885  0.4208  0.5241 -1.0133
  211SOD    SOD22271   6.457   4.136   7.643 -0.1399  0.1712  0.6471
  212SOD    SOD22272   6.712   2.482   6.589  0.0705  0.1526  0.5478
  213SOD    SOD22273   5.678   3.359   1.383  0.4673 -0.7292 -0.1998
  214SOD    SOD22274   5.901   0.126   6.931 -0.1892 -0.5933 -0.3247
  215SOD    SOD22275   2.916   2.476   6.057 -0.2510  0.5905 -0.0479
  216SOD    SOD22276   4.776   5.645   6.307 -0.2254  0.0492  0.1449
  217SOD    SOD22277   1.499   2.650   6.996 -0.2127  0.1895  0.3659
  218SOD    SOD22278   5.680   2.426   6.736  0.2917  0.0536  0.2323
  219SOD    SOD22279   2.324   6.571   2.033  0.7943 -0.2592 -0.0951
  220SOD    SOD22280   5.719   5.433   8.244  0.6363 -0.0357  0.3902
  221SOD    SOD22281   4.261   2.492   6.633 -0.2807 -0.4305 -0.3141
  222SOD    SOD22282   0.268   5.566   6.512  0.0663  0.3589  0.4748
  223SOD    SOD22283   1.585   5.519   1.886 -0.6307 -0.0583  0.5566
  224SOD    SOD22284   5.559   5.518   6.793  0.4378 -0.2353  0.4185
  225SOD    SOD22285   3.294   3.575   6.591  0.2949 -0.5041 -0.0012
  226SOD    SOD22286   2.670   0.845   6.383  0.0255 -0.0686 -0.1598
  227SOD    SOD22287   3.585   4.078   0.260 -0.5757 -0.6580 -0.0052
  228SOD    SOD22288   4.980   6.149   7.629 -0.2759 -0.1064 -0.0717
  229SOD    SOD22289   1.745   4.439   0.934 -0.0381  0.1021  0.0527
  230SOD    SOD22290   4.143   4.148   0.296  0.0384 -0.1977 -0.0972
  231SOD    SOD22291   1.614   5.349   6.345 -0.1536  0.2326 -0.2173
  232SOD    SOD22292   1.252   1.978   7.388 -0.0003 -0.4194 -0.7181
  233SOD    SOD22293   3.023   6.129   0.182 -0.1013 -0.2220 -0.3197
  234CLA    CLA22294   6.401   6.649   1.168 -0.0112  0.0743 -0.2145
  235CLA    CLA22295   4.879   0.096   7.449 -0.2942  0.0599  0.0649
  236CLA    CLA22296   2.631   5.335   0.059 -0.0193  0.2001 -0.0405
  237CLA    CLA22297   4.209   2.132   7.716 -0.4634 -0.2784  0.1869
  238CLA    CLA22298   6.914   1.759   6.940  0.1828  0.1459 -0.1631
  239CLA    CLA22299   4.637   2.021   0.316  0.1058 -0.1473  0.3529
  240CLA    CLA22300   2.915   1.401   1.058 -0.1480 -0.0277 -0.1086
  241CLA    CLA22301   0.244   4.819   7.159 -0.2972  0.0794  0.2202
  242CLA    CLA22302   2.541   2.688   1.177  0.2867  0.1743  0.1208
  243CLA    CLA22303   6.088   0.166   7.996  0.3677  0.0175 -0.0751
  244CLA    CLA22304   0.396   6.673   0.440 -0.1458 -0.4321 -0.3176
  245CLA    CLA22305   2.120   3.045   0.128 -0.4218 -0.1454 -0.1664
  246CLA    CLA22306   5.650   4.943   7.967  0.5002 -0.1264 -0.0011
  247CLA    CLA22307   6.935   6.335   7.097 -0.3270  0.0794  0.1422
  248CLA    CLA22308   3.782   3.032   7.872 -0.3409 -0.2008 -0.3862
  249CLA    CLA22309   3.861   6.202   7.886 -0.0893  0.4436  0.1732
  250CLA    CLA22310   1.580   6.529   8.029 -0.3040 -0.6961  0.0697
  251TIP3   OH222311   2.078   4.531   1.590  0.0456  0.0199 -0.0724
  251TIP3    H122312   1.988   4.498   1.585  0.0560 -0.8577  3.1536
  251TIP3    H222313   2.087   4.562   1.680  2.3413  2.1791 -0.9305
  252TIP3   OH222314   2.982   2.705   7.923 -0.6777  0.0880  0.1840
  252TIP3    H122315   2.956   2.631   7.977 -1.5082  0.3552  0.1777
  252TIP3    H222316   3.028   2.764   7.983  0.7689 -0.8071 -0.0008
  253TIP3   OH222317   0.135   5.605   8.203  0.3363  0.1309 -0.1420
  253TIP3    H122318   0.066   5.599   8.136  2.0730 -2.4221 -1.8932
  253TIP3    H222319   0.174   5.691   8.189 -1.1052  0.7617 -0.5213
  254TIP3   OH222320   5.926   1.372   7.320  0.7315  0.1606 -0.8444
  254TIP3    H122321   5.985   1.305   7.286  0.6458 -0.6310  0.4888
  254TIP3    H222322   5.935   1.366   7.415 -0.6429  0.7958 -0.6460
  255TIP3   OH222323   3.077   0.743   0.853  0.7970 -0.4263 -0.4445
  255TIP3    H122324   3.109   0.819   0.902 -0.6638 -0.2917  0.3499
  255TIP3    H222325   3.086   0.768   0.761  2.1040 -0.0574 -0.2358
  256TIP3   OH222326   2.774   5.663   8.075  0.1439  0.1232  0.7179
  256TIP3    H122327   2.779   5.604   8.151  0.1492  0.2838  0.8414
  256TIP3    H222328   2.739   5.745   8.110 -1.3851 -0.2992  0.2593
  257TIP3   OH222329   4.611   4.740   6.024 -0.1141 -0.1669  0.2354
  257TIP3    H122330   4.653   4.718   6.107  0.1787  0.4019  0.2399
  257TIP3    H222331   4.527   4.694   6.027  0.3758 -1.0834  0.3461
  258TIP3   OH222332   5.682   3.184   0.020  0.1219 -0.3035  1.2512
  258TIP3    H122333   5.645   3.156   0.104  1.5264  0.9392  2.3502
  258TIP3    H222334   5.646   3.271   0.006  2.7247  1.1051  2.5443
  259TIP3   OH222335   6.398   2.049   1.063  0.0804 -0.1191 -0.8190
  259TIP3    H122336   6.393   1.959   1.031 -0.0975 -0.4261  0.0611
  259TIP3    H222337   6.388   2.042   1.158  0.3167  0.8065 -0.7141
  260TIP3   OH222338   1.456   5.985   1.656 -0.0837  0.0881  0.2893
  260TIP3    H122339   1.549   5.984   1.681  0.6736 -3.1586 -1.9795
  260TIP3    H222340   1.413   5.927   1.719 -0.0821 -0.2358 -0.0001
  261TIP3   OH222341   4.017   4.787   0.231 -0.1035  0.1621 -0.5378
  261TIP3    H122342   4.059   4.865   0.194  0.1336  0.3085  0.0303
  261TIP3    H222343   3.952   4.821   0.293  0.2964 -0.0885  0.0299
  262TIP3   OH222344   5.865   6.728   6.947  0.2912  0.5047  0.6793
  262TIP3    H122345   5.825   6.770   6.871 -0.7464 -0.5690  0.6069
  262TIP3    H222346   5.846   6.786   7.020  0.7011  1.1994  0.2473
  263TIP3   OH222347   3.570   4.941   0.317  0.4819  0.0600 -0.9314
  263TIP3    H122348   3.573   4.973   0.227 -1.7854  2.5405 -0.2857
  263TIP3    H222349   3.487   4.974   0.351  0.4856 -2.1941  1.6057
  264TIP3   OH222350   6.755   5.275   8.362  0.0183 -0.5629  0.0200
  264TIP3    H122351   6.681   5.328   8.392 -0.5249 -0.3519 -1.5780
  264TIP3    H222352   6.812   5.267   8.438 -0.9420  0.5038  0.8804
  265TIP3   OH222353   6.688   3.226   1.906  0.8107  0.0416  0.4333
  265TIP3    H122354   6.669   3.305   1.958  2.5245 -0.2196  1.5355
  265TIP3    H222355   6.784   3.226   1.897  0.7754 -1.5100 -0.2167
  266TIP3   OH222356   1.274   0.683   7.140 -0.2268 -0.0436 -0.2404
  266TIP3    H122357   1.217   0.643   7.074 -0.5050  1.1545 -0.7551
  266TIP3    H222358   1.254   0.636   7.221  0.0699 -1.4992 -0.9744
  267TIP3   OH222359   1.015   6.414   7.703  0.7806  0.0837  0.1054
  267TIP3    H122360   0.965   6.434   7.624 -0.4434 -1.1588  0.5210
  267TIP3    H222361   1.064   6.335   7.681  0.9516  0.1093  0.3929
  268TIP3   OH222362   1.751   2.215   0.781 -0.1250  0.5005  0.4544
  268TIP3    H122363   1.814   2.266   0.833  0.6350 -0.7316  0.7911
  268TIP3    H222364   1.795   2.131   0.766 -0.6067  0.5820 -1.6353
  269TIP3   OH222365   3.311   5.446   0.611  0.1179  0.3056 -0.3785
  269TIP3    H122366   3.307   5.490   0.696  0.1644 -0.0461 -0.1949
  269TIP3    H222367   3.242   5.380   0.615  0.4131 -0.0073 -0.4485
  270TIP3   OH222368   6.569   6.697   6.238 -0.5919 -0.0572  0.3830
  270TIP3    H122369   6.646   6.722   6.186 -1.3756  1.8748  0.0799
  270TIP3    H222370   6.560   6.603   6.223  0.6743  0.0066 -0.9986
  271TIP3   OH222371   5.382   4.878   8.358  0.5018 -0.1197  0.2101
  271TIP3    H122372   5.365   4.904   8.268 -1.1725  1.9086  1.0370
  271TIP3    H222373   5.362   4.784   8.360  0.4870 -0.1849 -1.4748
  272TIP3   OH222374   6.899   6.637   2.415  0.0418 -0.1604 -0.1536
  272TIP3    H122375   6.951   6.642   2.495 -0.9454  1.9949  0.4438
  272TIP3    H222376   6.821   6.587   2.439  1.6396 -3.3507 -1.0366
  273TIP3   OH222377   4.386   5.062   6.427 -0.0895  0.0827  0.6225
  273TIP3    H122378   4.435   5.139   6.400  0.3998  0.1075  1.5494
  273TIP3    H222379   4.446   4.989   6.410  0.3288  0.1209  1.8341
  274TIP3   OH222380   2.922   4.259   6.114 -0.3808  0.4389  0.0925
  274TIP3    H122381   2.896   4.310   6.190 -1.2212  1.2747 -0.7272
  274TIP3    H222382   2.913   4.319   6.040  0.0762 -0.4486 -0.7185
  275TIP3   OH222383   0.334   3.998   0.346 -0.1423 -0.2190 -0.2396
  275TIP3    H122384   0.306   3.990   0.437 -0.3387  1.5925 -0.1034
  275TIP3    H222385   0.267   3.952   0.295 -2.6091  2.5414  0.2152
  276TIP3   OH222386   3.695   4.796   0.736 -0.0048  0.3132  0.1763
  276TIP3    H122387   3.645   4.875   0.756 -0.9752 -0.5472  1.2881
  276TIP3    H222388   3.761   4.790   0.806 -1.1143 -0.8014  1.1836
  277TIP3   OH222389   3.219   0.027   0.610 -0.4360  0.3422 -0.5158
  277TIP3    H122390   3.245   0.102   0.664  2.0166 -0.7872  0.0199
  277TIP3    H222391   3.198  -0.042   0.673 -2.2348  0.3830 -1.0127
  278TIP3   OH222392   4.414   6.364   0.458  0.4408  0.9202  0.2438
  278TIP3    H122393   4.419   6.459   0.468  0.1909  1.1214 -1.3283
  278TIP3    H222394   4.358   6.351   0.382  0.1496 -0.5105  0.6688
  279TIP3   OH222395   2.081   5.506   0.365  0.0062 -0.7489 -0.3815
  279TIP3    H122396   2.160   5.527   0.315 -0.6087  1.5285 -0.4780
  279TIP3    H222397   2.011   5.505   0.299 -0.6469  1.2860  0.2164
  280TIP3   OH222398   2.640   5.967   7.766 -0.0661 -0.0984  0.0202
  280TIP3    H122399   2.547   5.965   7.740 -0.4775 -0.4868  1.4716
  280TIP3    H222400   2.663   6.060   7.762 -1.3491  0.3979  2.3528
  281TIP3   OH222401   3.644   3.951   6.070 -0.7518  0.1594 -0.3083
  281TIP3    H122402   3.615   3.863   6.043  0.1039 -0.3430  0.3742
  281TIP3    H222403   3.739   3.943   6.078 -0.8753  0.4837  2.0953
  282TIP3   OH222404   2.807   1.630   6.812 -0.4677  0.3731  0.1244
  282TIP3    H122405   2.819   1.712   6.765  2.8245 -0.0234  0.0828
  282TIP3    H222406   2.781   1.568   6.745  0.3983  0.6544 -0.4849
  283TIP3   OH222407   0.801   0.732   7.467 -0.5360 -0.5269  0.4155
  283TIP3    H122408   0.831   0.697   7.384 -0.1583 -1.7159  1.0292
  283TIP3    H222409   0.781   0.824   7.449 -1.6298 -1.0494 -1.2738
  284TIP3   OH222410   1.964   4.721   2.013  0.8724 -0.2326  0.1440
  284TIP3    H122411   2.018   4.738   2.091 -0.3466 -0.4344  1.0756
  284TIP3    H222412   1.948   4.807   1.976 -0.1576  0.0888  1.2744
  285TIP3   OH222413   3.064   2.087   0.481  0.0816 -0.1830  0.0380
  285TIP3    H122414   3.081   2.027   0.409 -0.7138 -0.0328 -0.2761
  285TIP3    H222415   3.076   2.174   0.443 -3.4978  0.0636 -0.8413
  286TIP3   OH222416   4.584   5.563   6.408  0.2363  0.1184 -1.0531
  286TIP3    H122417   4.490   5.563   6.392  0.4289 -0.2192 -2.2834
  286TIP3    H222418   4.592   5.566   6.504 -1.0286 -0.9355 -0.8819
  287TIP3   OH222419   0.718   5.091   7.354 -0.7750 -0.9945  0.3974
  287TIP3    H122420   0.645   5.063   7.298 -0.9408  0.3365 -0.0798
  287TIP3    H222421   0.752   5.010   7.392 -1.5210 -1.7870 -0.5894
  288TIP3   OH222422   3.099   0.318   7.874  0.1259 -0.3587 -0.1487
  288TIP3    H122423   3.028   0.259   7.853  0.6599 -0.4514 -1.8685
  288TIP3    H222424   3.103   0.378   7.800  1.8748 -0.4049 -0.1419
  289TIP3   OH222425   5.871   1.346   7.588  0.1475 -0.3445  0.5761
  289TIP3    H122426   5.880   1.312   7.677 -0.1779 -0.6129  0.5084
  289TIP3    H222427   5.806   1.416   7.596  0.1727 -0.3197  0.5631
  290TIP3   OH222428   4.469   0.434   7.762  0.4835  0.4464 -0.3153
  290TIP3    H122429   4.516   0.486   7.697  1.6211 -0.5625 -0.3238
  290TIP3    H222430   4.379   0.432   7.729  1.1356 -0.5147 -2.2048
  291TIP3   OH222431   2.194   4.247   8.357  0.0625  0.2445 -0.0022
  291TIP3    H122432   2.129   4.311   8.387 -1.0769 -0.9085  0.0960
  291TIP3    H222433   2.203   4.265   8.264  0.8691  1.4809  0.2869
  292TIP3   OH222434   6.628   3.269   6.778  0.1864 -0.4158  0.4309
  292TIP3    H122435   6.540   3.252   6.747 -0.4885  1.6475  1.0665
  292TIP3    H222436   6.672   3.314   6.705  0.2656 -0.2231  0.5947
  293TIP3   OH222437   3.552   1.199   7.639  0.3683 -0.5034 -0.5495
  293TIP3    H122438   3.478   1.140   7.626  0.3081 -0.6598  0.4148
  293TIP3    H222439   3.560   1.207   7.734  2.4973 -1.6741 -0.5446
  294TIP3   OH222440   1.274   6.007   8.271  0.2383  0.4429  0.4736
  294TIP3    H122441   1.222   5.972   8.199 -0.0289 -1.0219  1.3273
  294TIP3    H222442   1.342   5.942   8.286  0.7003  1.0515  1.1015
  295TIP3   OH222443   6.665   6.786   0.196 -0.1709 -0.5656 -0.4584
  295TIP3    H122444   6.654   6.718   0.129 -0.1731  0.0074 -1.0466
  295TIP3    H222445   6.757   6.780   0.221 -0.4884 -1.7302  0.5309
  296TIP3   OH222446   6.898   5.713   2.318 -0.1915 -0.2341 -0.0818
  296TIP3    H122447   6.979   5.739   2.362  0.2880  0.5738 -1.3840
  296TIP3    H222448   6.868   5.637   2.367  1.9455 -1.2351 -0.2117
  297TIP3   OH222449   0.844   4.003   6.904 -0.1709  0.1630 -0.1498
  297TIP3    H122450   0.800   3.938   6.850 -0.8354  1.3727 -1.1280
  297TIP3    H222451   0.903   3.953   6.959  0.3103 -1.1742 -1.7942
  298TIP3   OH222452   0.485   0.547   8.316 -0.2590 -0.0278 -0.0326
  298TIP3    H122453   0.546   0.474   8.330 -1.7740 -1.1396  1.1441
  298TIP3    H222454   0.501   0.575   8.227  1.7852 -0.4533  0.1620
  299TIP3   OH222455   0.628   5.504   6.596 -0.0825  0.0891 -0.1627
  299TIP3    H122456   0.706   5.528   6.645 -0.1096 -0.8503  0.3696
  299TIP3    H222457   0.612   5.578   6.538 -0.0683  1.2616  1.2686
  300TIP3   OH222458   2.044   5.215   7.858 -0.2941 -0.3614  0.4004
  300TIP3    H122459   2.131   5.201   7.819  0.6449 -1.6408  2.7251
  300TIP3    H222460   2.058   5.283   7.924 -0.5419 -1.8594  2.0828
  301TIP3   OH222461   1.543   3.744   6.869 -0.1687 -0.1735  0.3854
  301TIP3    H122462   1.594   3.751   6.950  0.2757  0.2126  0.0789
  301TIP3    H222463   1.452   3.735   6.898 -0.1974  1.5539  0.9193
  302TIP3   OH222464   4.934   0.941   7.400 -0.1383 -0.5560  0.1816
  302TIP3    H122465   4.923   1.027   7.358 -1.5696 -0.7948  0.0438
  302TIP3    H222466   5.014   0.951   7.451  0.6661  0.3285 -1.1536
  303TIP3   OH222467   4.872   2.586   2.577  0.6334  0.4157  0.7317
  303TIP3    H122468   4.900   2.603   2.668 -0.2578 -0.2318  1.1415
  303TIP3    H222469   4.946   2.541   2.537  0.7296 -0.0091  1.3776
  304TIP3   OH222470   1.225   5.713   0.882  0.2365  0.1609  0.4557
  304TIP3    H122471   1.309   5.753   0.860 -0.5634  1.5923 -0.1846
  304TIP3    H222472   1.243   5.660   0.959  1.3508  1.9606  1.5117
  305TIP3   OH222473   3.992   6.705   1.919  0.0487 -0.5701 -0.1691
  305TIP3    H122474   3.964   6.793   1.892  1.1011 -0.2917 -0.3957
  305TIP3    H222475   3.970   6.700   2.012  2.0383  0.8251  0.4550
  306TIP3   OH222476   1.138   6.452   0.601  1.0666 -0.0764 -0.1574
  306TIP3    H122477   1.223   6.495   0.601 -0.1480  2.4978  0.8101
  306TIP3    H222478   1.082   6.508   0.655 -0.5419 -3.1977  1.7433
  307TIP3   OH222479   4.883   4.558   2.126  0.2344  0.5908 -0.0132
  307TIP3    H122480   4.977   4.572   2.136  0.1600  0.4527  0.9610
  307TIP3    H222481   4.844   4.645   2.134  0.2260  0.5605  0.2843
  308TIP3   OH222482   5.493   4.363   0.306 -0.2738  0.1081 -0.0612
  308TIP3    H122483   5.463   4.391   0.393 -2.1396  0.4922 -0.7876
  308TIP3    H222484   5.509   4.269   0.315 -1.7517 -0.1225  0.3905
  309TIP3   OH222485   5.395   5.991   0.263 -0.2786  0.0359 -0.0583
  309TIP3    H122486   5.440   6.018   0.343  0.1642  1.5054 -0.7525
  309TIP3    H222487   5.400   5.896   0.263 -0.2258  0.0058  1.6122
  310TIP3   OH222488   6.734   2.535   2.125  0.2723  0.9047 -0.0059
  310TIP3    H122489   6.767   2.474   2.191 -0.5380  0.9387  0.4438
  310TIP3    H222490   6.772   2.620   2.149  0.2564  0.8492  0.2182
  311TIP3   OH222491   4.118   6.635   7.312 -0.1196 -0.3102 -0.2907
  311TIP3    H122492   4.088   6.547   7.334  1.7187 -0.6532  1.1133
  311TIP3    H222493   4.111   6.684   7.395  0.7415  0.2813 -0.5576
  312TIP3   OH222494   3.861   3.498   0.064  0.1171 -0.6496  0.5297
  312TIP3    H122495   3.861   3.552  -0.016  1.5540 -1.5089 -0.0954
  312TIP3    H222496   3.768   3.482   0.082 -0.2403 -1.1217 -1.4724
  313TIP3   OH222497   5.933   2.670   6.565  0.1117 -0.1466 -0.0703
  313TIP3    H122498   5.868   2.739   6.580 -1.0473 -1.0444 -0.7097
  313TIP3    H222499   5.978   2.697   6.485  0.4633  0.4259  0.3107
  314TIP3   OH222500   1.543   2.836   6.606  0.1871  0.2367 -0.2922
  314TIP3    H122501   1.561   2.918   6.561 -0.7168 -0.0944 -1.2954
  314TIP3    H222502   1.598   2.772   6.562 -0.6104 -0.0656 -0.8749
  315TIP3   OH222503   2.272   2.484   6.391 -0.3070  0.0800 -0.3074
  315TIP3    H122504   2.232   2.397   6.384 -1.2161  0.3423  1.2424
  315TIP3    H222505   2.365   2.469   6.371 -0.2529 -1.4459  0.8711
  316TIP3   OH222506   5.937   6.882   1.216 -0.0615 -0.0871  0.0031
  316TIP3    H122507   5.882   6.951   1.178 -2.0341 -0.1982  2.4333
  316TIP3    H222508   5.903   6.801   1.177 -0.1260  0.0321 -0.1920
  317TIP3   OH222509   5.198   4.553   0.899 -0.1097 -0.2693 -0.0372
  317TIP3    H122510   5.261   4.487   0.871  1.9261  0.6803  1.9540
  317TIP3    H222511   5.121   4.537   0.845  1.7664 -1.5768 -2.5633
  318TIP3   OH222512   2.825   2.954   6.784 -0.1048 -0.1683 -0.8988
  318TIP3    H122513   2.915   2.986   6.778  0.6052 -2.0122 -0.8253
  318TIP3    H222514   2.813   2.901   6.705 -1.3440  0.5365 -1.2013
  319TIP3   OH222515   1.681   1.533   6.993 -0.2665  0.2281  0.1526
  319TIP3    H122516   1.657   1.600   6.929 -0.1413  1.1141  1.0019
  319TIP3    H222517   1.612   1.467   6.986 -1.0304  1.0110  0.1032
  320TIP3   OH222518   0.220   3.834   2.326  0.2577  0.7823 -0.0611
  320TIP3    H122519   0.275   3.806   2.399  1.4855  0.5068 -1.0738
  320TIP3    H222520   0.278   3.833   2.250 -0.8091  1.7760 -0.9205
  321TIP3   OH222521   6.402   1.336   7.516  0.0356  0.0285 -0.6645
  321TIP3    H122522   6.308   1.352   7.518  0.2989  1.7473 -0.6437
  321TIP3    H222523   6.432   1.361   7.604  0.7265  1.0621 -1.1796
  322TIP3   OH222524   0.056   5.551   1.676 -0.1724  0.1047  0.3863
  322TIP3    H122525   0.003   5.481   1.638 -1.4181  0.3391  1.6062
  322TIP3    H222526   0.079   5.607   1.603 -2.1361  0.3237 -0.1111
  323TIP3   OH222527   6.236   1.717   8.034  0.0703 -0.6609 -0.2519
  323TIP3    H122528   6.232   1.628   8.068  1.0305 -0.2084  1.1686
  323TIP3    H222529   6.330   1.732   8.019 -0.0232  0.2506 -0.0112
  324TIP3   OH222530   1.300   0.255   7.718  0.0167 -0.0133 -0.4618
  324TIP3    H122531   1.384   0.299   7.727  1.0687 -1.8417 -0.8147
  324TIP3    H222532   1.275   0.231   7.808  0.0713  0.1647 -0.3988
  325TIP3   OH222533   4.270   3.301   6.232  0.1440 -0.0418  0.2296
  325TIP3    H122534   4.247   3.388   6.265 -1.0254 -0.7370  1.3047
  325TIP3    H222535   4.313   3.258   6.305  1.2055 -0.2208 -0.4661
  326TIP3   OH222536   5.963   4.485   1.765 -0.2459 -0.0790 -0.1092
  326TIP3    H122537   5.945   4.420   1.833  2.5141 -0.4803  0.3386
  326TIP3    H222538   6.046   4.524   1.791 -0.0341  1.0562 -2.3121
  327TIP3   OH222539   5.809   3.255   1.549  0.3154  0.3683  0.1736
  327TIP3    H122540   5.895   3.231   1.515 -0.2388  0.7042 -1.5563
  327TIP3    H222541   5.825   3.279   1.640  1.7318 -1.4065  0.4419
  328TIP3   OH222542   2.894   1.165   0.003 -0.2140  0.6192 -0.0136
  328TIP3    H122543   2.976   1.117  -0.000 -1.7655 -2.3147  0.9096
  328TIP3    H222544   2.840   1.118   0.067 -2.7805  2.1759 -0.8427
  329TIP3   OH222545   5.011   3.035   6.891 -0.0676  0.5142  0.1067
  329TIP3    H122546   5.003   3.124   6.926 -0.3311  0.1645  0.9759
  329TIP3    H222547   4.962   2.981   6.953  1.1803 -0.4144  0.3262
  330TIP3   OH222548   1.464   5.072   1.861 -0.1505  0.0462  0.0353
  330TIP3    H122549   1.437   4.980   1.860  0.1830 -0.0601  0.5872
  330TIP3    H222550   1.426   5.108   1.941  1.8394 -0.2731  1.1906
  331TIP3   OH222551   4.292   5.433   6.910  0.4695  0.7113  0.3525
  331TIP3    H122552   4.264   5.359   6.856  0.0996  0.7701  0.4572
  331TIP3    H222553   4.331   5.393   6.988  0.4273  0.6267  0.3299
  332TIP3   OH222554   2.769   4.521   8.327  0.4044 -0.7608  0.0997
  332TIP3    H122555   2.703   4.497   8.392 -0.4081 -0.9021 -0.7666
  332TIP3    H222556   2.721   4.572   8.262  1.2952 -0.2768 -0.1927
  333TIP3   OH222557   0.307   1.988   0.340  0.6092 -0.1493 -0.1284
  333TIP3    H122558   0.245   1.984   0.267  2.5089 -0.9716 -1.7833
  333TIP3    H222559   0.293   1.905   0.387 -1.6450  1.0064  1.4419
  334TIP3   OH222560   6.478   5.469   8.019 -0.1642  0.3208 -0.2736
  334TIP3    H122561   6.425   5.474   7.940 -0.7061 -2.2585 -0.1630
  334TIP3    H222562   6.490   5.375   8.034  0.3245  0.7271  2.4337
  335TIP3   OH222563   0.430   3.017   0.858  0.1839  0.1175  0.7157
  335TIP3    H122564   0.454   2.928   0.829  0.5097 -0.0713  1.5475
  335TIP3    H222565   0.353   3.039   0.805  0.7975 -0.1847 -0.3479
  336TIP3   OH222566   3.478   2.322   0.843 -0.0814 -0.1262  0.0154
  336TIP3    H122567   3.486   2.414   0.819 -0.9891  0.6946  2.5606
  336TIP3    H222568   3.527   2.314   0.925 -0.6882 -1.7179  0.2547
  337TIP3   OH222569   0.307   5.723   0.785 -0.3671  0.0354  0.0622
  337TIP3    H122570   0.302   5.652   0.849 -2.0757 -1.3904 -1.5340
  337TIP3    H222571   0.245   5.789   0.817 -0.6576 -0.3309  0.2581
  338TIP3   OH222572   0.985   5.568   2.061  0.0492 -0.1538  0.2445
  338TIP3    H122573   0.896   5.532   2.069  0.0503 -0.6803 -1.6759
  338TIP3    H222574   0.971   5.662   2.049 -0.2148 -0.1516  0.5360
  339TIP3   OH222575   1.475   3.442   1.153 -0.0451  0.2723 -0.2186
  339TIP3    H122576   1.531   3.518   1.166  0.5789 -0.3721  0.9788
  339TIP3    H222577   1.507   3.377   1.214 -0.6978 -0.9009 -1.0710
  340TIP3   OH222578   6.448   6.295   8.128 -0.5433 -0.5068  0.5224
  340TIP3    H122579   6.399   6.337   8.057  0.5540 -0.9175 -0.5136
  340TIP3    H222580   6.538   6.324   8.115 -0.1260 -1.5198  1.0508
  341TIP3   OH222581   3.142   4.056   0.582  0.1235  0.4502 -0.3723
  341TIP3    H122582   3.232   4.073   0.554  0.4401 -0.1107  0.2729
  341TIP3    H222583   3.143   3.964   0.611 -0.3286  0.8175  0.8711
  342TIP3   OH222584   5.180   2.536   7.577 -0.3353  0.3144  0.2283
  342TIP3    H122585   5.193   2.441   7.572  3.7918  0.7789 -2.7555
  342TIP3    H222586   5.220   2.561   7.660 -1.3338 -0.4739  0.9712
  343TIP3   OH222587   6.911   5.889   6.133 -0.2647  0.4205 -0.7831
  343TIP3    H122588   6.895   5.794   6.135  0.3745  0.3070 -0.7901
  343TIP3    H222589   6.999   5.899   6.169  0.4950  0.8305 -2.6442
  344TIP3   OH222590   0.413   5.344   6.585 -0.1151  0.0469 -0.3564
  344TIP3    H122591   0.415   5.258   6.626 -0.3120 -0.3831 -1.2167
  344TIP3    H222592   0.499   5.381   6.600  0.1314 -0.5062 -0.3935
  345TIP3   OH222593   6.244   1.744   7.756 -0.1184  1.1313 -0.2634
  345TIP3    H122594   6.213   1.704   7.837  0.9450 -0.3104 -0.5259
  345TIP3    H222595   6.169   1.736   7.696  0.6780 -2.6647 -1.0130
  346TIP3   OH222596   0.909   0.475   2.050 -0.3291 -0.2140 -1.0236
  346TIP3    H122597   0.931   0.464   2.142  0.7190  2.4233 -0.8823
  346TIP3    H222598   0.832   0.532   2.051 -0.9730 -1.0441 -1.7840
  347TIP3   OH222599   5.085   5.235   0.092  0.7713  0.0230 -0.0587
  347TIP3    H122600   5.126   5.319   0.070  0.5730  0.6348  1.7628
  347TIP3    H222601   5.089   5.230   0.187 -1.1760 -1.0440  0.0230
  348TIP3   OH222602   4.529   0.379   0.395 -0.7961 -0.4485 -0.9158
  348TIP3    H122603   4.593   0.442   0.426 -1.5144 -0.8640  1.6974
  348TIP3    H222604   4.444   0.418   0.416 -1.2896 -1.4633 -0.9277
  349TIP3   OH222605   3.885   2.433   1.651  0.7142  0.1139 -0.2120
  349TIP3    H122606   3.842   2.357   1.691  0.8741  1.1095  1.9750
  349TIP3    H222607   3.815   2.481   1.607 -0.1515  0.7398  1.7432
  350TIP3   OH222608   1.649   5.158   2.465 -0.1508  0.4719 -0.2650
  350TIP3    H122609   1.695   5.190   2.387 -0.9069  0.3437 -0.7721
  350TIP3    H222610   1.588   5.092   2.432 -0.7992  0.7369  0.3741
  351TIP3   OH222611   3.770   4.497   6.785 -0.4795  0.1048  0.1747
  351TIP3    H122612   3.769   4.584   6.745 -2.5325 -0.3966 -1.0327
  351TIP3    H222613   3.721   4.507   6.866 -1.0821  0.0148 -0.1699
  352TIP3   OH222614   3.910   2.267   7.580  0.4777  0.2283 -0.4968
  352TIP3    H122615   3.965   2.189   7.575 -0.2260 -0.3096 -0.0553
  352TIP3    H222616   3.883   2.271   7.671  1.0924  1.4127 -0.3504
  353TIP3   OH222617   1.828   2.480   1.578 -0.1359 -0.0161  0.1694
  353TIP3    H122618   1.836   2.568   1.541  1.2268  1.0559  2.7073
  353TIP3    H222619   1.736   2.471   1.600 -1.0237 -0.7417 -3.3019
  354TIP3   OH222620   1.737   6.644   1.612 -0.2603 -0.3327 -0.4035
  354TIP3    H122621   1.651   6.659   1.573 -0.0207 -0.2887 -0.9264
  354TIP3    H222622   1.792   6.617   1.539  0.1250 -0.5490 -0.0391
  355TIP3   OH222623   0.820   2.540   7.977 -0.3164 -0.1391  0.3549
  355TIP3    H122624   0.846   2.483   8.049  0.5575 -1.2737 -0.8074
  355TIP3    H222625   0.898   2.546   7.922 -0.8197  1.0881 -0.2560
  356TIP3   OH222626   5.785   1.614   0.098  0.4574 -0.3243 -0.4773
  356TIP3    H122627   5.874   1.639   0.075  1.1771  0.1319  2.4358
  356TIP3    H222628   5.795   1.535   0.152 -0.9148 -0.2623 -0.0951
  357TIP3   OH222629   3.267   1.547   7.378  0.5551  0.1137 -0.0552
  357TIP3    H122630   3.343   1.595   7.410 -0.6899  0.7169  2.2497
  357TIP3    H222631   3.193   1.604   7.395 -0.6775 -1.4662  0.1775
  358TIP3   OH222632   5.759   3.191   1.238  0.0552 -0.6576  0.0489
  358TIP3    H122633   5.846   3.160   1.213  0.3234  0.9887 -1.2744
  358TIP3    H222634   5.700   3.145   1.180  0.5167  1.7273 -2.4819
  359TIP3   OH222635   2.723   2.429   0.064 -0.1976  0.0730 -0.5806
  359TIP3    H122636   2.664   2.503   0.050  0.7318  1.8569  3.4065
  359TIP3    H222637   2.673   2.368   0.118  0.3795 -0.1837 -0.3295
  360TIP3   OH222638   1.382   0.300   0.342 -0.0689  0.5163  0.0002
  360TIP3    H122639   1.468   0.257   0.343  0.7658  2.1028 -0.3770
  360TIP3    H222640   1.401   0.393   0.356 -1.8886  0.6904  1.8025
  361TIP3   OH222641   2.936   5.535   7.158  0.4309  0.1981  0.1264
  361TIP3    H122642   2.985   5.455   7.178 -0.2911 -0.5287 -0.9219
  361TIP3    H222643   2.863   5.534   7.221 -1.3501 -1.6426 -1.7987
  362TIP3   OH222644   4.222   0.824   2.009 -0.0081 -0.1968  0.1557
  362TIP3    H122645   4.152   0.888   2.019 -0.1373 -0.1129 -1.0837
  362TIP3    H222646   4.303   0.876   2.012 -0.0888 -0.0416 -0.2954
  363TIP3   OH222647   4.517   2.349   7.130 -0.0954 -0.6656 -0.0852
  363TIP3    H122648   4.455   2.329   7.060 -0.0099 -0.3518 -0.2514
  363TIP3    H222649   4.580   2.277   7.127  1.2592  0.5190 -1.8658
  364TIP3   OH222650   3.740   1.704   7.310  0.0954  0.4801 -0.0463
  364TIP3    H122651   3.766   1.691   7.219 -0.1976 -1.2962  0.0965
  364TIP3    H222652   3.765   1.623   7.354 -1.7313  0.4066  0.9818
  365TIP3   OH222653   2.808   5.188   1.710  0.0757  0.1718 -0.2055
  365TIP3    H122654   2.791   5.163   1.801 -0.8969 -1.4474 -0.7839
  365TIP3    H222655   2.875   5.125   1.681  1.2147  1.3909 -0.3169
  366TIP3   OH222656   6.925   1.419   8.236  0.0906  0.6265  0.2160
  366TIP3    H122657   7.007   1.370   8.246 -0.8306 -0.6521  2.1315
  366TIP3    H222658   6.879   1.406   8.319 -1.3316  2.7108 -0.1647
  367TIP3   OH222659   0.950   1.236   1.033 -0.0729  0.2374 -0.1821
  367TIP3    H122660   1.034   1.197   1.009 -1.1004 -2.0529 -0.3141
  367TIP3    H222661   0.887   1.164   1.026 -1.8317  1.5372  1.2351
  368TIP3   OH222662   5.183   4.403   7.441 -0.2724 -0.1599 -0.3739
  368TIP3    H122663   5.124   4.440   7.375 -0.5349 -1.9637 -1.2319
  368TIP3    H222664   5.128   4.342   7.490  0.6104 -1.0592 -0.4719
  369TIP3   OH222665   0.608   4.344   7.755  0.1382 -0.2837  0.2190
  369TIP3    H122666   0.617   4.300   7.670 -1.7709  1.5983 -1.0591
  369TIP3    H222667   0.682   4.404   7.759  1.5902 -2.0116  1.0540
  370TIP3   OH222668   1.740   1.798   1.120 -0.2841 -0.2101 -0.7527
  370TIP3    H122669   1.815   1.760   1.165  0.6500  2.2047 -0.1213
  370TIP3    H222670   1.723   1.738   1.047  2.0777 -0.9635 -0.7649
  371TIP3   OH222671   4.703   4.074   1.142  0.2977 -0.6565 -0.0387
  371TIP3    H122672   4.712   3.982   1.166 -0.6914 -0.1689  2.5163
  371TIP3    H222673   4.758   4.121   1.205  0.2159  0.5645 -0.8432
  372TIP3   OH222674   5.416   0.223   8.224  0.4032  0.9288 -0.3875
  372TIP3    H122675   5.463   0.276   8.287  0.4135  1.3100 -0.7143
  372TIP3    H222676   5.326   0.257   8.226 -0.0233 -0.1748  0.6652
  373TIP3   OH222677   2.686   0.869   1.550  0.0438 -1.3370  0.1964
  373TIP3    H122678   2.654   0.898   1.636  0.9591  1.6574 -0.3343
  373TIP3    H222679   2.609   0.876   1.493  0.1299 -0.2726  0.1851
  374TIP3   OH222680   3.663   5.509   0.248  0.2197 -0.2988 -0.0160
  374TIP3    H122681   3.574   5.526   0.278 -0.3198 -0.3111 -1.5118
  374TIP3    H222682   3.676   5.573   0.178  1.2270 -0.5896 -0.1030
  375TIP3   OH222683   0.555   1.174   1.353 -0.2776 -0.2522 -0.1513
  375TIP3    H122684   0.605   1.246   1.317 -1.4413  0.7593  0.2075
  375TIP3    H222685   0.619   1.103   1.363  0.5730  0.2467 -1.8214
  376TIP3   OH222686   1.357   2.886   1.746 -0.2634 -0.0127  0.2939
  376TIP3    H122687   1.432   2.829   1.762 -0.1125  0.1024  0.0121
  376TIP3    H222688   1.388   2.974   1.771  0.1137  0.2397 -0.9582
  377TIP3   OH222689   1.122   4.351   1.141 -0.4990  0.2688  0.2322
  377TIP3    H122690   1.109   4.427   1.085  0.5355 -0.5783 -1.2010
  377TIP3    H222691   1.206   4.315   1.114 -1.6217 -2.2515 -0.1918
  378TIP3   OH222692   4.543   0.152   2.461 -0.0128 -0.4969  0.5889
  378TIP3    H122693   4.533   0.096   2.384  0.5594 -0.8954  0.7980
  378TIP3    H222694   4.462   0.139   2.510  0.0094 -0.9540  0.5119
  379TIP3   OH222695   3.794   3.438   5.903 -0.8631 -0.2175  0.0342
  379TIP3    H122696   3.848   3.495   5.849 -0.4514  0.9730  1.6459
  379TIP3    H222697   3.741   3.389   5.840  1.3780 -0.7508 -1.5614
  380TIP3   OH222698   5.333   2.608   8.081 -0.7068  0.4313 -0.5414
  380TIP3    H122699   5.263   2.543   8.089 -1.6633  1.4762 -0.0606
  380TIP3    H222700   5.307   2.679   8.141 -0.0967  1.6047 -1.6058
  381TIP3   OH222701   3.455   6.372   6.613 -0.2861 -0.3226  0.6949
  381TIP3    H122702   3.371   6.384   6.569  0.0507 -2.0111 -0.5137
  381TIP3    H222703   3.508   6.323   6.550  0.7637 -1.4635  2.3863
  382TIP3   OH222704   0.853   5.344   6.801 -0.7898 -0.4085 -0.8050
  382TIP3    H122705   0.822   5.400   6.871 -2.4673 -2.2464  0.0148
  382TIP3    H222706   0.888   5.267   6.845  1.4597 -0.1096 -1.8948
  383TIP3   OH222707   6.424   6.448   0.622  0.7536  0.7588 -0.1181
  383TIP3    H122708   6.445   6.535   0.587 -0.3706  1.1550  0.1584
  383TIP3    H222709   6.403   6.464   0.714  0.5379  0.1838 -0.0670
  384TIP3   OH222710   3.099   6.497   1.221 -0.5666 -0.6152  0.3155
  384TIP3    H122711   3.169   6.497   1.286 -0.6588 -1.2034  0.4178
  384TIP3    H222712   3.085   6.405   1.200 -0.1200 -0.3989 -1.0048
  385TIP3   OH222713   3.336   3.625   2.359 -0.6540  0.0556 -0.5976
  385TIP3    H122714   3.260   3.591   2.406 -0.9958  0.3230 -0.9512
  385TIP3    H222715   3.402   3.639   2.427 -1.1707  0.5169 -0.1810
  386TIP3   OH222716   0.322   3.220   6.408 -0.5580  0.2910 -0.2196
  386TIP3    H122717   0.352   3.311   6.402 -1.8010  0.7018 -0.5726
  386TIP3    H222718   0.257   3.212   6.339 -0.3590 -0.9237 -0.2829
  387TIP3   OH222719   6.953   2.447   0.570  0.8952  0.0629  0.4288
  387TIP3    H122720   6.973   2.367   0.620 -0.5744 -0.4019  0.3070
  387TIP3    H222721   6.911   2.416   0.490  0.5525  0.9538  0.2537
  388TIP3   OH222722   4.039   3.152   7.950  0.3762 -0.4697 -0.6453
  388TIP3    H122723   3.948   3.129   7.934  0.4678 -0.6139 -0.9691
  388TIP3    H222724   4.056   3.124   8.040 -0.2249  0.6099 -0.1827
  389TIP3   OH222725   0.090   2.700   6.972 -0.1397  0.0099 -0.4374
  389TIP3    H122726  -0.001   2.673   6.984 -0.3189  1.1113  1.0281
  389TIP3    H222727   0.090   2.755   6.894 -0.6822 -0.2557 -0.6221
  390TIP3   OH222728   4.130   6.787   7.948  0.4593 -0.1013 -0.4643
  390TIP3    H122729   4.162   6.877   7.944  0.2222  0.0753  0.9972
  390TIP3    H222730   4.041   6.795   7.984  1.5826 -1.0845  2.8841
  391TIP3   OH222731   0.281   1.457   7.214  0.1990 -0.2699 -0.1419
  391TIP3    H122732   0.334   1.413   7.281 -0.1956 -0.4291  0.0690
  391TIP3    H222733   0.250   1.537   7.257 -2.3204 -1.6608  0.8526
  392TIP3   OH222734   4.706   2.841   0.223 -0.0280  0.0974 -0.1392
  392TIP3    H122735   4.680   2.843   0.131 -2.3116 -0.5811  0.4142
  392TIP3    H222736   4.752   2.924   0.236  1.2773 -0.2460 -2.0887
  393TIP3   OH222737   2.111   5.664   8.217 -0.2955 -0.2422 -0.4623
  393TIP3    H122738   2.187   5.715   8.244  0.5737 -0.5007 -2.2866
  393TIP3    H222739   2.085   5.615   8.296  1.7918 -0.6196  0.0414
  394TIP3   OH222740   2.940   6.826   0.278  0.5291 -0.1211 -0.0565
  394TIP3    H122741   2.906   6.818   0.367  0.4517 -2.0920 -0.2199
  394TIP3    H222742   3.027   6.864   0.289  0.1626  0.5176  0.7601
  395TIP3   OH222743   5.164   1.950   0.951 -0.3418  0.8134  0.2078
  395TIP3    H122744   5.145   1.907   1.035  1.6635 -2.8425 -0.9701
  395TIP3    H222745   5.079   1.961   0.910 -1.0902 -2.4362  0.5693
  396TIP3   OH222746   5.569   6.244   1.635 -0.1018 -0.3643 -0.0178
  396TIP3    H122747   5.642   6.196   1.674  0.3478  2.1208  2.5076
  396TIP3    H222748   5.492   6.189   1.651  0.8548 -1.9359 -0.6319
  397TIP3   OH222749   4.451   2.839   6.900 -0.0243 -0.2113  0.2223
  397TIP3    H122750   4.426   2.795   6.982  1.9914 -1.1964  0.3673
  397TIP3    H222751   4.443   2.933   6.920 -1.2974 -0.4499  0.9443
  398TIP3   OH222752   2.607   0.850   7.287  0.5165 -0.1192  0.0623
  398TIP3    H122753   2.611   0.799   7.368 -0.5744  0.4388  0.4924
  398TIP3    H222754   2.691   0.896   7.283 -0.6036  2.4677  2.6747
  399TIP3   OH222755   0.447   3.496   2.110 -0.0764 -0.0316  0.5473
  399TIP3    H122756   0.527   3.543   2.132 -0.5715  1.1949 -0.1767
  399TIP3    H222757   0.380   3.564   2.101 -0.8416 -0.8778 -0.4333
  400TIP3   OH222758   1.123   1.587   8.355  0.6817 -0.2407 -0.1011
  400TIP3    H122759   1.175   1.607   8.433  3.3809  0.8850 -2.0178
  400TIP3    H222760   1.157   1.502   8.326  0.7892  0.0438 -0.8323
  401TIP3   OH222761   4.881   1.688   7.023  0.2785  0.3146  0.2137
  401TIP3    H122762   4.794   1.723   7.043 -1.1153 -1.1405 -2.6562
  401TIP3    H222763   4.902   1.723   6.937  2.0539 -0.2479  0.3844
  402TIP3   OH222764   1.499   1.276   7.843  0.2253 -0.7175 -0.0417
  402TIP3    H122765   1.477   1.285   7.936 -1.1215 -1.2814 -0.2784
  402TIP3    H222766   1.537   1.189   7.836  2.4982  0.1881  0.3355
  403TIP3   OH222767   6.383   5.475   6.766 -0.1154  0.3851 -0.0008
  403TIP3    H122768   6.424   5.495   6.682  2.8017  0.6813  1.3554
  403TIP3    H222769   6.403   5.382   6.781 -0.7582  0.2914  0.2815
  404TIP3   OH222770   5.057   2.934   0.723 -0.8102 -0.0791 -0.0191
  404TIP3    H122771   5.027   3.015   0.682 -0.7253  0.5348  1.0895
  404TIP3    H222772   4.978   2.895   0.760 -0.8851 -0.6168 -0.7437
  405TIP3   OH222773   2.280   3.930   0.963 -0.6117  1.0071  0.1927
  405TIP3    H122774   2.370   3.926   0.994 -0.5677 -2.3984 -0.0025
  405TIP3    H222775   2.287   3.959   0.872  0.3710  0.2830  0.0219
  406TIP3   OH222776   2.933   1.857   7.969  0.4994  0.3230 -0.1281
  406TIP3    H122777   3.022   1.846   8.002  0.4287  1.5435  0.5209
  406TIP3    H222778   2.893   1.920   8.029  0.1046  2.0536 -2.1014
  407TIP3   OH222779   1.103   3.106   0.753 -0.6062  0.1453 -0.8001
  407TIP3    H122780   1.013   3.077   0.737 -0.1644 -0.3332 -2.6650
  407TIP3    H222781   1.143   3.108   0.666  1.0849  0.7335 -0.0455
  408TIP3   OH222782   6.335   1.332   0.725  0.0957  0.4610  0.1007
  408TIP3    H122783   6.361   1.424   0.723  0.7618  0.2754 -0.5999
  408TIP3    H222784   6.365   1.300   0.810 -0.7857  1.0645  0.6439
  409TIP3   OH222785   0.821   4.773   8.229  0.2102 -0.5467 -0.2544
  409TIP3    H122786   0.831   4.720   8.149  0.6549  1.4457 -1.5843
  409TIP3    H222787   0.752   4.836   8.207  0.8106  0.4659  0.6869
  410TIP3   OH222788   1.857   1.456   1.412  0.1688  0.1019 -0.1437
  410TIP3    H122789   1.873   1.524   1.477  0.9992  0.1162 -0.3430
  410TIP3    H222790   1.842   1.377   1.463  0.6465  0.1478  0.0768
  411TIP3   OH222791   2.292   0.833   0.244  0.2820 -0.5143 -0.2032
  411TIP3    H122792   2.324   0.869   0.327  0.2574  1.4618 -1.0097
  411TIP3    H222793   2.260   0.745   0.267  1.3663 -0.4861  1.6327
  412TIP3   OH222794   1.484   5.090   6.648 -0.1401  0.0393 -0.6416
  412TIP3    H122795   1.469   5.144   6.570  0.2735  0.6442 -0.3084
  412TIP3    H222796   1.537   5.017   6.616 -0.2903  0.0816 -1.0018
  413TIP3   OH222797   4.817   3.456   6.794  0.4269  0.3755 -0.2149
  413TIP3    H122798   4.910   3.438   6.780  0.4151  1.0851 -1.3323
  413TIP3    H222799   4.810   3.551   6.792 -0.1544  0.3764  1.1267
  414TIP3   OH222800   3.185   0.923   7.814  0.9870 -0.0143 -0.5571
  414TIP3    H122801   3.256   0.918   7.750  2.1333  0.1751  0.6729
  414TIP3    H222802   3.116   0.972   7.768  1.7247  0.0172 -1.6864
  415TIP3   OH222803   2.484   1.167   0.652  0.2458  0.0619 -0.0890
  415TIP3    H122804   2.545   1.128   0.715  0.3911  0.4241 -0.0042
  415TIP3    H222805   2.398   1.134   0.679  0.6844 -3.5170 -2.4359
  416TIP3   OH222806   3.072   3.383   0.835  0.2512  0.6880 -0.1821
  416TIP3    H122807   3.130   3.378   0.759 -1.8230  1.0845 -1.9047
  416TIP3    H222808   3.068   3.477   0.855  0.7022  0.5948  0.3726
  417TIP3   OH222809   6.624   0.813   6.603  0.0698  0.3697 -0.2470
  417TIP3    H122810   6.575   0.799   6.523 -0.0138 -1.7819  0.1254
  417TIP3    H222811   6.557   0.827   6.670  0.0045 -0.8297 -0.0460
  418TIP3   OH222812   6.859   3.029   7.958 -0.5543  0.0502 -0.2985
  418TIP3    H122813   6.911   3.030   8.039 -2.0579  1.1648  0.6924
  418TIP3    H222814   6.924   3.014   7.889  0.7526 -1.1146  1.0975
  419TIP3   OH222815   5.755   4.064   1.511 -0.1318  0.0991 -0.4711
  419TIP3    H122816   5.755   4.159   1.525 -1.2376 -0.1639  1.6778
  419TIP3    H222817   5.847   4.039   1.512  0.2065  1.1787 -1.6258
  420TIP3   OH222818   2.938   1.097   7.808 -0.3529  0.4541  0.5399
  420TIP3    H122819   2.850   1.098   7.769  0.5233  0.3293 -1.6100
  420TIP3    H222820   2.923   1.091   7.902 -2.6380 -0.0171  0.2023
  421TIP3   OH222821   2.774   2.795   2.242  0.5522  0.8355 -0.3038
  421TIP3    H122822   2.732   2.795   2.328 -1.8282  1.6380 -1.3987
  421TIP3    H222823   2.720   2.738   2.188  0.9435  1.7712 -1.7497
  422TIP3   OH222824   3.955   0.474   6.836 -0.5308  0.5119  0.3736
  422TIP3    H122825   3.952   0.539   6.766 -0.4113 -0.2004 -0.3006
  422TIP3    H222826   3.994   0.397   6.796 -1.3150 -0.2198  0.9669
  423TIP3   OH222827   1.325   5.223   2.074 -0.5071 -0.1079  0.3497
  423TIP3    H122828   1.248   5.273   2.101 -1.1883  1.5613 -3.8707
  423TIP3    H222829   1.399   5.277   2.101 -1.0241  0.5985  0.3958
  424TIP3   OH222830   3.724   6.370   1.436  0.0108  0.0047  0.3427
  424TIP3    H122831   3.664   6.396   1.506  1.5372 -2.7152  2.8910
  424TIP3    H222832   3.691   6.286   1.406  0.8255 -0.0543 -0.4447
  425TIP3   OH222833   5.739   0.034   6.785 -0.1063 -0.0145 -0.1729
  425TIP3    H122834   5.762   0.058   6.695  1.7076  0.6278  0.4103
  425TIP3    H222835   5.646   0.012   6.781 -0.3897  1.2662 -1.9453
  426TIP3   OH222836   4.266   3.721   1.846 -0.6947 -0.2569 -0.9594
  426TIP3    H122837   4.338   3.731   1.908  0.1786 -0.5410 -1.8987
  426TIP3    H222838   4.192   3.693   1.900 -0.2731  0.6345  0.1113
  427TIP3   OH222839   2.856   5.745   0.068 -0.2780 -0.6038  0.4667
  427TIP3    H122840   2.815   5.720   0.150 -0.8706 -2.6824 -0.3970
  427TIP3    H222841   2.807   5.822   0.039  0.9518  1.1360  2.7514
  428TIP3   OH222842   6.066   4.825   8.115 -0.0594  0.1961 -0.5535
  428TIP3    H122843   6.157   4.848   8.101 -0.0489  1.2027  0.9517
  428TIP3    H222844   6.065   4.729   8.114  0.5093  0.1351 -3.2732
  429TIP3   OH222845   3.045   3.689   0.316  0.5355  0.4716 -0.0890
  429TIP3    H122846   3.026   3.602   0.281  2.4605 -0.3061  0.6735
  429TIP3    H222847   2.992   3.694   0.396  1.1091 -0.3760  0.3553
  430TIP3   OH222848   2.803   6.454   1.175  0.6471 -0.6428 -0.4955
  430TIP3    H122849   2.789   6.416   1.261 -2.5857  1.9273  0.3219
  430TIP3    H222850   2.897   6.473   1.172  1.1718 -2.4931  1.6246
  431TIP3   OH222851   1.210   0.557   7.366  0.4487 -0.4329 -0.2730
  431TIP3    H122852   1.181   0.637   7.408 -2.6280  0.3677 -3.4467
  431TIP3    H222853   1.184   0.487   7.425 -1.1089  0.7232  0.4588
  432TIP3   OH222854   5.438   0.303   7.382 -0.2627  0.1244 -0.3245
  432TIP3    H122855   5.350   0.338   7.394 -0.3168  0.0157 -0.4104
  432TIP3    H222856   5.441   0.275   7.291 -0.7348 -1.5221  0.1302
  433TIP3   OH222857   6.960   0.476   1.298 -0.0502 -0.3639 -0.4796
  433TIP3    H122858   6.984   0.566   1.277  0.4256 -0.6490 -1.2061
  433TIP3    H222859   6.865   0.473   1.285  0.0140 -0.1123 -1.0548
  434TIP3   OH222860   4.344   0.852   0.495  0.1048 -0.7345 -0.6445
  434TIP3    H122861   4.290   0.827   0.420  1.9535  0.8774 -2.6537
  434TIP3    H222862   4.402   0.777   0.509  0.7616 -0.4780 -1.8700
  435TIP3   OH222863   2.515   6.121   0.979  0.6111 -0.1906 -0.3707
  435TIP3    H122864   2.519   6.197   0.921 -1.2721 -0.3078 -0.7328
  435TIP3    H222865   2.556   6.050   0.930  0.1300  0.0048 -1.0707
  436TIP3   OH222866   4.168   5.660   0.429  0.3170 -0.4411 -0.0701
  436TIP3    H122867   4.075   5.657   0.450  0.2393  0.1331 -0.3390
  436TIP3    H222868   4.198   5.745   0.461 -0.1410  1.2300 -3.5765
  437TIP3   OH222869   1.652   1.854   2.096  0.2098 -0.4735  0.3329
  437TIP3    H122870   1.597   1.781   2.066  0.0896 -0.1533 -0.2403
  437TIP3    H222871   1.740   1.832   2.064  0.0263  0.0160 -0.5439
  438TIP3   OH222872   4.338   0.994   1.701 -0.3240 -0.1961  0.1437
  438TIP3    H122873   4.296   0.908   1.692  0.1160 -0.3680 -0.2774
  438TIP3    H222874   4.394   0.985   1.778 -2.4738  0.6205  1.8911
  439TIP3   OH222875   2.761   6.686   0.798  0.6662 -0.1596 -0.1533
  439TIP3    H122876   2.813   6.646   0.868 -0.7612 -1.6844  0.1002
  439TIP3    H222877   2.686   6.725   0.843 -0.5898 -1.7011 -0.8352
  440TIP3   OH222878   4.095   1.012   0.590  0.0010  0.1744 -0.2727
  440TIP3    H122879   4.077   0.976   0.503  2.7666  0.8948 -1.2284
  440TIP3    H222880   4.180   0.976   0.614  0.3126  1.7679  1.1483
  441TIP3   OH222881   1.024   5.966   7.983  0.4157  0.1375  0.3852
  441TIP3    H122882   0.943   5.986   7.937  1.3457 -0.6493 -1.7357
  441TIP3    H222883   1.058   5.887   7.939  2.6129  0.7883  0.7590
  442TIP3   OH222884   0.012   5.917   2.150 -0.4496  0.0484  0.2143
  442TIP3    H122885   0.090   5.867   2.170 -1.2537 -1.2344  0.2673
  442TIP3    H222886  -0.058   5.873   2.199 -1.5504 -0.0712 -1.3794
  443TIP3   OH222887   2.835   6.064   5.941  0.0676 -0.0194  0.3590
  443TIP3    H122888   2.908   6.111   5.981  0.2030 -0.6851  0.9214
  443TIP3    H222889   2.856   5.972   5.954 -0.0668 -0.2535 -0.9448
  444TIP3   OH222890   1.904   4.362   7.131  0.5264 -0.2287  0.2711
  444TIP3    H122891   1.996   4.342   7.111  0.7999  0.1468  1.0666
  444TIP3    H222892   1.858   4.279   7.121  0.6580 -0.1232 -1.6128
  445TIP3   OH222893   6.099   4.556   0.256  0.2703  0.0873 -0.3710
  445TIP3    H122894   6.039   4.509   0.314  0.8412  0.4024  0.5115
  445TIP3    H222895   6.107   4.643   0.296  1.3994  0.0043 -0.3848
  446TIP3   OH222896   3.978   2.659   7.699 -0.2301  0.1848 -0.4114
  446TIP3    H122897   3.890   2.658   7.735 -0.7095  0.7310 -1.5344
  446TIP3    H222898   4.029   2.712   7.761 -0.5382 -0.5675  0.5192
  447TIP3   OH222899   1.878   6.694   2.029  0.1709  0.0832 -0.3262
  447TIP3    H122900   1.808   6.702   1.965 -0.6456 -0.4157  0.4820
  447TIP3    H222901   1.842   6.638   2.098  2.4521 -3.1650 -1.4815
  448TIP3   OH222902   4.215   3.581   0.063 -0.0938  0.2857  0.3128
  448TIP3    H122903   4.191   3.498   0.103 -2.1147  1.7285  2.3737
  448TIP3    H222904   4.255   3.631   0.134 -0.8527  1.7971 -0.2804
  449TIP3   OH222905   6.656   3.075   0.248  0.5564  0.1497 -0.4520
  449TIP3    H122906   6.593   3.121   0.304  0.4241 -1.0239  0.4173
  449TIP3    H222907   6.624   3.088   0.159 -1.0249 -0.5330 -0.0273
  450TIP3   OH222908   5.021   3.415   7.595  0.1736  0.2721  0.3395
  450TIP3    H122909   5.010   3.510   7.595 -0.5918  0.2068  1.7749
  450TIP3    H222910   5.046   3.394   7.505 -4.3157  1.3346 -1.4342
  451TIP3   OH222911   6.253   1.476   8.217 -0.5284  0.3370 -0.5361
  451TIP3    H122912   6.167   1.437   8.233 -0.1582 -0.8811 -1.3989
  451TIP3    H222913   6.306   1.405   8.183  0.8105  1.0993 -0.1200
  452TIP3   OH222914   6.065   3.464   1.075  0.4324  1.2281 -0.2278
  452TIP3    H122915   6.157   3.476   1.096  0.1593  0.6175  1.4922
  452TIP3    H222916   6.065   3.405   0.999  1.4823 -1.9393  2.0352
  453TIP3   OH222917   2.161   1.909   1.011  0.0218  0.0512  0.2072
  453TIP3    H122918   2.180   1.855   1.088 -0.3700  0.5892  0.6948
  453TIP3    H222919   2.247   1.925   0.972  0.0192 -2.4580 -1.0445
  454TIP3   OH222920   4.239   3.731   0.642  0.3482 -0.6182 -0.3801
  454TIP3    H122921   4.317   3.785   0.655 -1.2165  1.3770  1.4140
  454TIP3    H222922   4.273   3.648   0.610  3.4308 -0.5096  2.1045
  455TIP3   OH222923   2.305   5.074   1.212  0.0944 -0.0727 -0.3778
  455TIP3    H122924   2.307   4.978   1.213  1.0604 -0.0659 -0.5769
  455TIP3    H222925   2.375   5.099   1.151 -1.8121  0.7281 -2.3928
  456TIP3   OH222926   2.292   0.586   6.931  0.0591 -0.2464  0.3668
  456TIP3    H122927   2.260   0.633   7.008 -1.2223 -1.5963  0.7104
  456TIP3    H222928   2.344   0.651   6.884 -0.5464  1.1176  1.4729
  457TIP3   OH222929   6.272   4.372   7.296 -0.4939  0.0061  0.3225
  457TIP3    H122930   6.308   4.439   7.238 -1.4464 -0.0418 -0.3336
  457TIP3    H222931   6.213   4.321   7.241 -0.4642 -0.8171  1.0361
  458TIP3   OH222932   4.964   2.615   1.064 -0.1302 -0.0887  0.2502
  458TIP3    H122933   4.914   2.662   1.130  0.2357  2.1890 -0.9996
  458TIP3    H222934   4.926   2.527   1.063 -0.7558  0.0969  2.7728
  459TIP3   OH222935   2.748   4.679   6.713  0.2847 -0.2619  0.4861
  459TIP3    H122936   2.759   4.634   6.629 -1.6382  0.0034  0.0541
  459TIP3    H222937   2.758   4.609   6.779  1.4664 -0.5293  0.0522
  460TIP3   OH222938   6.973   1.647   8.097  0.2981 -1.0609 -0.2548
  460TIP3    H122939   7.062   1.638   8.064  0.7372  0.0689  0.5557
  460TIP3    H222940   6.964   1.579   8.164  1.2616  0.0271  1.0522
  461TIP3   OH222941   1.249   2.173   0.705 -0.1824  0.2256  0.1049
  461TIP3    H122942   1.298   2.161   0.786  0.0809  0.3220 -0.0379
  461TIP3    H222943   1.281   2.103   0.647  2.3028  2.2602 -1.1825
  462TIP3   OH222944   0.386   5.089   1.802 -0.0580  0.2863  0.7660
  462TIP3    H122945   0.344   5.116   1.720 -0.4630  0.6796  1.0995
  462TIP3    H222946   0.457   5.031   1.774 -0.7757 -0.3340  0.1906
  463TIP3   OH222947   1.633   0.071   8.325  0.0944  0.3265  0.2655
  463TIP3    H122948   1.606   0.148   8.375 -1.2475  1.0787 -1.5343
  463TIP3    H222949   1.706   0.102   8.271  0.7216 -0.1629  0.8097
  464TIP3   OH222950   1.307   5.649   6.554 -0.2343  0.4018 -0.2325
  464TIP3    H122951   1.265   5.735   6.552  0.7841  0.9172  0.0246
  464TIP3    H222952   1.381   5.660   6.614  0.0283 -0.5934 -0.3615
  465TIP3   OH222953   4.282   6.057   7.980  0.5959 -0.4398 -0.2594
  465TIP3    H122954   4.221   6.102   8.038 -1.7470 -1.4614 -1.7962
  465TIP3    H222955   4.325   6.127   7.931  0.3252  0.2664  0.4824
  466TIP3   OH222956   6.359   2.356   1.443 -0.5429  0.5834  0.3190
  466TIP3    H122957   6.339   2.380   1.533 -1.2404 -0.6628  0.5153
  466TIP3    H222958   6.294   2.290   1.420 -1.2122  1.7968 -1.5568
  467TIP3   OH222959   6.201   1.579   6.041  0.4513  0.1548  0.3268
  467TIP3    H122960   6.148   1.525   5.982 -0.5111  0.6036  0.7541
  467TIP3    H222961   6.205   1.665   5.998 -0.0968  0.4295  0.8186
  468TIP3   OH222962   4.642   4.879   6.595  0.1501 -0.0442  1.0517
  468TIP3    H122963   4.580   4.917   6.533  0.7203 -1.1938 -0.2838
  468TIP3    H222964   4.723   4.867   6.544  0.4455 -1.6106  1.8270
  469TIP3   OH222965   0.019   3.663   6.384 -0.0089 -0.3064 -0.4547
  469TIP3    H122966   0.030   3.756   6.364  0.6472 -0.7022 -2.1129
  469TIP3    H222967  -0.041   3.631   6.317  0.7285 -1.3108 -0.6593
  470TIP3   OH222968   3.088   0.456   6.930 -0.0275 -0.6254 -0.9380
  470TIP3    H122969   3.168   0.498   6.897  0.5193 -1.0856 -0.2565
  470TIP3    H222970   3.111   0.363   6.934  0.2032 -0.5368  1.3361
  471TIP3   OH222971   2.014   0.161   0.540  0.2445  0.0284  0.3521
  471TIP3    H122972   1.973   0.160   0.626 -0.6093 -0.0745 -0.0467
  471TIP3    H222973   2.028   0.069   0.518 -2.0564 -0.1273 -0.7649
  472TIP3   OH222974   0.349   4.389   7.873 -0.0037  0.5387  0.3137
  472TIP3    H122975   0.309   4.469   7.837 -0.2053  0.2448 -0.1127
  472TIP3    H222976   0.428   4.376   7.821 -1.1140 -0.7793 -1.1226
  473TIP3   OH222977   4.408   0.794   7.862 -0.3444  0.1348  0.1992
  473TIP3    H122978   4.466   0.739   7.915  2.8895  1.9436 -1.1815
  473TIP3    H222979   4.348   0.835   7.925  0.2060 -1.4050  1.7763
  474TIP3   OH222980   2.748   6.951   1.511 -0.0048 -0.3657  0.0995
  474TIP3    H122981   2.752   6.874   1.568 -3.6042  1.6139  3.5506
  474TIP3    H222982   2.763   7.025   1.570  1.7792  1.7640 -2.7639
  475TIP3   OH222983   2.046   6.749   2.636 -0.5048 -0.0065 -0.3920
  475TIP3    H122984   2.047   6.721   2.545  2.0584  0.6005 -0.6284
  475TIP3    H222985   2.041   6.845   2.632 -1.4740 -0.0219  0.1592
  476TIP3   OH222986   1.349   4.158   7.814 -0.4389 -0.0861  0.2885
  476TIP3    H122987   1.259   4.190   7.804 -0.5262 -0.8313 -2.1922
  476TIP3    H222988   1.339   4.064   7.829 -0.0815 -0.0921  0.4886
  477TIP3   OH222989   4.500   4.292   0.372  0.1043  0.2372  0.5497
  477TIP3    H122990   4.405   4.281   0.372  0.1216 -0.0367 -0.6170
  477TIP3    H222991   4.533   4.212   0.333  0.8599  0.0763  1.4947
  478TIP3   OH222992   4.546   2.583   2.887  0.5171 -0.1940  0.1034
  478TIP3    H122993   4.451   2.599   2.883  0.6312  0.3431 -0.6107
  478TIP3    H222994   4.581   2.628   2.811  1.4113 -0.0006  0.6151
  479TIP3   OH222995   0.360   5.018   1.172 -0.1608  0.2505 -0.2083
  479TIP3    H122996   0.372   4.970   1.254  2.6588 -0.9125 -1.1690
  479TIP3    H222997   0.316   4.957   1.113  0.2485  0.1016 -0.3634
  480TIP3   OH222998   0.503   5.292   2.330  0.0860  0.5752 -0.8002
  480TIP3    H122999   0.487   5.361   2.395 -0.1643  1.6463 -1.9687
  480TIP3    H223000   0.588   5.314   2.292  1.3857 -1.3860  0.7568
  481TIP3   OH223001   6.886   3.805   8.061 -0.5901 -0.7779  0.2313
  481TIP3    H123002   6.907   3.899   8.064 -0.7930 -0.6877 -0.8770
  481TIP3    H223003   6.924   3.770   8.142 -0.0631  0.1702  0.4139
  482TIP3   OH223004   4.237   3.921   7.557  0.9666  0.3054 -0.3333
  482TIP3    H123005   4.307   3.933   7.493  2.5420 -0.5224  1.1365
  482TIP3    H223006   4.283   3.912   7.641 -0.6190 -3.1600  0.3695
  483TIP3   OH223007   5.551   3.228   0.653 -0.3955 -0.3183 -0.1102
  483TIP3    H123008   5.626   3.241   0.711  0.7406  0.9682 -1.7943
  483TIP3    H223009   5.514   3.143   0.681  0.6705 -0.2090  1.8082
  484TIP3   OH223010   5.544   6.452   6.564 -0.0916 -0.4279 -0.4944
  484TIP3    H123011   5.483   6.386   6.533 -1.7570  1.2826 -1.0832
  484TIP3    H223012   5.592   6.479   6.486 -2.9062  2.4678 -1.4655
  485TIP3   OH223013   4.453   1.925   7.727 -0.2885 -0.1602 -0.3079
  485TIP3    H123014   4.395   1.867   7.778 -1.4791 -2.5877 -4.0492
  485TIP3    H223015   4.405   2.007   7.720 -0.2796  0.0999  1.9583
  486TIP3   OH223016   4.833   2.367   7.703 -0.5135 -0.2749  0.1950
  486TIP3    H123017   4.840   2.462   7.707  0.2446 -0.2696 -0.6762
  486TIP3    H223018   4.743   2.350   7.677 -0.8806  0.1684  1.1524
  487TIP3   OH223019   4.067   4.532   0.934  0.3829 -0.1403  0.4379
  487TIP3    H123020   4.155   4.499   0.952  0.4175 -0.3175 -0.0309
  487TIP3    H223021   4.051   4.509   0.842 -0.4044 -0.6882  0.6968
  488TIP3   OH223022   3.617   3.651   0.682 -0.0980  1.0476  0.3633
  488TIP3    H123023   3.710   3.642   0.665 -0.2987 -2.6194  0.2537
  488TIP3    H223024   3.611   3.663   0.777  0.5066 -1.0542  0.7153
  489TIP3   OH223025   0.742   5.357   7.361  0.2444  0.0292  0.2438
  489TIP3    H123026   0.819   5.389   7.409  1.7966  0.5087 -2.3593
  489TIP3    H223027   0.750   5.262   7.364  1.1705  0.0796 -0.3176
  490TIP3   OH223028   1.336   4.235   1.001 -0.1055 -0.4857 -0.0953
  490TIP3    H123029   1.285   4.238   0.921  0.4281  1.1989 -0.4023
  490TIP3    H223030   1.325   4.145   1.033 -0.2241 -1.2342 -2.0978
  491TIP3   OH223031   3.547   5.310   8.192  0.1971 -0.0358 -0.6324
  491TIP3    H123032   3.638   5.292   8.216 -0.2526 -0.7333  0.6637
  491TIP3    H223033   3.502   5.227   8.206 -0.8626  0.6113 -0.0336
  492TIP3   OH223034   0.666   4.250   6.653 -0.8873  0.2089  0.1424
  492TIP3    H123035   0.649   4.310   6.580 -0.0517  0.4955  0.1739
  492TIP3    H223036   0.724   4.298   6.711 -3.5156  0.9761  2.3279
  493TIP3   OH223037   3.725   5.682   0.060 -0.0961  0.0370 -0.2946
  493TIP3    H123038   3.733   5.777   0.071  0.4124 -0.1454  1.2101
  493TIP3    H223039   3.815   5.653   0.046  0.2920 -0.5425  2.7060
  494TIP3   OH223040   6.980   5.081   1.468 -0.0284 -0.4889 -0.6446
  494TIP3    H123041   6.977   5.009   1.531 -0.7055 -0.9500 -1.1877
  494TIP3    H223042   6.967   5.159   1.520  0.0604 -0.8104 -0.1318
  495TIP3   OH223043   6.043   6.530   0.971  0.0832  0.1479 -0.1899
  495TIP3    H123044   6.100   6.563   0.902  0.7204 -2.5375 -1.0722
  495TIP3    H223045   6.100   6.474   1.025 -1.0710 -0.2716  0.6550
  496TIP3   OH223046   6.147   2.115   8.305 -0.3599  0.6083  0.2375
  496TIP3    H123047   6.138   2.064   8.224 -1.8836 -1.6350  1.6934
  496TIP3    H223048   6.134   2.206   8.277 -1.0831 -0.1065 -1.9984
  497TIP3   OH223049   3.586   0.792   5.991 -0.9052  0.6167  0.8565
  497TIP3    H123050   3.622   0.737   5.922 -1.0460 -0.0323  1.2922
  497TIP3    H223051   3.532   0.856   5.945 -0.4133  0.6575  0.3165
  498TIP3   OH223052   3.237   3.697   6.393  1.0009  0.3325  0.0864
  498TIP3    H123053   3.236   3.652   6.309 -0.5689  2.1203 -0.9255
  498TIP3    H223054   3.259   3.788   6.372  2.7898  0.4110  1.9066
  499TIP3   OH223055   0.003   5.854   7.847 -0.4328 -0.3056 -0.2114
  499TIP3    H123056  -0.053   5.831   7.772 -1.0145  1.8683 -0.4897
  499TIP3    H223057  -0.056   5.853   7.922  0.0705 -2.0813  0.2245
  500TIP3   OH223058   3.969   2.256   0.759  0.8711  0.2348 -0.5782
  500TIP3    H123059   4.052   2.301   0.775  2.0575 -2.2556  1.0078
  500TIP3    H223060   3.915   2.278   0.835  0.2652  1.3700 -1.3140
  501TIP3   OH223061   0.400   3.683   8.282  0.0398  0.3696 -0.3148
  501TIP3    H123062   0.422   3.682   8.375  3.2774 -0.7112 -0.9370
  501TIP3    H223063   0.406   3.775   8.257 -1.4821  0.7517  0.6163
  502TIP3   OH223064   3.793   2.897   7.339 -0.7589  0.3186 -0.3631
  502TIP3    H123065   3.837   2.913   7.422 -1.4236  2.0355 -0.2987
  502TIP3    H223066   3.699   2.899   7.361 -0.9262 -1.3270 -0.8152
  503TIP3   OH223067   0.957   3.110   7.935  0.8288 -0.3630  0.1396
  503TIP3    H123068   0.952   3.019   7.964 -0.7675 -0.0713  0.9039
  503TIP3    H223069   1.033   3.145   7.981  1.5847 -1.3527 -0.3204
  504TIP3   OH223070   0.318   0.230   7.366 -0.0419  0.6075 -0.0648
  504TIP3    H123071   0.396   0.175   7.357  0.7424  2.0223 -3.0190
  504TIP3    H223072   0.249   0.170   7.395  1.4088 -1.3073 -0.4202
  505TIP3   OH223073   3.410   1.964   7.282 -0.3182 -0.1441 -0.2251
  505TIP3    H123074   3.498   2.001   7.286  0.3465 -1.5009 -1.2566
  505TIP3    H223075   3.398   1.923   7.368 -0.0799  0.3323  0.0383
  506TIP3   OH223076   4.409   0.033   2.250  0.3532 -0.4464  0.6287
  506TIP3    H123077   4.435  -0.018   2.173  1.1350  1.5610 -0.4978
  506TIP3    H223078   4.315   0.046   2.241  0.4402 -0.2366  0.0240
  507TIP3   OH223079   1.212   5.416   5.946 -0.4101  0.1187 -0.4707
  507TIP3    H123080   1.244   5.356   5.879 -1.6409  0.0295 -1.0001
  507TIP3    H223081   1.167   5.485   5.897 -2.3564 -0.5575  0.2973
  508TIP3   OH223082   3.954   3.161   6.648 -0.0960 -0.0524  0.4981
  508TIP3    H123083   4.019   3.226   6.622  1.0902 -1.7184 -0.9340
  508TIP3    H223084   3.887   3.166   6.580 -0.3447  0.1250  0.7536
  509TIP3   OH223085   1.076   2.299   7.610 -0.0919  0.0118  0.2795
  509TIP3    H123086   1.142   2.368   7.605 -0.7067  0.7661  1.9401
  509TIP3    H223087   1.109   2.239   7.676  0.3802 -1.2802 -1.0711
  510TIP3   OH223088   4.258   1.908   6.404 -0.1605 -0.2971  0.1301
  510TIP3    H123089   4.340   1.902   6.356 -0.3285  0.1453 -0.2128
  510TIP3    H223090   4.255   1.828   6.457 -0.0930 -0.9050 -0.7705
  511TIP3   OH223091   3.613   5.845   7.794 -0.0154 -0.1446  0.0137
  511TIP3    H123092   3.614   5.847   7.698  0.4192  1.9247  0.0202
  511TIP3    H223093   3.706   5.845   7.818 -0.1141  0.7754  0.4243
  512TIP3   OH223094   0.456   4.601   8.058 -0.7594  0.7809  0.3577
  512TIP3    H123095   0.417   4.522   8.019  0.9662 -0.8906  1.8406
  512TIP3    H223096   0.423   4.603   8.148 -1.7922  2.5415 -0.0014
  513TIP3   OH223097   5.083   4.811   7.461 -0.1667  0.3851  0.0036
  513TIP3    H123098   5.113   4.777   7.377 -2.2550 -1.3278 -0.1334
  513TIP3    H223099   5.076   4.905   7.448  1.7118  0.4467 -0.9743
  514TIP3   OH223100   4.305   1.063   0.230 -0.4136  0.0551 -0.6132
  514TIP3    H123101   4.380   1.032   0.179  1.5260  0.4141  1.7839
  514TIP3    H223102   4.308   1.158   0.223 -0.3758  0.0881 -0.2074
  515TIP3   OH223103   1.390   2.760   6.819 -0.6162  0.5451 -0.5946
  515TIP3    H123104   1.359   2.846   6.846  1.7236  1.1407  0.4620
  515TIP3    H223105   1.435   2.776   6.736  0.5219  0.5284  0.0025
  516TIP3   OH223106   4.619   3.906   2.203 -0.3917  0.6390  0.4314
  516TIP3    H123107   4.568   3.977   2.165 -1.8615 -1.8601 -2.8701
  516TIP3    H223108   4.630   3.929   2.295 -3.3313  3.6332  0.1951
  517TIP3   OH223109   5.022   1.430   1.987  0.4288  0.2233  0.3244
  517TIP3    H123110   5.116   1.449   1.982  0.3770  0.4406  0.1614
  517TIP3    H223111   4.995   1.466   2.072  0.7773 -1.1126  1.0295
  518TIP3   OH223112   2.328   6.266   1.170  0.1512 -0.0624  0.3421
  518TIP3    H123113   2.296   6.317   1.096 -1.1980 -1.8226 -0.3641
  518TIP3    H223114   2.398   6.211   1.133 -0.9501 -1.4032  0.1621
  519TIP3   OH223115   3.577   4.966   6.350 -0.8497 -0.1572 -0.3790
  519TIP3    H123116   3.652   4.949   6.294 -0.3340 -0.4158  0.3729
  519TIP3    H223117   3.540   4.880   6.368 -0.2896 -0.1976  0.6429
  520TIP3   OH223118   3.305   2.055   8.281 -0.3830 -0.2844  0.1570
  520TIP3    H123119   3.311   1.993   8.354 -0.8488 -0.0578  0.3899
  520TIP3    H223120   3.292   2.140   8.323  0.2073 -0.0282 -0.1596
  521TIP3   OH223121   5.324   0.786   6.314  0.7293 -0.0178  0.5324
  521TIP3    H123122   5.329   0.846   6.240 -0.5447  1.6252  1.6965
  521TIP3    H223123   5.328   0.842   6.391 -2.2628 -1.1503  1.6742
  522TIP3   OH223124   0.880   6.824   5.801  0.4319  0.5621  0.1717
  522TIP3    H123125   0.872   6.879   5.879  0.5576 -0.0669  0.6432
  522TIP3    H223126   0.894   6.885   5.729  1.1676  1.1238  0.7706
  523TIP3   OH223127   2.136   6.049   1.278 -0.2311 -0.8497  0.0802
  523TIP3    H123128   2.086   6.056   1.196 -2.0648  1.2359  1.2508
  523TIP3    H223129   2.219   6.093   1.260 -1.1974  0.9030 -0.3047
  524TIP3   OH223130   4.325   3.242   1.556  0.2108 -0.0466  0.9121
  524TIP3    H123131   4.253   3.186   1.527  2.3274 -1.3698 -2.4305
  524TIP3    H223132   4.310   3.326   1.513  0.1952 -0.0250  0.9600
  525TIP3   OH223133   0.194   6.036   7.933  0.4760  0.0144  0.7880
  525TIP3    H123134   0.167   6.109   7.988  1.8098  0.7112  0.5720
  525TIP3    H223135   0.113   5.995   7.905 -0.2546  0.4073  2.2520
  526TIP3   OH223136   0.543   2.644   7.974 -0.4970  0.0853  0.3332
  526TIP3    H123137   0.544   2.708   7.903 -0.0543  2.4226  2.2996
  526TIP3    H223138   0.633   2.641   8.005 -0.7016 -0.7781  0.8840
  527TIP3   OH223139   6.433   1.618   0.006  0.1155 -0.8661 -0.1107
  527TIP3    H123140   6.436   1.696  -0.050 -1.4129 -0.1333  0.7518
  527TIP3    H223141   6.360   1.567  -0.028 -0.6382 -0.5570  0.9927
  528TIP3   OH223142   3.965   6.292   0.321  0.4193 -0.5119  0.0066
  528TIP3    H123143   3.886   6.238   0.313 -1.0281  1.6108 -0.8812
  528TIP3    H223144   3.980   6.298   0.415 -0.7187 -0.6130  0.2073
  529TIP3   OH223145   2.008   4.474   5.877  0.7770  0.0089  0.9919
  529TIP3    H123146   1.925   4.500   5.836  0.5523 -1.4431  0.4598
  529TIP3    H223147   2.075   4.506   5.817  0.6610  1.4936  1.5915
  530TIP3   OH223148   1.537   0.375   7.558 -0.1099 -0.3779 -0.8527
  530TIP3    H123149   1.605   0.379   7.625  0.0978  1.0501 -1.1146
  530TIP3    H223150   1.501   0.464   7.555 -0.7165 -0.6409 -2.0223
  531TIP3   OH223151   6.731   0.093   1.666 -0.0341 -0.7730 -0.4186
  531TIP3    H123152   6.668   0.164   1.668 -1.1614 -1.7536  1.1275
  531TIP3    H223153   6.691   0.023   1.717  2.7551 -1.0425  1.6661
  532TIP3   OH223154   1.286   0.652   0.571 -0.4263  0.5789 -0.0856
  532TIP3    H123155   1.291   0.729   0.628 -2.1739 -1.5583  3.3091
  532TIP3    H223156   1.195   0.651   0.541 -0.6492 -0.5080  0.5633
  533TIP3   OH223157   5.124   1.490   1.044  0.2534 -0.1760  0.3081
  533TIP3    H123158   5.140   1.422   1.110  0.4646 -1.9317 -1.4286
  533TIP3    H223159   5.211   1.522   1.022  0.5706 -2.0256 -1.4491
  534TIP3   OH223160   4.737   4.486   1.878  0.2243 -0.3847 -0.7920
  534TIP3    H123161   4.667   4.527   1.929  0.3455 -0.2219 -0.7586
  534TIP3    H223162   4.814   4.488   1.934  0.4434  0.0945 -1.0990
  535TIP3   OH223163   0.067   3.951   1.573 -0.1466  0.3285  0.3627
  535TIP3    H123164   0.035   3.895   1.644 -0.3166  0.9709  0.8063
  535TIP3    H223165   0.097   3.890   1.506  0.0357 -0.2937  0.9951
  536TIP3   OH223166   2.234   2.477   0.823 -0.7584 -0.0706  0.1425
  536TIP3    H123167   2.183   2.400   0.800 -0.1165 -0.3990 -0.2105
  536TIP3    H223168   2.281   2.500   0.742  0.5112 -0.4526  0.7505
  537TIP3   OH223169   0.613   6.757   0.991 -0.5654  0.3344 -0.0496
  537TIP3    H123170   0.530   6.713   1.009 -0.0783 -0.0058  1.4956
  537TIP3    H223171   0.617   6.762   0.895 -1.0499 -2.2542 -0.2845
  538TIP3   OH223172   1.512   5.818   6.838  0.2789 -0.0664 -0.2121
  538TIP3    H123173   1.594   5.850   6.799 -0.1142 -0.4567 -1.4061
  538TIP3    H223174   1.483   5.890   6.894  0.7176  0.6622 -0.8901
  539TIP3   OH223175   6.090   5.434   1.478  0.1212 -0.7966 -0.0331
  539TIP3    H123176   6.073   5.343   1.500 -0.2317 -0.9120 -0.7811
  539TIP3    H223177   6.158   5.461   1.540 -0.1465 -1.4080  0.5359
  540TIP3   OH223178   3.622   0.270   0.838  0.2372  0.1548  0.3944
  540TIP3    H123179   3.637   0.364   0.835 -1.2464  0.4471  1.3457
  540TIP3    H223180   3.641   0.245   0.928  3.3197 -1.0045 -0.4518
  541TIP3   OH223181   0.914   6.568   7.473 -0.7199  0.3427  0.0706
  541TIP3    H123182   0.893   6.524   7.391 -0.1475 -1.7303  0.9652
  541TIP3    H223183   0.835   6.561   7.526 -0.5631  0.1865  0.2894
  542TIP3   OH223184   4.519   6.993   8.280  0.1182  0.3555  0.0934
  542TIP3    H123185   4.518   6.913   8.227  2.0239  0.4796 -0.1800
  542TIP3    H223186   4.580   6.974   8.350 -1.0621  0.8326  1.2963
  543TIP3   OH223187   4.718   3.828   7.854  0.0106 -0.1937  0.5388
  543TIP3    H123188   4.801   3.810   7.898  0.7571 -1.3595 -1.2451
  543TIP3    H223189   4.653   3.776   7.902  0.4015  0.2293  1.5501
  544TIP3   OH223190   6.222   3.424   7.035 -0.5832 -0.8489  0.5461
  544TIP3    H123191   6.181   3.353   6.985 -2.0478  2.2610 -3.1643
  544TIP3    H223192   6.309   3.433   6.997 -0.4771 -0.5366  0.8573
  545TIP3   OH223193   4.090   2.529   0.367 -0.3681  0.5273 -0.3932
  545TIP3    H123194   4.173   2.568   0.338 -0.6428  2.4621  1.1669
  545TIP3    H223195   4.115   2.443   0.400  0.4895 -0.2222 -2.7946
  546TIP3   OH223196   0.791   5.643   0.420  0.0667 -0.0446  0.2720
  546TIP3    H123197   0.725   5.617   0.484  0.1775 -0.0410  0.3883
  546TIP3    H223198   0.748   5.631   0.335  0.0799 -0.5030  0.3286
  547TIP3   OH223199   3.650   1.771   6.689  0.2890 -0.2878  0.7542
  547TIP3    H123200   3.624   1.859   6.716 -1.0108 -0.3558 -0.1340
  547TIP3    H223201   3.573   1.738   6.642  1.7402 -0.8157 -1.4121
  548TIP3   OH223202   5.494   1.242   8.363 -0.4549  0.0223  0.3340
  548TIP3    H123203   5.458   1.319   8.320 -0.5452 -0.4143 -0.3916
  548TIP3    H223204   5.545   1.277   8.436 -1.8647  0.6739  1.0422
  549TIP3   OH223205   5.851   0.071   0.575  0.2508 -0.4908  0.1132
  549TIP3    H123206   5.856   0.158   0.534 -1.5838  0.1701  1.1552
  549TIP3    H223207   5.940   0.054   0.604  1.2019 -0.1444 -2.3847
  550TIP3   OH223208   3.208   4.990   7.117  0.1480 -0.0830 -1.1495
  550TIP3    H123209   3.113   4.977   7.109 -0.0686  1.4647 -1.4325
  550TIP3    H223210   3.232   5.036   7.037  0.8273  1.1147 -0.2763
  551TIP3   OH223211   4.542   4.963   0.630  0.5953 -0.2488 -0.7297
  551TIP3    H123212   4.637   4.961   0.624  0.8277  0.3097  1.5910
  551TIP3    H223213   4.521   5.056   0.642 -0.4315 -0.1434 -2.9315
  552TIP3   OH223214   3.745   2.595   5.740  0.1495 -0.2435  0.3533
  552TIP3    H123215   3.797   2.545   5.676  2.4861  1.3828  0.8437
  552TIP3    H223216   3.775   2.564   5.825 -0.4766 -0.0291  0.6561
  553TIP3   OH223217   2.757   1.871   0.444  0.6106  0.1558 -0.6048
  553TIP3    H123218   2.757   1.959   0.407  0.8795  0.5004  0.1886
  553TIP3    H223219   2.845   1.859   0.480  0.2981 -0.0686  0.1129
  554TIP3   OH223220   6.764   3.335   7.172  0.1564  0.2780  0.1348
  554TIP3    H123221   6.830   3.343   7.103  0.1431 -0.6643  0.0061
  554TIP3    H223222   6.812   3.356   7.253  0.2096  1.2252 -0.1248
  555TIP3   OH223223   2.057   4.404   0.732 -0.3889 -0.0593  0.3426
  555TIP3    H123224   2.036   4.431   0.822  0.4002  1.3629  0.1305
  555TIP3    H223225   2.110   4.325   0.743  0.9582  0.9146  1.2412
  556TIP3   OH223226   0.710   5.398   7.690  0.5947 -0.5151  0.4782
  556TIP3    H123227   0.669   5.330   7.637  1.1057 -1.6290  1.4686
  556TIP3    H223228   0.660   5.477   7.671  0.0527 -1.1372 -0.7747
  557TIP3   OH223229   5.767   3.703   6.539 -0.2326  0.0178 -0.5253
  557TIP3    H123230   5.805   3.651   6.469  2.3558 -0.6705  1.2516
  557TIP3    H223231   5.740   3.639   6.605  1.4691  0.7348  0.9633
  558TIP3   OH223232   5.080   4.284   6.999  0.2126 -0.1882  0.5134
  558TIP3    H123233   5.032   4.339   6.938 -0.1792 -2.1812 -1.1004
  558TIP3    H223234   5.014   4.227   7.037  0.8439 -0.8314  0.6737
  559TIP3   OH223235   1.166   2.310   0.239  0.1352  0.9049  0.3889
  559TIP3    H123236   1.254   2.330   0.272  1.5290 -1.5700 -1.4000
  559TIP3    H223237   1.144   2.226   0.279  0.0717 -0.0957 -1.5962
  560TIP3   OH223238   2.549   5.045   8.275  0.3767 -0.2144 -0.0968
  560TIP3    H123239   2.504   5.085   8.200 -0.2249 -1.6898 -0.5705
  560TIP3    H223240   2.611   5.112   8.305  1.2849  0.1029 -2.4804
  561TIP3   OH223241   3.111   6.435   6.224  0.0411 -0.7517  0.3822
  561TIP3    H123242   3.079   6.433   6.134  1.2305 -1.4592 -0.0299
  561TIP3    H223243   3.031   6.436   6.277 -0.6837  0.2685 -0.6666
  562TIP3   OH223244   6.482   2.114   6.545  0.4531  0.1654 -0.4717
  562TIP3    H123245   6.410   2.063   6.582  1.2059  0.2438  1.1937
  562TIP3    H223246   6.496   2.077   6.458 -1.0774 -0.3547 -0.5176
  563TIP3   OH223247   6.263   5.290   7.383  0.4168  0.0733 -0.4286
  563TIP3    H123248   6.230   5.313   7.296 -0.8988  2.9015  0.7027
  563TIP3    H223249   6.323   5.360   7.406  0.4325 -0.4137  1.1147
  564TIP3   OH223250   5.604   5.411   6.120  0.4989  0.7515  0.1591
  564TIP3    H123251   5.655   5.484   6.083  1.2711  0.9847  1.6236
  564TIP3    H223252   5.621   5.339   6.060  0.0059  1.6589 -1.1238
  565TIP3   OH223253   1.837   2.146   7.920 -0.2836  0.2078  0.2690
  565TIP3    H123254   1.756   2.107   7.952 -0.0705  0.2178  0.8389
  565TIP3    H223255   1.834   2.135   7.825 -1.3948  1.0435  0.1828
  566TIP3   OH223256   4.666   6.007   0.814  0.3641 -0.2690  0.0576
  566TIP3    H123257   4.572   6.025   0.811  0.6346  1.2437 -0.6513
  566TIP3    H223258   4.692   6.032   0.903  0.4289  1.4539 -0.3982
  567TIP3   OH223259   0.600   2.901   2.200  0.4131 -0.2109  0.5158
  567TIP3    H123260   0.687   2.885   2.235  0.7429  4.0844  2.1362
  567TIP3    H223261   0.612   2.971   2.135 -1.7997  0.5106  0.7944
  568TIP3   OH223262   2.036   1.024   1.583 -0.0029  0.4752 -0.1119
  568TIP3    H123263   1.980   1.089   1.624 -0.3980  0.5900 -0.8114
  568TIP3    H223264   2.095   1.075   1.527  1.7303  0.4831  1.6113
  569TIP3   OH223265   0.891   3.360   6.603  0.2551 -0.2972 -0.4248
  569TIP3    H123266   0.960   3.414   6.642  1.1183 -1.2778 -0.5520
  569TIP3    H223267   0.836   3.422   6.556  0.5311  0.6185  0.4115
  570TIP3   OH223268   3.818   4.427   1.940 -0.2730 -0.4291 -0.0958
  570TIP3    H123269   3.790   4.483   1.868 -0.8454  1.8251  1.7673
  570TIP3    H223270   3.906   4.397   1.915 -0.3741  0.4188 -1.6062
  571TIP3   OH223271   3.326   5.807   0.201  0.8376  0.4557 -0.2574
  571TIP3    H123272   3.292   5.723   0.169  3.1393 -0.5277 -0.2823
  571TIP3    H223273   3.285   5.872   0.145 -0.6748 -0.6660 -0.5260
  572TIP3   OH223274   0.434   2.866   6.049  0.3174  0.2551  0.0659
  572TIP3    H123275   0.511   2.915   6.020  0.1341  0.8965  0.6542
  572TIP3    H223276   0.367   2.886   5.983  1.1371 -1.7640 -1.5111
  573TIP3   OH223277   4.755   6.480   7.635  0.2096  0.1143  0.1136
  573TIP3    H123278   4.736   6.522   7.719 -0.3889 -0.9025  0.5040
  573TIP3    H223279   4.722   6.541   7.569 -1.0022  0.1001  0.6816
  574TIP3   OH223280   1.785   5.143   6.669 -0.2059  0.0824  0.0522
  574TIP3    H123281   1.775   5.052   6.640  1.1332 -0.6681  1.7984
  574TIP3    H223282   1.819   5.189   6.592  0.9941 -1.3423 -0.3086
  575TIP3   OH223283   5.233   1.592   1.338 -0.2924 -0.4709 -0.4089
  575TIP3    H123284   5.140   1.606   1.352 -0.3189 -1.2931  0.3746
  575TIP3    H223285   5.244   1.497   1.342  0.4379 -0.4478 -1.4745
  576TIP3   OH223286   5.160   5.890   8.294 -0.2901  0.3944 -0.2679
  576TIP3    H123287   5.182   5.965   8.238 -0.0955  0.1487 -0.5249
  576TIP3    H223288   5.097   5.840   8.242 -1.3775  1.0143  0.4023
  577TIP3   OH223289   6.609   3.088   0.900 -0.4886 -0.0583 -0.3585
  577TIP3    H123290   6.690   3.058   0.941 -0.0906  0.7376 -0.5349
  577TIP3    H223291   6.573   3.151   0.962 -1.8111 -1.5606  0.4523
  578TIP3   OH223292   2.772   3.548   7.985 -0.0344  0.1469 -0.4568
  578TIP3    H123293   2.772   3.641   7.963 -0.0355 -0.0332 -1.2742
  578TIP3    H223294   2.706   3.510   7.926 -0.7848 -0.2102  0.5911
  579TIP3   OH223295   5.204   0.983   1.088  0.0443  0.2618 -0.0406
  579TIP3    H123296   5.261   0.955   1.160  0.3262  2.2792  0.5640
  579TIP3    H223297   5.141   1.042   1.128 -0.8482  0.1195 -1.1800
  580TIP3   OH223298   1.775   3.549   0.936  0.2382 -0.4828 -0.2295
  580TIP3    H123299   1.768   3.463   0.896 -1.8098 -0.2071 -0.5366
  580TIP3    H223300   1.779   3.532   1.030  0.1326 -0.9102 -0.3035
  581TIP3   OH223301   1.145   6.209   7.954 -0.3318 -0.4022 -0.0852
  581TIP3    H123302   1.098   6.129   7.977  1.1217 -1.2470  0.0556
  581TIP3    H223303   1.203   6.183   7.882  1.5143  0.0280  1.1816
  582TIP3   OH223304   4.268   3.268   8.213 -0.4382 -0.1784 -0.6665
  582TIP3    H123305   4.220   3.191   8.243 -3.3286  1.5034 -0.5754
  582TIP3    H223306   4.309   3.303   8.292 -1.3197 -0.2129 -0.1720
  583TIP3   OH223307   2.157   6.064   1.562 -0.2823 -0.1307  0.3186
  583TIP3    H123308   2.064   6.065   1.585 -0.4856  2.7133 -0.1740
  583TIP3    H223309   2.158   6.060   1.466  0.0746  0.0152  0.3151
  584TIP3   OH223310   1.083   3.801   7.383  0.1097  0.7147 -0.7026
  584TIP3    H123311   1.053   3.773   7.469 -1.1056  2.6815 -0.4255
  584TIP3    H223312   1.178   3.808   7.392  0.1713 -0.6619 -0.0390
  585TIP3   OH223313   0.697   1.277   7.591 -0.5757  0.0598 -0.1524
  585TIP3    H123314   0.738   1.220   7.656 -1.6433 -1.6451 -0.9055
  585TIP3    H223315   0.658   1.347   7.643  1.1119  0.3811  0.7707
  586TIP3   OH223316   5.320   4.813   7.775 -0.0034 -0.3304 -0.0541
  586TIP3    H123317   5.353   4.782   7.859 -0.9880  0.9702  0.8448
  586TIP3    H223318   5.250   4.752   7.752  0.4706 -0.8667 -0.0952
  587TIP3   OH223319   6.038   4.112   0.475 -0.4981 -0.0066 -0.1923
  587TIP3    H123320   5.944   4.131   0.469 -0.6586  0.2845  2.0941
  587TIP3    H223321   6.042   4.031   0.526  0.4836  0.2779  0.2072
  588TIP3   OH223322   2.958   0.706   1.578  0.1876  0.8634  0.1130
  588TIP3    H123323   2.925   0.769   1.514 -1.4954  2.4141  2.3493
  588TIP3    H223324   2.927   0.738   1.663  1.3067 -1.7012  1.6441
  589TIP3   OH223325   1.082   1.112   7.660  1.0032 -0.8452  0.6438
  589TIP3    H123326   0.987   1.120   7.652  0.9430 -1.9968  0.0547
  589TIP3    H223327   1.114   1.110   7.570  1.5646 -0.7260  0.8363
  590TIP3   OH223328   3.935   1.821   2.038  0.1889  0.3709 -0.4917
  590TIP3    H123329   3.859   1.880   2.037 -0.4655 -0.3471  1.7360
  590TIP3    H223330   3.902   1.739   2.002 -0.5589 -0.3572  1.6640
  591TIP3   OH223331   2.342   0.246   1.188 -1.1593 -0.0377  0.0380
  591TIP3    H123332   2.366   0.295   1.109 -2.2691  1.5644  0.6442
  591TIP3    H223333   2.425   0.229   1.232 -0.7669  1.7230  0.0196
  592TIP3   OH223334   3.560   5.740   6.514  0.0373 -0.3869 -0.4567
  592TIP3    H123335   3.560   5.669   6.579 -0.5108  1.4718  1.6868
  592TIP3    H223336   3.646   5.735   6.473  1.7825  0.3645  2.7994
  593TIP3   OH223337   4.790   5.709   2.054  0.2863 -0.0382  0.2769
  593TIP3    H123338   4.718   5.672   2.002  2.1871 -2.0759 -1.1071
  593TIP3    H223339   4.783   5.664   2.138  0.3718 -0.8270 -0.1195
  594TIP3   OH223340   3.229   1.914   7.687 -0.5061  0.5817  0.0867
  594TIP3    H123341   3.278   1.918   7.770  1.9884 -1.0004 -1.1620
  594TIP3    H223342   3.181   1.831   7.692  1.3247 -0.6241 -0.7606
  595TIP3   OH223343   3.771   1.530   8.280 -0.1715 -0.3813  0.0161
  595TIP3    H123344   3.851   1.581   8.270  1.1152 -2.1421  0.7384
  595TIP3    H223345   3.714   1.561   8.210  0.2182  2.4963  0.8698
  596TIP3   OH223346   5.120   6.033   0.277 -0.0821 -0.5741 -0.2993
  596TIP3    H123347   5.208   6.063   0.256 -0.8339  0.1811 -2.7236
  596TIP3    H223348   5.097   6.078   0.358  0.7813  1.3610 -1.0860
  597TIP3   OH223349   4.418   6.279   2.049  0.4610  0.0955 -0.6749
  597TIP3    H123350   4.365   6.357   2.069 -1.3593 -0.8751 -1.4454
  597TIP3    H223351   4.505   6.299   2.084  0.5710  3.2009 -2.3607
  598TIP3   OH223352   0.107   4.316   7.961 -0.2573 -0.0248  0.2006
  598TIP3    H123353   0.070   4.385   8.016 -1.0472 -1.7698  1.9587
  598TIP3    H223354   0.198   4.342   7.947 -0.4128  1.1385  1.1994
  599TIP3   OH223355   6.466   1.996   7.208 -0.0170  0.1681  0.4706
  599TIP3    H123356   6.519   1.940   7.265 -0.5896  0.3685  1.2257
  599TIP3    H223357   6.488   1.968   7.119  1.3411  0.2494  0.7616
  600TIP3   OH223358   0.768   4.183   7.879 -0.4519  0.4273  0.3929
  600TIP3    H123359   0.719   4.263   7.862  0.6510  0.8983 -0.7474
  600TIP3    H223360   0.827   4.174   7.804 -1.5957 -2.2739 -0.3291
  601TIP3   OH223361   3.941   5.476   6.898 -0.3630  0.5044 -0.1223
  601TIP3    H123362   3.854   5.512   6.918 -1.0855 -1.4794  0.4717
  601TIP3    H223363   3.924   5.389   6.862  1.4090 -0.8735  2.0842
  602TIP3   OH223364   6.362   3.457   0.147  0.3412 -0.3268 -0.0305
  602TIP3    H123365   6.439   3.476   0.093  0.3463  2.1511  0.7062
  602TIP3    H223366   6.398   3.417   0.226  0.5547 -1.8427 -0.8626
  603TIP3   OH223367   1.706   5.734   6.595  0.3410  0.5021  0.0732
  603TIP3    H123368   1.682   5.783   6.517 -0.6407  0.8783  0.5815
  603TIP3    H223369   1.719   5.644   6.565 -0.5127  0.5474 -0.4538
  604TIP3   OH223370   3.823   3.267   0.501  0.7737  0.2771  0.1251
  604TIP3    H123371   3.830   3.209   0.425  1.7072  0.3630  0.1333
  604TIP3    H223372   3.763   3.222   0.560  1.0141 -0.3915 -0.1326
  605TIP3   OH223373   4.857   1.850   8.269  0.2654  0.1161 -0.3028
  605TIP3    H123374   4.777   1.889   8.304  0.2854  0.6648 -0.8563
  605TIP3    H223375   4.853   1.868   8.176  0.6822 -0.5018 -0.4441
  606TIP3   OH223376   5.595   6.115   6.294 -0.4014  0.8152  0.5035
  606TIP3    H123377   5.538   6.173   6.345 -2.0759 -1.5399  1.4927
  606TIP3    H223378   5.609   6.040   6.351  1.2022 -0.0406 -0.9529
  607TIP3   OH223379   0.303   5.775   7.813  0.3252  0.2291  0.4563
  607TIP3    H123380   0.265   5.845   7.761  1.0668  1.7864  1.9233
  607TIP3    H223381   0.234   5.750   7.874 -0.4255 -1.3605 -0.9518
  608TIP3   OH223382   3.853   4.314   0.735 -0.3155 -0.1015 -0.2068
  608TIP3    H123383   3.788   4.363   0.786  0.8071  1.9803 -0.6642
  608TIP3    H223384   3.843   4.347   0.646  0.4989 -0.7173 -0.5326
  609TIP3   OH223385   2.355   3.319   0.846 -0.5852 -0.5240 -0.3740
  609TIP3    H123386   2.370   3.286   0.934 -0.6859 -2.1413 -0.9364
  609TIP3    H223387   2.262   3.344   0.844  0.0150  2.1574  0.7637
  610TIP3   OH223388   1.763   5.900   1.028  0.1337  0.1083 -0.2290
  610TIP3    H123389   1.845   5.852   1.011  0.8806  0.8617  1.0985
  610TIP3    H223390   1.715   5.843   1.089  0.1478  0.1545 -0.1751
  611TIP3   OH223391   1.306   4.535   8.003  0.3459 -0.1180  0.2306
  611TIP3    H123392   1.370   4.471   8.034  0.5460  0.4205  0.9456
  611TIP3    H223393   1.324   4.614   8.054 -1.6269 -0.2985  1.3051
  612TIP3   OH223394   6.791   2.419   7.809 -0.2795  0.5899 -0.0453
  612TIP3    H123395   6.760   2.498   7.853 -0.4081  0.6529 -0.2461
  612TIP3    H223396   6.863   2.449   7.754  2.9874 -0.1332  3.3857
  613TIP3   OH223397   3.780   4.975   1.026  0.2532  0.0117 -0.2900
  613TIP3    H123398   3.844   4.909   0.999 -0.2854 -1.5976  2.0446
  613TIP3    H223399   3.695   4.934   1.009 -0.1841  1.4212 -1.7307
  614TIP3   OH223400   3.028   5.772   0.443 -0.6502  0.2829 -0.4947
  614TIP3    H123401   3.034   5.678   0.430 -0.5493  0.2413 -0.1661
  614TIP3    H223402   2.944   5.797   0.404 -0.8366  0.0047 -0.2727
  615TIP3   OH223403   1.809   3.178   7.885  0.0354  0.0158  0.6329
  615TIP3    H123404   1.779   3.218   7.966 -1.3192 -1.0958  0.7152
  615TIP3    H223405   1.891   3.136   7.908  2.0166  3.3590  0.3368
  616TIP3   OH223406   0.312   5.342   7.838  0.1209 -0.1325  0.0683
  616TIP3    H123407   0.393   5.344   7.889  0.5505 -0.0885 -0.6115
  616TIP3    H223408   0.244   5.321   7.902  0.7196 -0.5502  0.5740
  617TIP3   OH223409   4.222   2.464   7.645  0.4220 -0.2240  0.6768
  617TIP3    H123410   4.207   2.371   7.659 -1.6195  0.1424  1.1859
  617TIP3    H223411   4.152   2.508   7.694  1.6997  1.6087  0.9829
  618TIP3   OH223412   3.487   1.696   7.413 -0.2579  0.0364 -0.0390
  618TIP3    H123413   3.567   1.676   7.363 -1.1570  0.5781 -1.7937
  618TIP3    H223414   3.518   1.746   7.488  0.9772  1.7018 -1.5377
  619TIP3   OH223415   4.701   1.195   7.319  0.0888  0.2369 -0.1700
  619TIP3    H123416   4.698   1.268   7.382 -1.1696 -0.1322  0.2291
  619TIP3    H223417   4.793   1.189   7.294  1.0592 -0.8365  3.1118
  620TIP3   OH223418   5.420   5.730   0.294 -0.1952 -0.1054 -1.0364
  620TIP3    H123419   5.437   5.653   0.349 -1.1745  0.4771  0.1370
  620TIP3    H223420   5.324   5.731   0.284 -0.0931  0.3044 -2.0223
  621TIP3   OH223421   0.581   3.346   7.690  0.1139 -0.3583  0.1684
  621TIP3    H123422   0.578   3.282   7.760 -0.7676 -0.2933  0.1987
  621TIP3    H223423   0.506   3.403   7.706 -0.9414 -1.1861 -1.6148
  622TIP3   OH223424   5.697   5.568   1.940  0.5553 -0.1023 -0.5341
  622TIP3    H123425   5.763   5.612   1.993  0.9209 -0.9875 -0.2382
  622TIP3    H223426   5.659   5.503   1.999 -0.0301 -0.1329 -0.9425
  623TIP3   OH223427   5.463   6.656   0.873 -0.3329  0.3886 -0.6536
  623TIP3    H123428   5.378   6.616   0.889  0.0432  0.2431  1.2715
  623TIP3    H223429   5.463   6.736   0.927  1.1421 -0.2173  0.3203
  624TIP3   OH223430   1.174   0.108   1.400 -0.2220  0.3602 -0.1662
  624TIP3    H123431   1.097   0.055   1.422 -0.7890  1.7002  1.2478
  624TIP3    H223432   1.156   0.193   1.439  1.5588  1.0031 -0.6715
  625TIP3   OH223433   3.201   3.134   6.285 -0.0321 -0.4881 -0.3804
  625TIP3    H123434   3.243   3.189   6.219  0.4614  1.7298  1.6409
  625TIP3    H223435   3.107   3.148   6.271  0.0527  2.2779  1.0183
  626TIP3   OH223436   2.239   0.287   0.252  0.1759 -0.1622  0.0055
  626TIP3    H123437   2.287   0.338   0.317 -0.9922 -0.2083  0.9305
  626TIP3    H223438   2.172   0.347   0.219  0.8883 -0.0630 -1.3614
  627TIP3   OH223439   5.723   5.626   6.026  0.3958  0.1936  0.2564
  627TIP3    H123440   5.782   5.681   5.974  1.3410  0.5481  1.6768
  627TIP3    H223441   5.655   5.686   6.057  0.3978  0.1786  0.2894
  628TIP3   OH223442   6.724   1.295   8.002 -0.6709 -0.3392 -0.3482
  628TIP3    H123443   6.775   1.339   8.070  1.4632  0.0099 -2.0416
  628TIP3    H223444   6.751   1.203   8.008  1.3891  0.0661 -2.1354
  629TIP3   OH223445   2.790   2.329   0.443  0.0564  0.3813  0.1602
  629TIP3    H123446   2.751   2.373   0.518 -0.9126  0.5061 -0.3961
  629TIP3    H223447   2.866   2.382   0.421 -0.5072  1.1933  0.1410
  630TIP3   OH223448   6.042   1.708   0.692  0.1348  0.4193  0.3381
  630TIP3    H123449   6.027   1.800   0.672 -1.2856  0.2940  0.6869
  630TIP3    H223450   5.956   1.667   0.684  0.9701 -1.1648 -1.1470
  631TIP3   OH223451   6.871   4.181   0.796 -0.2747 -0.5516 -0.5388
  631TIP3    H123452   6.908   4.129   0.724 -0.4822  0.3130 -1.2904
  631TIP3    H223453   6.948   4.222   0.836 -0.0764 -1.6695  0.2662
  632TIP3   OH223454   5.095   3.138   0.995 -0.1969  0.7254  0.2109
  632TIP3    H123455   5.168   3.136   1.057  0.0689  0.9378 -0.0935
  632TIP3    H223456   5.106   3.220   0.947 -1.4262  1.4416  1.0978
  633TIP3   OH223457   2.549   4.813   8.035  0.6509  0.6065  0.4689
  633TIP3    H123458   2.596   4.889   8.002  2.2834 -0.2151  0.7963
  633TIP3    H223459   2.555   4.819   8.130  2.4677 -0.8724  0.5022
  634TIP3   OH223460   3.844   3.892   7.802 -0.3306 -0.4107 -0.1461
  634TIP3    H123461   3.860   3.829   7.731 -0.5612  0.3312 -0.8741
  634TIP3    H223462   3.853   3.840   7.882  1.2002 -0.9994 -0.6612
  635TIP3   OH223463   6.076   0.273   2.119  0.2007 -0.2131 -0.0866
  635TIP3    H123464   6.045   0.343   2.060 -1.1807 -0.4693  0.2869
  635TIP3    H223465   6.154   0.239   2.077  0.3519  0.9196 -0.7716
  636TIP3   OH223466   2.590   1.389   7.794 -0.5878 -0.1078  0.1717
  636TIP3    H123467   2.630   1.412   7.710 -0.6170 -0.6065  0.0152
  636TIP3    H223468   2.661   1.394   7.857 -0.3159 -0.7995 -0.0724
  637TIP3   OH223469   2.917   3.861   0.122 -0.2004 -0.2589  0.0376
  637TIP3    H123470   2.969   3.826   0.194  0.8023  0.4476 -0.3252
  637TIP3    H223471   2.827   3.857   0.153  0.2253  0.1967  1.4033
  638TIP3   OH223472   6.536   2.719   8.146 -0.4120  0.5763 -0.2785
  638TIP3    H123473   6.585   2.796   8.175  0.6153  0.2891 -1.1922
  638TIP3    H223474   6.471   2.753   8.085 -1.0009  0.8905  0.5075
  639TIP3   OH223475   2.780   4.742   7.032  0.5795 -0.6420 -0.3235
  639TIP3    H123476   2.722   4.811   7.001  1.6562  0.7343  0.6114
  639TIP3    H223477   2.763   4.668   6.973 -0.7324  0.3378 -1.2341
  640TIP3   OH223478   5.564   2.294   8.166 -0.4151 -0.4236 -0.2092
  640TIP3    H123479   5.621   2.339   8.228 -1.8895  1.0394  0.1598
  640TIP3    H223480   5.521   2.364   8.118 -1.6480 -1.4686 -0.6938
  641TIP3   OH223481   4.871   3.421   1.929 -0.2117  0.1929  0.0066
  641TIP3    H123482   4.838   3.359   1.863 -1.1803  0.5611  0.1259
  641TIP3    H223483   4.811   3.495   1.924  0.9195  1.1299 -0.1140
  642TIP3   OH223484   5.237   1.310   1.247  0.2758  0.5054 -0.3086
  642TIP3    H123485   5.160   1.269   1.285  0.1588 -0.1597 -1.2363
  642TIP3    H223486   5.309   1.249   1.265 -0.0301 -0.5556 -2.3444
  643TIP3   OH223487   2.379   5.127   1.461 -0.1446  0.0716  0.3352
  643TIP3    H123488   2.345   5.124   1.372 -1.8511  1.8347  0.8590
  643TIP3    H223489   2.473   5.111   1.452 -0.4379 -0.7615 -1.6471
  644TIP3   OH223490   0.991   5.562   7.080  0.5615 -0.1507 -0.2550
  644TIP3    H123491   0.992   5.606   6.995  0.4644 -1.1313 -0.7805
  644TIP3    H223492   1.079   5.576   7.115  0.2035  1.3811  0.0975
  645TIP3   OH223493   5.654   4.433   0.940  0.0160  0.4766  0.2464
  645TIP3    H123494   5.635   4.398   1.027  1.8636  2.1778  1.4239
  645TIP3    H223495   5.744   4.465   0.945 -0.1652  1.6040 -1.9620
  646TIP3   OH223496   6.243   5.598   0.167 -0.2695  0.4494 -0.1466
  646TIP3    H123497   6.337   5.616   0.160 -0.0344  0.0017  1.3667
  646TIP3    H223498   6.201   5.684   0.156  0.2267  0.5292 -1.6915
  647TIP3   OH223499   1.940   0.813   1.023 -0.3904  0.0451 -0.2879
  647TIP3    H123500   1.963   0.722   1.005 -2.2200 -0.4474 -0.3229
  647TIP3    H223501   1.924   0.816   1.117 -0.7274  0.2471 -0.3532
  648TIP3   OH223502   1.704   2.687   6.909  0.0956  0.1930 -0.4457
  648TIP3    H123503   1.719   2.750   6.839  0.2457  1.6415  0.8258
  648TIP3    H223504   1.754   2.610   6.884  1.6345  1.3474 -1.0722
  649TIP3   OH223505   2.250   6.452   1.570 -0.3452  0.6243 -0.2138
  649TIP3    H123506   2.341   6.432   1.591  0.0069  1.6200 -0.6797
  649TIP3    H223507   2.198   6.402   1.633  0.5995  2.4232  2.1431
  650TIP3   OH223508   3.566   6.889   6.870  0.2152 -0.0883  0.1152
  650TIP3    H123509   3.661   6.886   6.883  0.0309 -1.8025  1.2494
  650TIP3    H223510   3.529   6.846   6.947 -1.6362  2.5358  0.8325
  651TIP3   OH223511   1.380   2.701   0.466 -0.0079 -0.3674  1.1666
  651TIP3    H123512   1.382   2.680   0.373  1.4595 -0.7658  1.2666
  651TIP3    H223513   1.287   2.701   0.488 -0.4367  0.6563 -0.4854
  652TIP3   OH223514   3.210   6.085   2.315 -0.3904 -0.3954  0.7646
  652TIP3    H123515   3.284   6.133   2.352 -0.8801  0.8631  0.1545
  652TIP3    H223516   3.217   5.997   2.353  0.3274  0.2470  2.1620
  653TIP3   OH223517   3.844   4.967   0.413 -0.7467  0.3138  0.2690
  653TIP3    H123518   3.835   5.057   0.444 -0.1835 -0.0724  1.6315
  653TIP3    H223519   3.757   4.944   0.381 -1.0649  1.1174  0.5266
  654TIP3   OH223520   3.113   4.954   0.056 -0.0748 -0.3148 -0.0482
  654TIP3    H123521   3.139   4.925  -0.031 -1.6530 -1.5632 -0.1348
  654TIP3    H223522   3.084   5.044   0.044 -0.3077 -0.4908 -0.8126
  655TIP3   OH223523   2.889   3.089   0.402 -0.3854 -0.3618 -0.1969
  655TIP3    H123524   2.843   3.021   0.452 -0.8309 -0.7787 -1.1390
  655TIP3    H223525   2.977   3.093   0.441 -0.1745 -1.8720 -0.4707
  656TIP3   OH223526   3.257   2.844   1.236 -0.0716  0.6239 -0.0730
  656TIP3    H123527   3.264   2.935   1.264 -3.2194  0.3721  1.9872
  656TIP3    H223528   3.290   2.793   1.311  1.5119 -0.0205 -1.1387
  657TIP3   OH223529   5.237   3.365   0.516 -0.1900 -0.0875  0.0125
  657TIP3    H123530   5.239   3.383   0.422  1.1248  0.0281  0.0522
  657TIP3    H223531   5.207   3.274   0.522 -1.1078  0.1628 -0.4572
  658TIP3   OH223532   0.431   3.932   1.246 -0.4210 -0.6776  0.3044
  658TIP3    H123533   0.473   4.016   1.262  0.5768 -1.0687 -0.1503
  658TIP3    H223534   0.412   3.932   1.152 -2.1065 -0.2282  0.6114
  659TIP3   OH223535   3.328   3.130   6.998 -0.4936 -0.4700  0.1946
  659TIP3    H123536   3.398   3.066   6.987 -0.1753 -0.0748 -0.1161
  659TIP3    H223537   3.261   3.104   6.935 -0.8630 -1.1572  0.8563
  660TIP3   OH223538   4.937   2.292   1.249  0.1927  0.4007 -0.5413
  660TIP3    H123539   4.899   2.205   1.236  1.4759 -0.3575  0.5062
  660TIP3    H223540   4.995   2.304   1.174 -0.1714  0.4672 -0.8153
  661TIP3   OH223541   0.900   1.844   7.229 -0.6149 -0.0198 -0.3875
  661TIP3    H123542   0.969   1.865   7.292  0.1888 -0.8120 -0.9741
  661TIP3    H223543   0.825   1.821   7.284 -0.3529  0.6420  0.2641
  662TIP3   OH223544   1.888   1.868   1.461  0.4305  0.6311  0.1344
  662TIP3    H123545   1.916   1.906   1.378  1.3765 -0.5223 -0.1016
  662TIP3    H223546   1.953   1.897   1.524  0.0810  0.9679  0.3420
  663TIP3   OH223547   1.844   2.556   8.299  0.9863  0.7854  0.8016
  663TIP3    H123548   1.853   2.503   8.220  0.0112  0.4910  0.8647
  663TIP3    H223549   1.915   2.527   8.356  1.4798  0.7468  0.1747
  664TIP3   OH223550   4.860   0.914   7.783 -0.4583 -0.1563  0.6811
  664TIP3    H123551   4.948   0.934   7.750 -0.4835  0.5436  1.0058
  664TIP3    H223552   4.801   0.953   7.718 -0.5085  1.1321  1.4658
  665TIP3   OH223553   2.539   6.617   2.157 -0.4571  0.0440  0.1265
  665TIP3    H123554   2.561   6.669   2.079 -2.2261 -1.5848 -1.5799
  665TIP3    H223555   2.508   6.682   2.220  1.6696  1.4889 -0.2216
  666TIP3   OH223556   2.944   0.704   7.486 -0.0876  0.5407 -0.0498
  666TIP3    H123557   2.926   0.665   7.400 -0.5776  1.4581 -0.3716
  666TIP3    H223558   2.858   0.732   7.517  0.2948  1.6734  0.0226
  667TIP3   OH223559   4.044   3.048   1.706  0.1063  0.2192 -0.7368
  667TIP3    H123560   3.954   3.075   1.723  0.4265  0.9133 -0.0647
  667TIP3    H223561   4.068   3.093   1.625 -0.5680 -1.0185 -1.6575
  668TIP3   OH223562   4.911   2.922   2.605  0.0174 -0.1786 -0.0701
  668TIP3    H123563   4.852   2.921   2.529 -0.9976 -0.6062  0.7104
  668TIP3    H223564   4.938   3.014   2.612 -1.4943  0.2714  0.2523
  669TIP3   OH223565   6.469   2.305   6.979  0.1847 -0.4205  1.1376
  669TIP3    H123566   6.563   2.287   6.982  0.0642 -0.9414  2.3553
  669TIP3    H223567   6.462   2.400   6.985  0.6972 -0.1459 -1.4997
  670TIP3   OH223568   6.994   3.318   6.554 -0.0495 -0.2389 -0.3610
  670TIP3    H123569   6.917   3.373   6.541 -0.3049  0.1477  2.2392
  670TIP3    H223570   7.066   3.381   6.561 -0.1863 -0.2306  1.5267
  671TIP3   OH223571   6.119   4.283   7.054 -0.1019 -0.2783  0.7840
  671TIP3    H123572   6.141   4.208   7.000  0.3789  0.0276  0.5451
  671TIP3    H223573   6.106   4.355   6.992 -0.0429 -0.0441  1.0400
  672TIP3   OH223574   0.108   4.474   7.080 -0.0088 -0.2274  0.3866
  672TIP3    H123575   0.203   4.461   7.079 -0.0266 -0.3230 -0.6495
  672TIP3    H223576   0.093   4.541   7.014 -0.5416  0.7456  1.4567
  673TIP3   OH223577   2.650   0.630   6.463  0.2623  0.0204  0.5756
  673TIP3    H123578   2.616   0.565   6.524 -0.7345 -0.6443 -0.6316
  673TIP3    H223579   2.690   0.579   6.393  1.7275  0.7722  0.8297
  674TIP3   OH223580   0.640   1.749   0.816 -0.3152 -0.0628  0.3227
  674TIP3    H123581   0.617   1.797   0.736 -1.3447 -0.9782  0.0508
  674TIP3    H223582   0.731   1.724   0.803  0.5136  2.4176  0.8011
  675TIP3   OH223583   3.928   6.149   1.060  0.0179 -0.9620 -0.3414
  675TIP3    H123584   3.935   6.245   1.056 -0.6336 -0.9056 -0.1606
  675TIP3    H223585   4.008   6.121   1.105 -0.0310 -0.4614  0.0633
  676TIP3   OH223586   2.666   6.826   6.971 -0.1432 -0.9090 -0.1000
  676TIP3    H123587   2.615   6.892   6.924  1.5978  1.1688  0.7787
  676TIP3    H223588   2.600   6.770   7.012 -1.7594  1.3275  0.5586
  677TIP3   OH223589   0.701   6.582   6.969  0.2891 -0.3671  0.2385
  677TIP3    H123590   0.645   6.579   7.047  0.0573  1.2775  0.1559
  677TIP3    H223591   0.789   6.598   7.004  0.3741 -0.7942  0.2267
  678TIP3   OH223592   1.462   2.957   7.880  0.4947  0.4010  0.0795
  678TIP3    H123593   1.401   3.012   7.831 -0.0671  1.6060  2.0138
  678TIP3    H223594   1.494   3.014   7.950 -0.2803 -1.7562  2.3473
  679TIP3   OH223595   2.729   2.602   5.879 -0.0771 -0.4100  0.4172
  679TIP3    H123596   2.716   2.692   5.847  0.5594  0.2449  1.9019
  679TIP3    H223597   2.763   2.555   5.804 -1.6014  0.2604 -0.7575
  680TIP3   OH223598   5.995   4.984   7.122  0.0014  0.3718  0.5021
  680TIP3    H123599   5.948   4.912   7.163 -0.6490 -1.5308 -3.1188
  680TIP3    H223600   5.959   5.063   7.163 -2.0484 -1.2180  1.9840
  681TIP3   OH223601   3.429   2.058   1.200 -0.4748 -0.4802  0.3748
  681TIP3    H123602   3.358   1.999   1.175 -0.1748 -0.0742 -1.6568
  681TIP3    H223603   3.484   2.006   1.259 -0.2487 -2.2589 -1.2934
  682TIP3   OH223604   2.086   1.894   1.645 -0.1964 -0.0355  0.5847
  682TIP3    H123605   2.178   1.923   1.642 -0.1477 -0.2233  0.0711
  682TIP3    H223606   2.085   1.826   1.712 -0.1785  0.6927  1.3389
  683TIP3   OH223607   6.574   4.016   0.266  0.0812  0.1749 -0.7750
  683TIP3    H123608   6.499   3.996   0.322 -0.4327  2.3013 -0.6346
  683TIP3    H223609   6.540   4.008   0.177  0.5980 -2.0652 -0.8303
  684TIP3   OH223610   0.974   1.593   7.102 -0.4753  0.2855  0.4340
  684TIP3    H123611   0.963   1.671   7.156  0.9164  1.3216 -0.7281
  684TIP3    H223612   1.033   1.620   7.032 -1.3422 -1.3408 -0.9789
  685TIP3   OH223613   0.679   1.191   1.928 -0.3246 -0.3938  0.2342
  685TIP3    H123614   0.716   1.262   1.981 -2.0011 -0.7908  2.0246
  685TIP3    H223615   0.607   1.156   1.980 -2.0517 -0.8713 -2.2948
  686TIP3   OH223616   0.928   4.696   0.784  0.3531 -0.4033  0.0175
  686TIP3    H123617   0.988   4.703   0.710 -0.4275 -0.2941 -0.6107
  686TIP3    H223618   0.946   4.774   0.837 -0.6680  0.7248 -1.2537
  687TIP3   OH223619   0.928   1.773   6.118 -0.3413  0.7046 -0.3820
  687TIP3    H123620   0.847   1.724   6.111 -0.8053  1.5421 -1.1883
  687TIP3    H223621   0.982   1.723   6.179 -1.3978  0.0560  0.0429
  688TIP3   OH223622   6.742   2.220   7.017  0.0304 -0.0162 -0.0281
  688TIP3    H123623   6.730   2.126   7.001  0.3453 -0.0066 -0.3396
  688TIP3    H223624   6.832   2.237   6.989  0.0752  0.3197  0.3133
  689TIP3   OH223625   5.779   1.088   6.867 -0.0915 -0.5689  0.1424
  689TIP3    H123626   5.807   1.170   6.906  2.6391 -1.6164  0.5726
  689TIP3    H223627   5.842   1.070   6.798  0.5065 -3.1227  1.2131
  690TIP3   OH223628   4.971   6.801   1.197  0.4693  0.4818  0.0332
  690TIP3    H123629   4.915   6.840   1.264  0.4831  0.5187  0.0236
  690TIP3    H223630   4.920   6.808   1.117  0.0671 -0.4093  0.2060
  691TIP3   OH223631   0.596   4.005   0.292  0.3257 -0.4625  0.0618
  691TIP3    H123632   0.504   4.008   0.318  0.0761  1.2749 -0.8496
  691TIP3    H223633   0.625   3.917   0.317 -1.3604 -0.7912  1.0484
  692TIP3   OH223634   2.988   4.342   5.754  0.5710 -0.3163  0.4899
  692TIP3    H123635   2.917   4.374   5.810  0.1933  1.7009 -1.0175
  692TIP3    H223636   2.952   4.263   5.713 -0.0817 -0.3618  1.1243
  693TIP3   OH223637   2.868   4.132   0.858 -0.2117 -0.5503 -0.4101
  693TIP3    H123638   2.921   4.205   0.827 -1.2201  0.2564 -0.2628
  693TIP3    H223639   2.824   4.166   0.936 -2.0292 -0.7379 -1.3067
  694TIP3   OH223640   3.058   0.121   0.907  0.3660 -0.2218 -0.3125
  694TIP3    H123641   3.025   0.198   0.861  1.7619  2.4281  2.7540
  694TIP3    H223642   2.980   0.083   0.949  0.1077  1.9272  1.3113
  695TIP3   OH223643   6.332   5.143   1.326 -0.0822  0.0320  0.0002
  695TIP3    H123644   6.356   5.230   1.359  0.3400  1.2970 -3.2556
  695TIP3    H223645   6.266   5.160   1.259 -0.2685 -2.2065 -0.4690
  696TIP3   OH223646   0.059   5.410   0.666 -0.0572 -0.1318  0.0567
  696TIP3    H123647   0.112   5.412   0.746 -1.4489 -1.2690  1.0439
  696TIP3    H223648   0.005   5.488   0.671  1.7494  1.3136 -1.2022
  697TIP3   OH223649   2.273   5.658   0.210 -0.1995  0.7518  0.3827
  697TIP3    H123650   2.369   5.654   0.208 -0.2172 -0.1125  0.6744
  697TIP3    H223651   2.245   5.602   0.138 -0.4869 -0.1858  1.2046
  698TIP3   OH223652   1.869   6.310   0.821 -0.0710 -0.3542  0.3037
  698TIP3    H123653   1.906   6.232   0.779 -0.3744 -0.6778  0.6297
  698TIP3    H223654   1.946   6.357   0.855  0.1122 -0.5243  0.1273
  699TIP3   OH223655   2.814   4.504   6.906  0.3104  0.3037 -0.2512
  699TIP3    H123656   2.891   4.463   6.865  0.3890  0.3960 -0.1959
  699TIP3    H223657   2.768   4.431   6.948 -0.8959 -0.1665 -2.2333
  700TIP3   OH223658   3.126   1.809   7.428  0.1893  0.4302  0.0172
  700TIP3    H123659   3.177   1.865   7.487 -0.5942 -0.4046  1.5158
  700TIP3    H223660   3.041   1.799   7.470 -0.9091  0.9055 -1.9212
  701TIP3   OH223661   2.781   0.831   2.086  0.0162 -0.5160 -0.2096
  701TIP3    H123662   2.803   0.896   2.019 -2.8459  1.2364  0.3754
  701TIP3    H223663   2.689   0.812   2.071 -0.9430  0.3846  3.4604
  702TIP3   OH223664   3.516   1.655   1.342 -0.0614 -0.5880  0.0581
  702TIP3    H123665   3.504   1.577   1.289  0.8927  0.4620 -1.7874
  702TIP3    H223666   3.557   1.718   1.284 -2.0865  1.8248  1.0251
  703TIP3   OH223667   4.600   5.768   1.021  0.0705  0.1965  0.3279
  703TIP3    H123668   4.580   5.675   1.030 -1.6637  0.5411  0.4719
  703TIP3    H223669   4.643   5.791   1.103  0.8042 -0.5398  0.1587
  704TIP3   OH223670   1.243   3.301   6.383  0.4208 -0.7083 -1.0484
  704TIP3    H123671   1.318   3.337   6.430  0.2495 -1.5961 -0.0595
  704TIP3    H223672   1.226   3.364   6.313  0.7931  0.5801 -0.0245
  705TIP3   OH223673   0.999   4.023   7.998 -0.1033  0.4770  0.1516
  705TIP3    H123674   1.020   4.084   7.927  2.0567 -0.1776  0.1676
  705TIP3    H223675   1.059   4.048   8.069 -0.7456 -0.2580  0.9751
  706TIP3   OH223676   1.229   0.840   1.006 -0.4299 -0.0753  0.6170
  706TIP3    H123677   1.320   0.818   0.985 -0.4303 -0.5969  1.1362
  706TIP3    H223678   1.177   0.783   0.949 -0.4472  1.0915 -0.5710
  707TIP3   OH223679   2.373   5.792   8.026  0.5679 -0.0382  0.1723
  707TIP3    H123680   2.370   5.700   7.997  0.4952 -0.3014  0.9992
  707TIP3    H223681   2.290   5.828   7.996 -0.1216 -0.6828  1.2532
  708TIP3   OH223682   1.893   1.938   0.943  0.0617  0.1088  0.2542
  708TIP3    H123683   1.980   1.903   0.959  0.0917 -1.0114 -1.9941
  708TIP3    H223684   1.852   1.941   1.030  1.0606 -2.8480  0.9486
  709TIP3   OH223685   5.325   2.259   1.938  0.4146  0.3212 -0.1214
  709TIP3    H123686   5.315   2.207   1.858 -1.4101 -0.5875  0.6417
  709TIP3    H223687   5.241   2.304   1.948 -0.3186 -1.4513  2.5287
  710TIP3   OH223688   2.340   0.261   5.964  0.2735  0.6797  0.4766
  710TIP3    H123689   2.392   0.330   5.922 -0.3316  1.2545  0.6612
  710TIP3    H223690   2.406   0.199   5.997  0.7727  0.3021 -1.1309
  711TIP3   OH223691   4.663   2.738   1.809  0.3547 -0.4815 -0.6298
  711TIP3    H123692   4.581   2.694   1.831  0.9798 -1.1729  0.3812
  711TIP3    H223693   4.717   2.670   1.770  1.0151 -0.4179  0.1520
  712TIP3   OH223694   3.472   0.537   7.650 -0.5134 -0.0278 -0.0110
  712TIP3    H123695   3.508   0.623   7.669  1.2392 -0.4840 -1.0085
  712TIP3    H223696   3.382   0.554   7.620 -0.1755  1.4375 -0.2613
  713TIP3   OH223697   5.175   4.841   6.630  0.0262  0.2109 -0.8446
  713TIP3    H123698   5.175   4.821   6.536 -0.6819 -1.6154 -0.4911
  713TIP3    H223699   5.083   4.834   6.656  0.0070  2.1237 -0.2623
  714TIP3   OH223700   5.983   3.635   7.073 -0.7176 -0.3303 -0.6899
  714TIP3    H123701   5.893   3.660   7.091 -0.7954 -1.0942  0.0371
  714TIP3    H223702   6.032   3.717   7.072 -1.1730 -0.0385  0.3931
  715TIP3   OH223703   5.041   0.737   2.408  0.1387  0.5944  0.1745
  715TIP3    H123704   5.028   0.783   2.325 -0.0743 -0.7247 -0.5454
  715TIP3    H223705   4.969   0.768   2.464 -0.2258  0.8362 -0.4234
  716TIP3   OH223706   4.083   5.749   0.696 -0.0043 -0.1499  0.6671
  716TIP3    H123707   4.123   5.740   0.782 -1.0812 -0.3850  1.1549
  716TIP3    H223708   4.060   5.841   0.689 -1.1642 -0.3864  1.2098
  717TIP3   OH223709   0.603   0.155   6.093  0.2579  0.6228  0.0130
  717TIP3    H123710   0.571   0.066   6.108  1.9396  0.2732  1.9048
  717TIP3    H223711   0.563   0.181   6.010 -0.5423 -1.7665 -0.4245
  718TIP3   OH223712   0.401   6.349   6.583 -0.1646 -0.3148  0.0389
  718TIP3    H123713   0.479   6.346   6.527  1.0774  0.4437  1.6383
  718TIP3    H223714   0.363   6.436   6.567  1.1342  0.5706  1.5210
  719TIP3   OH223715   3.622   2.732   2.575  0.0988  0.2112 -0.3387
  719TIP3    H123716   3.686   2.714   2.643  0.5507  0.8008 -0.5936
  719TIP3    H223717   3.557   2.663   2.583 -0.2798  0.7146  1.2021
  720TIP3   OH223718   5.463   0.996   0.128  0.3791 -0.0786  0.2639
  720TIP3    H123719   5.493   1.064   0.067 -0.9785 -0.5727 -0.9871
  720TIP3    H223720   5.539   0.981   0.185  0.7615  2.4140  0.5567
  721TIP3   OH223721   1.369   1.245   1.343  0.2424  0.2389 -0.2800
  721TIP3    H123722   1.386   1.290   1.426  0.3177 -0.1690 -0.0705
  721TIP3    H223723   1.275   1.225   1.346 -0.0010  1.2563 -0.8163
  722TIP3   OH223724   1.848   4.392   1.378 -0.6963 -0.5539  0.3768
  722TIP3    H123725   1.929   4.350   1.406 -0.7126 -0.3573  0.7199
  722TIP3    H223726   1.794   4.395   1.457 -0.5179  0.5287  0.4717
  723TIP3   OH223727   6.118   6.133   1.317 -0.0843 -0.5119 -0.1067
  723TIP3    H123728   6.030   6.126   1.353 -0.5633  1.5081 -0.7836
  723TIP3    H223729   6.120   6.069   1.246 -1.0136 -0.5424 -0.1092
  724TIP3   OH223730   1.783   0.875   2.138 -0.2854 -0.0302  0.3995
  724TIP3    H123731   1.877   0.868   2.156 -0.3183  0.7868  0.9317
  724TIP3    H223732   1.742   0.818   2.203 -0.2032  0.2026  0.6536
  725TIP3   OH223733   1.759   4.141   7.095  0.2204  0.0055  0.0508
  725TIP3    H123734   1.783   4.066   7.150 -0.8132  0.9725  1.9420
  725TIP3    H223735   1.671   4.121   7.064 -0.1390  0.4944  0.7276
  726TIP3   OH223736   5.622   5.919   7.067 -0.0989  0.0137 -0.1438
  726TIP3    H123737   5.651   6.009   7.079  1.1872 -0.2481 -1.0562
  726TIP3    H223738   5.636   5.878   7.152 -1.8725  0.9451  0.6527
  727TIP3   OH223739   1.530   5.120   7.987 -0.0176  0.2576 -0.6225
  727TIP3    H123740   1.598   5.104   7.921 -0.0091  1.2043 -0.8530
  727TIP3    H223741   1.454   5.150   7.936 -0.8187 -1.3269 -0.4317
  728TIP3   OH223742   5.198   3.260   6.904  0.3226  0.6039  0.0424
  728TIP3    H123743   5.237   3.217   6.827  1.2276  0.8903  0.3206
  728TIP3    H223744   5.171   3.345   6.872  1.1323  0.9072  0.1331
  729TIP3   OH223745   6.738   4.585   8.183 -0.0365 -0.5389 -0.1264
  729TIP3    H123746   6.692   4.569   8.101 -0.2621 -0.2385 -0.0601
  729TIP3    H223747   6.769   4.675   8.176 -1.4612  0.0683  0.7742
  730TIP3   OH223748   3.314   1.494   7.073  0.2657  0.0188 -0.3046
  730TIP3    H123749   3.232   1.528   7.036  0.5396  1.4248  0.3035
  730TIP3    H223750   3.310   1.518   7.166  1.7099  0.8508 -0.4274
  731TIP3   OH223751   1.490   0.555   0.403 -0.1212  0.5210 -0.5060
  731TIP3    H123752   1.557   0.574   0.470  0.3471 -3.4009  0.4297
  731TIP3    H223753   1.413   0.603   0.432  0.2678 -0.4756  2.5955
  732TIP3   OH223754   3.854   0.688   1.438 -0.0422 -0.4130  0.1762
  732TIP3    H123755   3.928   0.724   1.388  0.3279 -0.2463  0.8354
  732TIP3    H223756   3.794   0.656   1.371  0.3467  0.0048 -0.3881
  733TIP3   OH223757   0.618   4.792   1.031 -0.2367  0.0946 -0.0736
  733TIP3    H123758   0.646   4.875   1.069  0.6179 -0.2321  0.0361
  733TIP3    H223759   0.583   4.816   0.945  2.1708  0.3633 -1.0799
  734TIP3   OH223760   0.677   2.087   1.700  0.7725  0.0786 -0.4226
  734TIP3    H123761   0.589   2.095   1.738  0.7026  0.9734 -0.7435
  734TIP3    H223762   0.674   2.144   1.622  1.7701  0.4763 -0.1809
  735TIP3   OH223763   5.464   1.419   6.978 -0.1947 -0.0158  0.0095
  735TIP3    H123764   5.469   1.325   6.958 -0.3623 -0.0891  0.3113
  735TIP3    H223765   5.482   1.462   6.894  1.4671 -0.2957  0.1995
  736TIP3   OH223766   0.063   4.154   6.022  0.3629  0.3630 -0.0567
  736TIP3    H123767   0.013   4.165   6.103 -0.7312 -1.1508 -0.4844
  736TIP3    H223768   0.151   4.184   6.044 -0.1228  0.7674  1.4459
  737TIP3   OH223769   2.347   4.645   1.737 -0.6042 -0.0951  0.1601
  737TIP3    H123770   2.343   4.617   1.828  0.2906  0.6978  0.4529
  737TIP3    H223771   2.260   4.681   1.718 -0.8806 -0.5235  0.6050
  738TIP3   OH223772   0.015   0.735   0.857 -0.7316  0.3954 -0.0456
  738TIP3    H123773   0.004   0.820   0.901 -0.9486 -0.5274  1.7956
  738TIP3    H223774   0.038   0.757   0.767  1.4599  2.4347  0.9026
  739TIP3   OH223775   0.638   4.725   0.184  0.2339 -0.1201  0.1357
  739TIP3    H123776   0.597   4.720   0.271  0.7729  1.1384  0.4828
  739TIP3    H223777   0.663   4.817   0.175 -1.0162  0.0647 -1.9305
  740TIP3   OH223778   3.248   0.784   6.818  0.3488 -0.4281  0.1714
  740TIP3    H123779   3.228   0.844   6.746  1.8218 -0.5597 -0.3880
  740TIP3    H223780   3.280   0.705   6.775  1.5163 -0.4032  0.9590
  741TIP3   OH223781   1.370   4.272   7.269 -0.3537  0.3997  0.5501
  741TIP3    H123782   1.371   4.179   7.245  0.3139 -0.1493  2.4929
  741TIP3    H223783   1.454   4.286   7.312 -0.2024  2.0828 -0.2220
  742TIP3   OH223784   5.804   4.811   7.246 -0.1053  0.3687 -0.7727
  742TIP3    H123785   5.734   4.752   7.221  0.7482 -0.4971 -1.1963
  742TIP3    H223786   5.771   4.856   7.324 -1.6416  0.9649 -1.7220
  743TIP3   OH223787   4.464   1.080   7.294  0.1701 -0.2259 -0.1620
  743TIP3    H123788   4.466   1.068   7.199  0.9586 -1.1569 -0.0417
  743TIP3    H223789   4.541   1.133   7.313 -1.4396  2.3139 -0.3030
  744TIP3   OH223790   1.537   2.287   8.227 -0.0110 -0.2396  0.1315
  744TIP3    H123791   1.552   2.364   8.282 -1.0312  0.1281 -0.0821
  744TIP3    H223792   1.487   2.228   8.282  1.7766 -1.3030  0.7160
  745TIP3   OH223793   1.820   4.913   1.524  0.3662 -0.0967  0.2180
  745TIP3    H123794   1.889   4.978   1.533  0.6391 -0.3300 -0.1934
  745TIP3    H223795   1.836   4.871   1.440  0.3194 -0.8455  0.5732
  746TIP3   OH223796   5.902   1.412   6.151 -0.5412  0.2673  0.0774
  746TIP3    H123797   5.926   1.505   6.151  0.0606  0.1192  0.7783
  746TIP3    H223798   5.845   1.402   6.075  0.8124  0.8403 -1.0468
  747TIP3   OH223799   0.233   4.327   1.382 -0.0707  0.0298  0.5189
  747TIP3    H123800   0.246   4.338   1.476  1.8613  2.9824  0.0626
  747TIP3    H223801   0.224   4.416   1.349  1.8907 -0.6933 -2.3517
  748TIP3   OH223802   4.571   4.702   6.758 -0.0448  0.1497 -0.8147
  748TIP3    H123803   4.598   4.770   6.696 -0.0753  0.6561 -0.2932
  748TIP3    H223804   4.594   4.620   6.716 -2.0017  0.3529 -2.4528
  749TIP3   OH223805   3.426   4.229   0.315 -0.2013  0.3712  0.0508
  749TIP3    H123806   3.403   4.302   0.372  1.1867  1.7668 -1.0905
  749TIP3    H223807   3.360   4.232   0.245  0.1837  0.9267 -0.3007
  750TIP3   OH223808   1.635   4.309   8.281 -0.7118  0.2795  0.0219
  750TIP3    H123809   1.595   4.278   8.200  0.5078 -1.8803  0.1609
  750TIP3    H223810   1.563   4.345   8.332 -1.5290  1.5527 -1.9205
  751TIP3   OH223811   5.386   2.565   7.133 -0.7629 -0.0744 -0.1588
  751TIP3    H123812   5.383   2.504   7.206 -0.0431  0.7061  0.5363
  751TIP3    H223813   5.315   2.626   7.149 -0.1773  0.5038  0.2605
  752TIP3   OH223814   4.981   2.968   7.841 -0.2959 -0.3013  0.0881
  752TIP3    H123815   4.923   2.987   7.767  0.3391  0.1647 -0.3052
  752TIP3    H223816   4.963   3.038   7.904 -0.6383 -0.5385  0.2529
  753TIP3   OH223817   2.041   4.774   6.905  0.2185  0.0189  0.0625
  753TIP3    H123818   2.102   4.732   6.844 -0.3241  0.9162 -1.1545
  753TIP3    H223819   1.954   4.750   6.872 -0.0867  0.3684  0.5919
  754TIP3   OH223820   6.228   6.905   1.167 -0.1540  0.1488  0.4383
  754TIP3    H123821   6.273   6.820   1.171  0.6969  0.5682 -0.0632
  754TIP3    H223822   6.136   6.884   1.186 -0.6168 -1.3971 -2.8990
  755TIP3   OH223823   5.086   5.793   0.798 -0.1419 -0.4378  0.1808
  755TIP3    H123824   5.045   5.878   0.817 -1.0583 -0.2345 -2.3620
  755TIP3    H223825   5.177   5.814   0.779  0.2848 -0.4012  2.1066
  756TIP3   OH223826   2.877   0.169   1.757  0.0588 -0.2853  0.1471
  756TIP3    H123827   2.834   0.092   1.794  3.3165 -2.8758 -1.0416
  756TIP3    H223828   2.968   0.161   1.784  0.9503  2.0159 -1.8261
  757TIP3   OH223829   3.134   0.957   6.638 -0.2633 -0.3485 -0.5792
  757TIP3    H123830   3.090   1.041   6.655  1.5607  0.7180 -0.8618
  757TIP3    H223831   3.111   0.936   6.547  0.4003  0.5909 -0.9786
  758TIP3   OH223832   1.844   4.581   0.775  0.1019  0.0555  0.0254
  758TIP3    H123833   1.895   4.653   0.737  1.2463 -0.7441 -0.0279
  758TIP3    H223834   1.826   4.523   0.702 -0.3842  0.0313  0.1592
  759TIP3   OH223835   0.809   0.205   7.883 -0.4997 -0.2433  0.5360
  759TIP3    H123836   0.787   0.203   7.976 -0.1799  2.8245  0.8021
  759TIP3    H223837   0.728   0.229   7.839 -0.6415 -1.6477  0.0032
  760TIP3   OH223838   5.251   1.520   7.420 -0.3882  0.2767 -0.1660
  760TIP3    H123839   5.250   1.453   7.351 -0.7016  0.4281 -0.3128
  760TIP3    H223840   5.342   1.523   7.449 -0.1718  0.4796 -0.8424
  761TIP3   OH223841   3.501   0.710   1.712 -0.2753  0.6236 -0.4282
  761TIP3    H123842   3.501   0.781   1.648  1.3145  2.2047  1.1790
  761TIP3    H223843   3.442   0.740   1.781  1.2434  0.9534  0.7771
  762TIP3   OH223844   1.360   3.707   7.454  0.9400 -0.9128 -0.1564
  762TIP3    H123845   1.376   3.679   7.364  0.6314 -0.8680 -0.2260
  762TIP3    H223846   1.373   3.629   7.507  1.6649 -0.8123 -0.1815
  763TIP3   OH223847   2.689   3.103   0.906  0.3647 -0.0678 -0.2264
  763TIP3    H123848   2.629   3.151   0.848  1.8087  0.0560 -1.7185
  763TIP3    H223849   2.700   3.018   0.864  0.2259 -0.5795  0.7475
  764TIP3   OH223850   5.577   0.147   0.802 -0.5461  0.0077  0.6853
  764TIP3    H123851   5.668   0.128   0.780 -0.8046 -0.5535  0.0459
  764TIP3    H223852   5.582   0.202   0.880  0.3293 -0.2705  0.8408
  765TIP3   OH223853   2.020   0.122   5.932  0.0844  0.1261  0.6572
  765TIP3    H123854   2.091   0.092   5.988 -0.0694 -1.8111 -0.0948
  765TIP3    H223855   2.062   0.142   5.849 -0.2794 -1.7510 -0.0293
  766TIP3   OH223856   4.703   2.378   0.571 -0.2211 -0.2275 -0.5238
  766TIP3    H123857   4.737   2.382   0.482 -0.9131  0.3252 -0.7736
  766TIP3    H223858   4.633   2.313   0.567 -0.5488  0.1208 -0.4908
  767TIP3   OH223859   4.952   4.524   0.367 -0.6747 -0.7017  0.1060
  767TIP3    H123860   4.885   4.464   0.399 -1.6121  1.2350  2.0684
  767TIP3    H223861   4.904   4.589   0.315  0.2391 -1.2789 -1.5356
  768TIP3   OH223862   4.001   0.193   0.438  0.0044 -0.4778  0.1984
  768TIP3    H123863   4.074   0.191   0.499 -0.3235  2.4333  0.8385
  768TIP3    H223864   3.923   0.193   0.494 -0.4296 -1.2542 -0.3865
  769TIP3   OH223865   5.048   0.163   1.464  0.1436  0.1342 -0.3998
  769TIP3    H123866   5.000   0.193   1.386 -0.0750  0.3608 -0.1796
  769TIP3    H223867   5.040   0.236   1.525 -0.8655 -0.5842  0.3559
  770TIP3   OH223868   0.433   2.255   0.780 -0.3195 -0.0483  0.6617
  770TIP3    H123869   0.478   2.226   0.859  1.4403 -1.9858 -0.9403
  770TIP3    H223870   0.418   2.175   0.730 -1.7090  1.0794 -0.8266
  771TIP3   OH223871   0.134   5.815   2.434 -0.0396 -0.8200 -0.2179
  771TIP3    H123872   0.217   5.772   2.455  0.5941 -0.1290 -1.2313
  771TIP3    H223873   0.159   5.905   2.410 -1.1170 -0.5121 -0.2350
  772TIP3   OH223874   6.738   2.942   8.184 -0.0740  0.4436  0.2313
  772TIP3    H123875   6.760   2.973   8.096 -1.4406 -1.1025 -0.7011
  772TIP3    H223876   6.665   2.998   8.211 -2.1609 -1.3803 -1.2215
  773TIP3   OH223877   0.625   6.275   8.019  0.0100 -0.3803  0.6833
  773TIP3    H123878   0.531   6.287   8.013 -0.1778 -1.5218  1.0712
  773TIP3    H223879   0.662   6.359   7.991 -1.1014 -0.0431  0.1834
  774TIP3   OH223880   2.297   6.566   6.851 -0.8472 -0.0471 -0.2938
  774TIP3    H123881   2.285   6.658   6.826 -0.0619  0.4472  1.0558
  774TIP3    H223882   2.330   6.569   6.941 -0.8214 -1.6574 -0.2151
  775TIP3   OH223883   5.724   6.782   7.766 -0.3374  0.0799 -0.0831
  775TIP3    H123884   5.729   6.803   7.859  0.3125 -1.2436  0.1994
  775TIP3    H223885   5.691   6.692   7.763 -0.8524  0.2883 -1.1545
  776TIP3   OH223886   5.182   0.368   1.203 -0.2815  0.6976 -0.2244
  776TIP3    H123887   5.237   0.413   1.139 -0.0997  2.7597  1.2849
  776TIP3    H223888   5.215   0.278   1.203  1.5515  1.3177 -1.0327
  777TIP3   OH223889   2.352   5.918   2.239  0.3004 -0.9536  0.1590
  777TIP3    H123890   2.400   5.999   2.221 -3.9197  1.7985 -0.1233
  777TIP3    H223891   2.280   5.944   2.297 -2.3645 -4.0419 -1.3807
  778TIP3   OH223892   0.250   5.405   0.885 -0.3019 -0.4735 -0.4497
  778TIP3    H123893   0.335   5.414   0.928  0.3745  1.0516 -2.0086
  778TIP3    H223894   0.189   5.386   0.957  1.3332 -1.7112  0.6876
  779TIP3   OH223895   1.135   1.772   1.355 -0.1011 -0.4563 -0.1595
  779TIP3    H123896   1.173   1.701   1.302 -0.9684 -1.5506  0.6260
  779TIP3    H223897   1.198   1.844   1.347  0.3911 -1.0137 -1.6651
  780TIP3   OH223898   3.712   3.380   1.611  0.0639 -0.1117  0.0344
  780TIP3    H123899   3.694   3.292   1.644  1.6562 -0.6759 -0.5232
  780TIP3    H223900   3.798   3.402   1.648  0.7068  0.2896 -1.6291
  781TIP3   OH223901   4.947   0.663   7.886 -0.0887  0.1097 -0.3095
  781TIP3    H123902   4.974   0.723   7.955 -1.3620 -2.2360  2.4702
  781TIP3    H223903   4.940   0.717   7.807 -0.3744  3.3798  1.7860
  782TIP3   OH223904   2.179   1.719   7.036 -0.5844 -0.4429 -0.0564
  782TIP3    H123905   2.087   1.730   7.056 -0.9658 -1.6544 -1.0148
  782TIP3    H223906   2.195   1.777   6.961 -0.4854 -0.0046  0.3012
  783TIP3   OH223907   2.672   4.885   6.541  0.0645  0.0248 -0.1472
  783TIP3    H123908   2.754   4.890   6.492  0.2486  0.0840  0.1612
  783TIP3    H223909   2.687   4.815   6.605 -0.1506 -0.0096 -0.1348
  784TIP3   OH223910   5.775   4.165   0.343 -0.6467  0.2382 -0.1332
  784TIP3    H123911   5.836   4.188   0.273 -1.1407  2.1213  0.0147
  784TIP3    H223912   5.693   4.147   0.297 -0.3580 -1.0231 -0.2132
  785TIP3   OH223913   5.191   4.165   6.782  0.6659 -0.1079 -0.0562
  785TIP3    H123914   5.164   4.168   6.874 -0.7601  0.3884 -0.4634
  785TIP3    H223915   5.203   4.257   6.758 -0.7451 -0.0926 -0.8329
  786TIP3   OH223916   5.121   2.792   1.510  0.2490  0.7870  0.4149
  786TIP3    H123917   5.178   2.837   1.448  1.6480  0.3741  1.3605
  786TIP3    H223918   5.087   2.861   1.567  0.4914  0.9369  0.3783
  787TIP3   OH223919   6.523   6.040   8.019 -0.0296 -0.3292 -0.4177
  787TIP3    H123920   6.587   6.042   7.948 -0.9711  0.5988 -1.2737
  787TIP3    H223921   6.522   6.131   8.051 -1.5692 -0.1093 -1.0330
  788TIP3   OH223922   6.723   0.214   1.126  0.5153 -0.1041 -0.2772
  788TIP3    H123923   6.628   0.203   1.132  0.4034  0.3912 -1.0647
  788TIP3    H223924   6.739   0.304   1.155  0.6417  0.1249 -1.0321
  789TIP3   OH223925   6.265   4.276   0.856 -0.0021 -0.7652  0.9169
  789TIP3    H123926   6.201   4.338   0.821  0.7670 -0.5141 -0.0955
  789TIP3    H223927   6.218   4.228   0.924 -1.3973 -0.9107 -0.1145
  790TIP3   OH223928   1.751   5.670   7.756 -0.3195  0.5688 -0.1546
  790TIP3    H123929   1.698   5.684   7.677 -0.9681  0.3487  0.2365
  790TIP3    H223930   1.720   5.587   7.792  1.4538 -0.4414 -0.8168
  791TIP3   OH223931   6.692   4.273   5.943 -0.0473  0.4373 -0.2906
  791TIP3    H123932   6.698   4.227   6.027 -1.0632  0.2107 -0.3363
  791TIP3    H223933   6.651   4.357   5.964 -0.6396  0.2319 -0.6144
  792TIP3   OH223934   1.036   6.229   0.728 -0.0444  0.1846  0.4919
  792TIP3    H123935   1.071   6.304   0.680  0.4825 -1.4321 -1.7895
  792TIP3    H223936   1.080   6.232   0.813  3.0792  0.2226 -1.0044
  793TIP3   OH223937   0.837   6.212   6.646 -0.3598  0.1090  0.4437
  793TIP3    H123938   0.784   6.282   6.684  0.6833  1.0155  0.2772
  793TIP3    H223939   0.901   6.192   6.714 -0.2009 -0.1894  0.2053
  794TIP3   OH223940   0.199   0.986   0.703  0.0685  0.0295  0.4075
  794TIP3    H123941   0.226   1.073   0.671 -0.0758  0.3932  1.2524
  794TIP3    H223942   0.105   0.982   0.686 -0.2851  0.7916  2.0236
  795TIP3   OH223943   0.406   3.593   7.723  0.3046  0.1252  0.6493
  795TIP3    H123944   0.429   3.685   7.737 -0.1592 -0.0447  2.8321
  795TIP3    H223945   0.346   3.595   7.648 -0.0232  1.6523  0.9162
  796TIP3   OH223946   1.605   5.093   6.902 -0.2190  0.2156  0.0334
  796TIP3    H123947   1.541   5.095   6.831  0.0242 -1.2973 -0.2654
  796TIP3    H223948   1.690   5.094   6.858 -0.0283 -2.8637  0.0776
  797TIP3   OH223949   1.206   5.430   1.582  0.1797 -0.5557 -0.7848
  797TIP3    H123950   1.267   5.404   1.513 -0.0082 -0.8027 -0.8613
  797TIP3    H223951   1.213   5.361   1.648  0.3996 -0.2928 -0.5280
  798TIP3   OH223952   1.642   6.701   7.311  0.3019 -0.7514  0.4503
  798TIP3    H123953   1.600   6.775   7.266  0.5434 -0.1533  1.1985
  798TIP3    H223954   1.576   6.671   7.373  0.2868 -1.0313  0.2996
  799TIP3   OH223955   1.472   1.075   1.827  0.0543 -0.0354 -0.9705
  799TIP3    H123956   1.420   0.994   1.824 -0.2226  0.1255 -0.6613
  799TIP3    H223957   1.519   1.070   1.910 -0.8281  0.6367 -0.4135
  800TIP3   OH223958   3.413   4.827   1.539 -0.1366 -0.4199 -0.0448
  800TIP3    H123959   3.391   4.752   1.484 -1.6903 -0.9433  1.2454
  800TIP3    H223960   3.490   4.799   1.588 -0.5984 -1.1175  0.2923
  801TIP3   OH223961   4.256   0.793   6.748 -0.1946 -0.0450  0.4645
  801TIP3    H123962   4.194   0.857   6.713 -1.0752  0.2021  2.3781
  801TIP3    H223963   4.223   0.771   6.835  2.9996  1.0252  2.1231
  802TIP3   OH223964   0.072   0.265   1.133 -0.7160  0.0453 -0.2638
  802TIP3    H123965   0.144   0.307   1.087 -0.7085  1.7418  1.1658
  802TIP3    H223966   0.025   0.338   1.176 -2.8246 -1.0727 -0.5142
  803TIP3   OH223967   0.109   1.684   0.686 -0.2335 -0.2120  0.4965
  803TIP3    H123968   0.082   1.641   0.767  0.1420 -0.9833  0.2124
  803TIP3    H223969   0.204   1.695   0.694 -0.4527  1.7609  1.1326
  804TIP3   OH223970   4.880   1.611   7.370 -0.0795 -0.1591  0.0211
  804TIP3    H123971   4.870   1.649   7.457 -0.7106 -0.2343 -0.0161
  804TIP3    H223972   4.942   1.669   7.325 -1.4468  1.1622 -0.2188
  805TIP3   OH223973   1.509   4.886   1.005  0.0491  0.2050  0.3191
  805TIP3    H123974   1.575   4.955   1.010  0.6253 -0.3162  0.0858
  805TIP3    H223975   1.452   4.901   1.081 -0.6527  1.7400 -0.4688
  806TIP3   OH223976   3.009   4.346   0.147  0.4836 -0.4236 -0.6901
  806TIP3    H123977   2.927   4.314   0.111  0.5810 -0.9358 -0.4801
  806TIP3    H223978   3.050   4.268   0.186 -0.2976  0.3321  1.8509
  807TIP3   OH223979   2.273   3.459   2.339 -0.0245  0.1104 -0.1469
  807TIP3    H123980   2.332   3.474   2.413 -0.3977  1.7040 -0.1525
  807TIP3    H223981   2.224   3.381   2.364  0.6343 -0.0258  0.7816
  808TIP3   OH223982   4.398   0.452   7.122 -0.3897 -0.0914  0.1015
  808TIP3    H123983   4.442   0.403   7.191 -0.8927  0.1795  0.6349
  808TIP3    H223984   4.458   0.523   7.100 -0.5291  0.2453  0.7840
  809TIP3   OH223985   3.474   0.763   7.317 -0.2213 -0.2017 -0.0167
  809TIP3    H123986   3.522   0.680   7.314  0.7314  0.3262  0.0998
  809TIP3    H223987   3.424   0.765   7.236  1.7637  0.2639 -1.3091
  810TIP3   OH223988   2.986   0.120   7.709  0.4857  0.0405  0.0505
  810TIP3    H123989   3.003   0.163   7.625  2.3235 -0.2578  0.2220
  810TIP3    H223990   3.050   0.049   7.713 -0.7124 -1.0300  0.9690
  811TIP3   OH223991   3.204   2.471   7.861  0.2181  0.2931 -0.5974
  811TIP3    H123992   3.142   2.520   7.808 -2.6918 -3.6877 -1.3006
  811TIP3    H223993   3.203   2.383   7.825  2.8132 -1.1487  2.3313
  812TIP3   OH223994   0.763   3.481   0.508  0.8450  0.2757 -0.1461
  812TIP3    H123995   0.765   3.414   0.440  1.0847  0.1198  0.0101
  812TIP3    H223996   0.711   3.442   0.578  3.1336 -0.8699  1.0627
  813TIP3   OH223997   1.655   5.437   6.566 -0.4401  0.3902  0.3446
  813TIP3    H123998   1.614   5.461   6.649 -0.7236 -0.8802  0.6016
  813TIP3    H223999   1.746   5.417   6.589 -0.1022  1.5226  0.0684
  814TIP3   OH224000   3.623   6.154   1.027 -0.6547  0.7734  0.3547
  814TIP3    H124001   3.622   6.221   0.959  1.5852 -0.7757 -1.3973
  814TIP3    H224002   3.705   6.168   1.073 -0.7598  0.0388  0.7869
  815TIP3   OH224003   2.203   6.245   8.266  0.1068 -0.0194  0.0742
  815TIP3    H124004   2.110   6.226   8.274  0.2497 -0.1284  1.8189
  815TIP3    H224005   2.208   6.309   8.195 -0.9911 -1.8955 -1.8135
  816TIP3   OH224006   2.162   1.292   7.901  0.0869 -0.4964  0.1023
  816TIP3    H124007   2.161   1.387   7.916 -0.2719 -0.1078 -2.1218
  816TIP3    H224008   2.162   1.254   7.989  1.0304  1.5606  1.0412
  817TIP3   OH224009   5.098   0.900   7.624 -0.3918  0.0596  0.4697
  817TIP3    H124010   5.161   0.971   7.612 -2.1350  1.4181 -1.3350
  817TIP3    H224011   5.152   0.822   7.634  1.5904  1.3125  0.0913
  818TIP3   OH224012   6.035   6.920   0.731  0.4239 -0.1601  0.3899
  818TIP3    H124013   5.984   6.951   0.805  0.2313 -3.4054  1.8019
  818TIP3    H224014   6.116   6.886   0.770  0.6378 -1.3012 -0.9276
  819TIP3   OH224015   5.835   0.144   1.157  0.1142 -0.1517 -0.4054
  819TIP3    H124016   5.809   0.235   1.148  0.4568 -0.0324 -0.2097
  819TIP3    H224017   5.920   0.147   1.202  0.0656 -0.5707 -0.2769
  820TIP3   OH224018   4.023   2.389   8.050 -0.8384 -0.2581 -0.0796
  820TIP3    H124019   4.036   2.481   8.025 -0.6673 -0.2997 -0.1447
  820TIP3    H224020   3.998   2.392   8.142 -0.6503 -0.1565 -0.0307
  821TIP3   OH224021   4.927   2.811   0.372 -0.4335  0.1126 -0.3451
  821TIP3    H124022   4.856   2.788   0.312 -1.4272 -0.1611  0.8876
  821TIP3    H224023   4.957   2.727   0.408  1.3779  0.0975 -1.7386
  822TIP3   OH224024   4.492   3.652   7.903  0.2235 -0.4942 -0.1103
  822TIP3    H124025   4.488   3.563   7.868 -0.5306 -1.1189  1.4460
  822TIP3    H224026   4.404   3.687   7.891  0.6229  0.2254 -1.0935
  823TIP3   OH224027   1.281   2.523   1.668  0.1581 -0.3890 -0.1467
  823TIP3    H124028   1.262   2.584   1.596  1.3598 -1.8665 -1.8081
  823TIP3    H224029   1.196   2.505   1.707 -0.8140 -0.8199 -2.2951
  824TIP3   OH224030   0.218   1.812   7.006  0.7404 -0.3324 -0.6439
  824TIP3    H124031   0.123   1.802   6.996  0.7911  0.2007 -1.8671
  824TIP3    H224032   0.237   1.776   7.092 -0.6153 -0.1852 -0.2620
  825TIP3   OH224033   0.482   5.673   7.207 -0.5939  0.0324  0.1184
  825TIP3    H124034   0.522   5.613   7.269  1.3152  0.4691 -0.6231
  825TIP3    H224035   0.489   5.759   7.249  0.5735  0.3091 -0.6012
  826TIP3   OH224036   1.927   3.699   1.303 -0.5076  0.1281  0.6723
  826TIP3    H124037   1.986   3.747   1.245 -1.6939 -0.5874 -1.2048
  826TIP3    H224038   1.887   3.766   1.358  0.0151  0.9396  0.0749
  827TIP3   OH224039   0.348   6.815   6.988  0.1650 -0.3074  0.4634
  827TIP3    H124040   0.386   6.802   6.902 -0.8631 -0.3538  0.0021
  827TIP3    H224041   0.362   6.732   7.034  0.3525 -0.4204  0.1991
  828TIP3   OH224042   2.409   2.029   1.005 -0.3395  0.6229 -0.2264
  828TIP3    H124043   2.396   2.084   1.083 -1.2644  0.9505 -0.6048
  828TIP3    H224044   2.492   2.059   0.969  0.1151  0.4584  0.6347
  829TIP3   OH224045   3.542   3.989   6.741  0.2541  0.1703  0.1787
  829TIP3    H124046   3.462   4.021   6.784 -1.8687  0.0762 -3.2674
  829TIP3    H224047   3.545   3.896   6.764  0.1993  0.4588  1.4485
  830TIP3   OH224048   1.270   1.649   7.964 -0.5276 -0.1499  0.1774
  830TIP3    H124049   1.309   1.669   8.049 -1.2201  0.7802  0.2951
  830TIP3    H224050   1.335   1.677   7.900 -0.4723  0.2057  0.3877
  831TIP3   OH224051   1.596   6.951   7.237  0.3415  0.2649 -0.3133
  831TIP3    H124052   1.517   6.989   7.278  0.6285 -1.0071  1.5623
  831TIP3    H224053   1.668   6.998   7.278  0.6055  0.6470 -1.1973
  832TIP3   OH224054   2.934   4.900   0.237 -0.4419 -0.0222  0.2140
  832TIP3    H124055   2.989   4.904   0.159  0.7620 -0.0843  1.0442
  832TIP3    H224056   2.863   4.839   0.213 -0.0720 -0.0743 -0.8036
  833TIP3   OH224057   2.386   1.277   6.726  0.1711  0.1916  0.5798
  833TIP3    H124058   2.374   1.270   6.631  1.7970 -0.3833  0.3879
  833TIP3    H224059   2.417   1.367   6.740 -0.4924  0.4159  0.6214
  834TIP3   OH224060   0.817   1.094   7.086 -0.0676 -0.2784 -0.8321
  834TIP3    H124061   0.817   1.178   7.040  0.1603 -0.5077 -1.2545
  834TIP3    H224062   0.809   1.028   7.017  0.7687 -0.6501 -0.5916
  835TIP3   OH224063   2.780   6.266   1.405 -0.0398  0.0391  0.5290
  835TIP3    H124064   2.719   6.219   1.348  0.4191  0.9534 -0.7400
  835TIP3    H224065   2.732   6.274   1.488 -1.4996  0.3691 -0.3038
  836TIP3   OH224066   2.910   5.136   0.360 -0.4926 -0.2070  0.0156
  836TIP3    H124067   2.898   5.053   0.314  0.7801 -0.1772 -0.3970
  836TIP3    H224068   2.917   5.111   0.452 -4.0575 -0.1852  0.4329
  837TIP3   OH224069   6.513   5.839   6.282  0.5725 -0.9674 -0.4419
  837TIP3    H124070   6.495   5.745   6.281  1.1200 -1.0893  0.1868
  837TIP3    H224071   6.521   5.863   6.189 -0.8973 -1.2627 -0.6649
  838TIP3   OH224072   0.629   3.284   6.679  0.0356 -0.2109 -0.0902
  838TIP3    H124073   0.580   3.363   6.656  1.1852  0.3331 -0.7144
  838TIP3    H224074   0.718   3.301   6.651  0.6791 -1.0713  1.2905
  839TIP3   OH224075   4.823   2.399   8.162 -0.9903 -0.4264 -0.2759
  839TIP3    H124076   4.783   2.324   8.118  0.1896 -1.7828  0.8556
  839TIP3    H224077   4.782   2.476   8.122  0.7467 -1.4444 -4.6170
  840TIP3   OH224078   5.431   5.715   1.409  0.4959  0.5439 -0.5758
  840TIP3    H124079   5.374   5.752   1.477  0.9000 -0.5120  0.3751
  840TIP3    H224080   5.375   5.653   1.362  1.0134 -1.1837  0.9459
  841TIP3   OH224081   4.210   3.712   0.322  0.4828 -0.1497  0.1319
  841TIP3    H124082   4.241   3.630   0.359  1.0655 -0.8570 -1.8464
  841TIP3    H224083   4.114   3.708   0.332  0.5628 -0.7192  0.7066
  842TIP3   OH224084   4.562   6.337   0.849 -0.6058  0.4986  0.7165
  842TIP3    H124085   4.611   6.412   0.882 -1.4563  1.2746  0.2381
  842TIP3    H224086   4.601   6.317   0.764 -0.7506  0.7576  0.5899
  843TIP3   OH224087   6.157   3.794   7.800  0.1644  0.1195  0.2280
  843TIP3    H124088   6.173   3.742   7.721 -2.1282 -2.5768  1.3451
  843TIP3    H224089   6.062   3.810   7.799  0.2330  0.8019  1.9609
  844TIP3   OH224090   0.414   6.652   0.124 -0.0643 -0.0155  0.0129
  844TIP3    H124091   0.412   6.743   0.093 -0.1924  0.0979  0.3532
  844TIP3    H224092   0.396   6.658   0.217 -0.2633 -0.4109  0.0006
  845TIP3   OH224093   6.519   6.035   7.212 -0.2361 -0.3600 -0.4968
  845TIP3    H124094   6.433   6.016   7.252 -1.6746  2.5496 -1.9128
  845TIP3    H224095   6.532   5.964   7.149 -1.9074 -0.5849 -0.6508
  846TIP3   OH224096   6.022   0.163   1.347 -0.0020 -0.0737 -0.0790
  846TIP3    H124097   6.093   0.101   1.367  0.2979  0.6671  1.2548
  846TIP3    H224098   6.052   0.247   1.381 -2.5049 -0.1970  2.8787
  847TIP3   OH224099   3.417   3.959   0.989 -0.0852 -0.2009  0.3157
  847TIP3    H124100   3.366   3.906   1.050  0.9085 -0.3011  1.0841
  847TIP3    H224101   3.476   3.897   0.947  1.1319  0.2872  1.2725
  848TIP3   OH224102   1.381   0.932   7.057 -0.2569  0.0002  0.2267
  848TIP3    H124103   1.344   0.847   7.080  0.4364 -0.3719 -0.0082
  848TIP3    H224104   1.384   0.980   7.139  0.7872 -0.7665  0.6590
  849TIP3   OH224105   6.534   6.697   8.056 -0.3816  0.1972 -0.3448
  849TIP3    H124106   6.552   6.604   8.039 -0.1798  0.2949 -0.6782
  849TIP3    H224107   6.440   6.707   8.039 -0.6944 -0.2250  0.9933
  850TIP3   OH224108   6.692   0.211   6.099  0.4065 -0.2689  0.3761
  850TIP3    H124109   6.740   0.230   6.018 -0.0943 -1.9712 -0.3836
  850TIP3    H224110   6.704   0.117   6.112 -0.7764 -0.2988  1.4553
  851TIP3   OH224111   5.922   5.482   7.394  0.2827 -0.3713 -0.6341
  851TIP3    H124112   5.930   5.525   7.480 -2.1379 -0.0140 -0.5010
  851TIP3    H224113   5.993   5.519   7.342 -0.3423  2.1733  0.1606
  852TIP3   OH224114   5.598   6.558   7.862 -0.3226  0.4048  0.2816
  852TIP3    H124115   5.534   6.495   7.831  1.2519 -0.2924 -1.7756
  852TIP3    H224116   5.559   6.596   7.941 -2.7288 -0.7611 -0.2797
  853TIP3   OH224117   3.026   4.620   5.987 -0.0184 -0.6520 -0.1258
  853TIP3    H124118   2.998   4.704   5.951 -2.2170 -1.1013  0.4071
  853TIP3    H224119   2.971   4.556   5.943  0.6219 -1.6708  0.5286
  854TIP3   OH224120   1.565   3.089   0.824  0.3059 -0.3023 -0.4448
  854TIP3    H124121   1.483   3.042   0.838 -0.3044 -0.2315 -3.1726
  854TIP3    H224122   1.632   3.021   0.823  0.0916 -0.5312  0.3862
  855TIP3   OH224123   2.057   4.360   6.842  0.1691 -0.0290  0.7318
  855TIP3    H124124   2.110   4.291   6.883  1.5780  0.8493  0.4440
  855TIP3    H224125   2.121   4.424   6.811 -0.8009 -0.4447 -2.5347
  856TIP3   OH224126   2.550   3.274   6.961  0.6865 -0.1251 -0.0432
  856TIP3    H124127   2.627   3.228   6.994  0.3415 -0.9234 -0.3124
  856TIP3    H224128   2.569   3.289   6.868  0.9878  0.6870  0.1482
  857TIP3   OH224129   1.584   4.026   6.783  0.1735  0.2991  0.6320
  857TIP3    H124130   1.619   4.044   6.696 -0.0899  3.8734  1.1069
  857TIP3    H224131   1.585   3.931   6.790  2.1231 -0.0561 -2.4536
  858TIP3   OH224132   6.621   5.077   8.207 -0.3424 -0.5391  0.0036
  858TIP3    H124133   6.675   5.142   8.252 -2.3589  0.1040  1.6901
  858TIP3    H224134   6.567   5.129   8.147 -0.7137 -0.8538  0.0622
  859TIP3   OH224135   3.427   0.583   7.961 -0.4204 -0.0529  0.4431
  859TIP3    H124136   3.387   0.609   8.044 -0.8428  0.2267  0.1560
  859TIP3    H224137   3.430   0.487   7.965 -0.1166 -0.0277  0.9258
  860TIP3   OH224138   0.615   5.793   0.140  0.1017 -0.1477 -0.1333
  860TIP3    H124139   0.597   5.853   0.213  0.5137 -0.2605  0.0617
  860TIP3    H224140   0.544   5.729   0.144 -0.4970  0.4705 -0.5065
  861TIP3   OH224141   6.622   2.132   8.170  0.4161  0.3678 -0.5331
  861TIP3    H124142   6.582   2.212   8.136 -0.2384  0.3393  0.1257
  861TIP3    H224143   6.691   2.162   8.228 -0.0674  0.4843  0.0001
  862TIP3   OH224144   5.189   2.504   1.267 -0.0771 -0.3212  0.1765
  862TIP3    H124145   5.201   2.576   1.206 -0.8511  0.6718  1.1657
  862TIP3    H224146   5.204   2.425   1.214  0.7775  0.5388 -0.9179
  863TIP3   OH224147   5.697   6.805   2.184 -0.0763  0.5651  0.3681
  863TIP3    H124148   5.687   6.785   2.277 -0.7760 -0.8307  0.0275
  863TIP3    H224149   5.750   6.884   2.182 -0.3114  0.8051  1.9612
  864TIP3   OH224150   4.675   2.667   7.462 -0.2303 -0.1467  0.3824
  864TIP3    H124151   4.604   2.729   7.443 -0.2952 -0.5254 -0.6873
  864TIP3    H224152   4.729   2.712   7.527 -0.2019  1.1087 -0.4541
  865TIP3   OH224153   0.466   3.376   0.862  0.6468 -0.3858 -0.1131
  865TIP3    H124154   0.467   3.408   0.772  0.0171 -0.6663 -0.2258
  865TIP3    H224155   0.373   3.372   0.885  0.8021  2.5230  1.5855
  866TIP3   OH224156   5.577   4.404   8.068 -1.3603  0.6831  0.4122
  866TIP3    H124157   5.624   4.340   8.123 -0.1613 -0.1529 -1.4704
  866TIP3    H224158   5.486   4.398   8.097 -1.0780 -1.0706  1.0637
  867TIP3   OH224159   1.398   3.848   2.000 -0.1880 -0.5322  1.2143
  867TIP3    H124160   1.477   3.865   1.949 -0.1456 -0.9654  1.1278
  867TIP3    H224161   1.330   3.836   1.934 -0.1283 -1.1174  1.2549
  868TIP3   OH224162   5.805   6.761   2.442 -0.0143  0.1151  0.4005
  868TIP3    H124163   5.842   6.674   2.457  1.3229  0.4202 -0.8612
  868TIP3    H224164   5.874   6.808   2.395 -1.2495  1.3969 -0.1920
  869TIP3   OH224165   1.296   6.607   1.977 -0.1908 -0.3178  0.0295
  869TIP3    H124166   1.361   6.574   2.038 -1.1736  0.3186  1.4917
  869TIP3    H224167   1.276   6.533   1.920  2.3405 -0.3025 -0.9909
  870TIP3   OH224168   4.169   3.087   0.614  0.5798  0.1818  0.4276
  870TIP3    H124169   4.189   3.104   0.706 -1.1449  0.3739  0.8139
  870TIP3    H224170   4.237   3.134   0.565  1.8665 -0.4264  1.5927
  871TIP3   OH224171   4.370   2.283   6.208 -0.0938  0.5416 -0.0371
  871TIP3    H124172   4.387   2.340   6.133 -1.8134  0.8001 -0.2573
  871TIP3    H224173   4.285   2.311   6.241 -0.2813 -0.9013  0.7862
  872TIP3   OH224174   3.981   3.988   6.843  0.8028  0.2525  0.0305
  872TIP3    H124175   3.911   4.053   6.844  0.0976 -0.4830 -0.0014
  872TIP3    H224176   3.989   3.962   6.751 -1.2135 -2.0461  0.3793
  873TIP3   OH224177   0.648   0.743   1.515  0.3856  0.3647  0.3514
  873TIP3    H124178   0.554   0.752   1.530  0.8521  0.3486  4.2244
  873TIP3    H224179   0.659   0.656   1.478 -1.0665 -0.0069  0.7514
  874TIP3   OH224180   4.663   0.926   0.559  0.3596 -0.5464 -0.5130
  874TIP3    H124181   4.657   0.990   0.488 -1.8285 -0.3284 -0.1737
  874TIP3    H224182   4.749   0.885   0.546  0.3507  0.0195 -2.8242
  875TIP3   OH224183   3.421   4.202   7.467 -0.3328 -0.2246 -0.0556
  875TIP3    H124184   3.437   4.236   7.555 -0.2057  0.1973 -0.2393
  875TIP3    H224185   3.496   4.146   7.448 -0.7591 -0.9805  0.4239
  876TIP3   OH224186   3.219   5.222   2.142  0.2373 -0.2419  0.2002
  876TIP3    H124187   3.150   5.287   2.126  0.2200  0.5475  3.0392
  876TIP3    H224188   3.177   5.138   2.124 -1.2641  0.2687  1.1657
  877TIP3   OH224189   5.642   6.863   1.441  0.8880 -0.3893 -0.2743
  877TIP3    H124190   5.622   6.917   1.518 -0.5271 -1.7697  0.3935
  877TIP3    H224191   5.608   6.913   1.367 -1.3874 -0.7516  0.4299
  878TIP3   OH224192   1.047   3.148   6.506 -0.1395  0.0447 -0.5947
  878TIP3    H124193   0.972   3.201   6.533 -0.0040  0.5665 -1.2250
  878TIP3    H224194   1.110   3.211   6.472 -0.5235 -0.6036 -2.6589
  879TIP3   OH224195   0.123   5.412   6.946 -0.1480  0.4607  0.1063
  879TIP3    H124196   0.199   5.422   6.888 -1.0535 -0.7594 -1.3878
  879TIP3    H224197   0.151   5.449   7.029  1.7365  0.9424 -0.6882
  880TIP3   OH224198   4.749   5.000   6.120  0.1942  0.0192 -0.0224
  880TIP3    H124199   4.759   4.928   6.059  0.2456 -0.6237  0.7241
  880TIP3    H224200   4.684   4.969   6.183  0.2851  0.5856  0.3591
  881TIP3   OH224201   2.536   4.155   6.349 -0.3581  0.4262 -0.0392
  881TIP3    H124202   2.610   4.183   6.295  0.2386  0.9315  1.0014
  881TIP3    H224203   2.577   4.113   6.425 -1.1238  1.0893  0.7611
  882TIP3   OH224204   1.059   1.076   6.731  0.3207 -0.0737 -0.1021
  882TIP3    H124205   1.045   1.064   6.637 -1.8673  4.6090 -0.6657
  882TIP3    H224206   1.152   1.098   6.738  0.5715 -0.7229 -1.1364
  883TIP3   OH224207   1.996   1.599   1.636  0.3314 -0.5068  0.5153
  883TIP3    H124208   2.069   1.642   1.590 -2.2558  3.2739 -0.5170
  883TIP3    H224209   2.011   1.620   1.728  0.6234  0.1077  0.3346
  884TIP3   OH224210   4.680   5.560   8.317 -0.1301 -0.3417 -0.0972
  884TIP3    H124211   4.622   5.497   8.360  0.0109 -0.7547 -0.5043
  884TIP3    H224212   4.749   5.507   8.278 -0.8867 -0.1093 -1.8610
  885TIP3   OH224213   6.361   5.757   7.247  0.0376 -0.4748  0.1022
  885TIP3    H124214   6.438   5.770   7.303 -1.6053  0.1288  2.3599
  885TIP3    H224215   6.375   5.672   7.205  1.3514 -0.9451  1.4321
  886TIP3   OH224216   2.867   2.662   8.180  0.2764 -0.1597 -0.0376
  886TIP3    H124217   2.789   2.718   8.184 -0.7279 -1.2907 -1.9325
  886TIP3    H224218   2.833   2.577   8.151  1.7919 -1.7119  2.3970
  887TIP3   OH224219   0.560   6.465   0.646  0.4447  0.2616  0.0688
  887TIP3    H124220   0.531   6.529   0.581  0.4532  0.6514  0.4487
  887TIP3    H224221   0.654   6.456   0.632  0.1365 -1.3282 -1.4605
  888TIP3   OH224222   1.167   5.929   6.965 -0.0218  0.1361  0.0259
  888TIP3    H124223   1.158   5.936   7.060 -0.8531  1.0653 -0.1108
  888TIP3    H224224   1.254   5.965   6.947  0.5829 -1.0297  0.5224
  889TIP3   OH224225   5.976   2.312   8.184 -0.7005 -0.2051 -0.0851
  889TIP3    H124226   5.934   2.398   8.189 -1.3675 -0.4759 -0.8409
  889TIP3    H224227   6.001   2.303   8.092  2.6632  0.6851  0.6130
  890TIP3   OH224228   6.937   2.096   0.895  0.0094 -0.0004  0.1694
  890TIP3    H124229   6.848   2.071   0.919 -0.0459  0.5042  0.5325
  890TIP3    H224230   6.944   2.187   0.924  0.2773  0.3218 -0.8663
  891TIP3   OH224231   6.353   0.505   7.634 -0.0143  0.4526  0.2611
  891TIP3    H124232   6.372   0.538   7.722 -0.6616  0.4345  0.4132
  891TIP3    H224233   6.408   0.428   7.625 -0.6097 -0.0783  1.0039
  892TIP3   OH224234   5.178   3.375   0.903 -0.2642  0.6967  0.1024
  892TIP3    H124235   5.167   3.427   0.982  1.9801  1.2044  0.1510
  892TIP3    H224236   5.204   3.438   0.836 -2.3800  0.3190 -1.1601
  893TIP3   OH224237   5.996   1.450   6.400  0.2486 -0.0218  0.2852
  893TIP3    H124238   5.917   1.490   6.436  0.2185  0.4133 -0.2561
  893TIP3    H224239   5.966   1.400   6.325  0.3685 -0.6034  0.6153
  894TIP3   OH224240   6.859   2.486   1.150  0.2253  0.2812  0.4131
  894TIP3    H124241   6.840   2.519   1.062  0.5975  0.4797  0.4055
  894TIP3    H224242   6.850   2.562   1.207 -0.0555  0.1432  0.5560
  895TIP3   OH224243   5.217   1.644   7.051  0.0398  0.0966 -0.1269
  895TIP3    H124244   5.159   1.588   7.103  1.5829 -1.4314  0.0476
  895TIP3    H224245   5.184   1.636   6.961  1.1917 -2.4924 -0.3907
  896TIP3   OH224246   0.295   4.614   6.746  0.3807 -0.3817  0.1042
  896TIP3    H124247   0.249   4.582   6.669 -0.2025 -0.4054  0.4522
  896TIP3    H224248   0.226   4.654   6.800  0.5994 -1.2801  1.0807
  897TIP3   OH224249   2.911   5.498   8.283 -0.5001 -0.0875  0.0208
  897TIP3    H124250   2.942   5.557   8.352  1.7966 -1.3308  0.1478
  897TIP3    H224251   2.909   5.412   8.325  1.2953 -0.9317 -1.5047
  898TIP3   OH224252   6.186   2.564   7.958  0.3943  0.0432  0.0614
  898TIP3    H124253   6.123   2.602   8.020 -0.0354 -1.1331  0.3676
  898TIP3    H224254   6.132   2.523   7.890  0.7666 -1.7268  0.7745
  899TIP3   OH224255   2.213   4.332   8.035  0.4107  0.2195 -0.0012
  899TIP3    H124256   2.285   4.395   8.022  0.1304  0.1852 -2.0778
  899TIP3    H224257   2.135   4.381   8.010  0.1566 -0.8293 -1.3455
  900TIP3   OH224258   6.810   4.717   1.628  0.1902 -0.1005 -0.1056
  900TIP3    H124259   6.888   4.762   1.660  1.1412 -1.6421 -0.1362
  900TIP3    H224260   6.772   4.777   1.564  0.3918  1.3989  1.1113
  901TIP3   OH224261   3.300   3.739   0.303 -0.0655 -0.5953 -0.4393
  901TIP3    H124262   3.329   3.653   0.274  0.3042 -0.0931 -1.6154
  901TIP3    H224263   3.205   3.732   0.308 -0.0077 -1.1951 -0.0804
  902TIP3   OH224264   1.374   3.114   8.335  0.1058 -0.3263 -0.5369
  902TIP3    H124265   1.387   3.179   8.405  1.1729  0.1402 -1.1458
  902TIP3    H224266   1.279   3.105   8.329 -0.1021  1.4868 -0.6994
  903TIP3   OH224267   0.236   5.211   5.343 -0.4056  0.2323 -0.2157
  903TIP3    H124268   0.166   5.223   5.406 -1.2263 -2.6187 -0.4506
  903TIP3    H224269   0.225   5.282   5.280 -0.9999  1.7479  1.5266
  904TIP3   OH224270   3.654   3.709   6.748 -0.3784  0.2970 -0.1778
  904TIP3    H124271   3.747   3.719   6.768 -0.2489  0.9006 -1.0472
  904TIP3    H224272   3.651   3.633   6.690 -0.3785  0.5268 -0.4796
  905TIP3   OH224273   6.078   0.425   1.414  0.1236  0.0800 -0.4654
  905TIP3    H124274   5.988   0.421   1.445  0.5732  0.4796  0.9775
  905TIP3    H224275   6.129   0.448   1.492  1.8449 -3.0585 -0.5342
  906TIP3   OH224276   6.725   6.176   1.503  0.0099  0.4872 -0.3022
  906TIP3    H124277   6.749   6.226   1.425  1.1582 -0.0470 -0.3109
  906TIP3    H224278   6.677   6.238   1.557 -1.4404  0.6790 -1.7293
  907TIP3   OH224279   6.579   3.456   1.508 -0.4667  0.6142 -0.2926
  907TIP3    H124280   6.583   3.545   1.473  3.0379  0.9262  0.5419
  907TIP3    H224281   6.549   3.467   1.598  1.0989  1.1697  0.1971
  908TIP3   OH224282   0.867   6.351   0.964 -0.4015 -0.0135  0.5630
  908TIP3    H124283   0.861   6.446   0.977 -0.4161  0.2252 -0.9014
  908TIP3    H224284   0.787   6.316   1.001 -0.7285  0.6389  0.4879
  909TIP3   OH224285   2.209   3.083   2.035  0.1196  0.0621  0.4266
  909TIP3    H124286   2.160   3.021   1.981  1.3552  0.4915 -1.2645
  909TIP3    H224287   2.172   3.169   2.012 -0.0542  0.1586  1.0587
  910TIP3   OH224288   1.384   3.846   6.558  0.0443 -0.7432  0.0403
  910TIP3    H124289   1.471   3.844   6.519  1.0495  4.1327  1.3702
  910TIP3    H224290   1.325   3.866   6.486  0.6326 -0.1780 -0.2912
  911TIP3   OH224291   4.730   1.450   6.614 -0.0370  0.3291 -0.5687
  911TIP3    H124292   4.754   1.539   6.587  0.8184  0.2677 -0.0498
  911TIP3    H224293   4.647   1.433   6.569 -0.3876  1.5133 -0.4070
  912TIP3   OH224294   1.611   2.630   0.892  0.7365  0.4478  0.4589
  912TIP3    H124295   1.572   2.643   0.979 -1.4153 -0.6467 -0.2535
  912TIP3    H224296   1.702   2.609   0.910  0.1659 -0.5729  2.5361
  913TIP3   OH224297   4.452   0.337   7.355  0.0361  0.1546  0.1503
  913TIP3    H124298   4.465   0.273   7.424  3.6990  0.1362 -0.3683
  913TIP3    H224299   4.440   0.420   7.401  1.8839  0.0589  0.8905
  914TIP3   OH224300   6.296   4.476   7.577  0.2996  0.1007 -0.2555
  914TIP3    H124301   6.306   4.392   7.622  0.3220  0.8589  1.1830
  914TIP3    H224302   6.301   4.453   7.484  2.3235 -1.2375  0.1219
  915TIP3   OH224303   3.643   3.580   7.900  0.4875 -0.6000 -0.5747
  915TIP3    H124304   3.598   3.496   7.908  0.9880 -0.7176  1.5921
  915TIP3    H224305   3.574   3.645   7.910  0.4276 -0.7636  0.0641
  916TIP3   OH224306   3.094   0.373   1.177  0.2595  0.7760 -0.3088
  916TIP3    H124307   3.060   0.454   1.215 -3.0447 -0.7099  0.2012
  916TIP3    H224308   3.028   0.346   1.114  1.1465 -1.6740 -0.3030
  917TIP3   OH224309   6.149   1.831   7.117 -0.1124 -0.0343  0.0276
  917TIP3    H124310   6.179   1.794   7.200  0.9151  1.3837  0.3303
  917TIP3    H224311   6.080   1.893   7.143 -1.0019 -0.8269 -0.3646
  918TIP3   OH224312   2.474   6.873   6.043  0.3291  0.1272 -0.4377
  918TIP3    H124313   2.481   6.968   6.043 -1.2817  0.3137  1.5824
  918TIP3    H224314   2.448   6.851   5.953 -1.2015  1.8092 -0.4625
  919TIP3   OH224315   1.416   4.990   1.247 -0.6551  0.0880  0.6291
  919TIP3    H124316   1.447   5.020   1.333  0.6668  0.3093  0.0916
  919TIP3    H224317   1.339   5.045   1.230 -0.6119  0.4186  1.4273
  920TIP3   OH224318   4.390   6.658   0.965  0.4214 -0.2436  0.3610
  920TIP3    H124319   4.464   6.617   1.009  1.4995  2.0129  0.8222
  920TIP3    H224320   4.355   6.721   1.029  0.6037  1.4950 -1.1452
  921TIP3   OH224321   1.870   2.188   0.283 -1.0359 -0.7801  0.0933
  921TIP3    H124322   1.846   2.217   0.195  0.5099  0.6030  0.0626
  921TIP3    H224323   1.890   2.095   0.274  1.0739 -0.2522 -1.5323
  922TIP3   OH224324   2.548   3.111   7.619 -0.2548 -0.1099 -0.7238
  922TIP3    H124325   2.608   3.177   7.656 -0.5639  0.3422 -1.0129
  922TIP3    H224326   2.603   3.035   7.604  0.9267  1.1282 -3.4768
  923TIP3   OH224327   5.939   5.105   6.532 -0.4058  0.1046 -0.4561
  923TIP3    H124328   5.990   5.152   6.599 -0.7263 -0.0508 -0.1045
  923TIP3    H224329   5.893   5.037   6.580 -2.2790  1.2824 -0.4890
  924TIP3   OH224330   4.188   2.099   8.042 -0.5342 -0.0886  0.2954
  924TIP3    H124331   4.219   2.076   7.954 -0.2327 -0.2448  0.4410
  924TIP3    H224332   4.130   2.174   8.028 -2.5623 -1.7176 -0.3345
  925TIP3   OH224333   6.851   5.457   1.905 -0.0205 -0.5228  0.1564
  925TIP3    H124334   6.885   5.460   1.994 -0.5417 -1.6476  0.4147
  925TIP3    H224335   6.922   5.492   1.851  0.0797  0.7198  1.0560
  926TIP3   OH224336   4.311   6.800   6.873 -0.6280 -0.1601  0.2429
  926TIP3    H124337   4.386   6.853   6.844 -1.4555  0.5623 -0.6085
  926TIP3    H224338   4.327   6.714   6.835  0.1366 -0.2360  0.6906
  927TIP3   OH224339   3.093   5.281   0.655 -0.1950  0.2442 -0.1013
  927TIP3    H124340   3.027   5.349   0.667 -1.9295 -1.2006 -0.9151
  927TIP3    H224341   3.043   5.200   0.652  1.7791 -1.0689  0.6115
  928TIP3   OH224342   5.008   0.529   6.323  0.2014 -0.1127 -0.5049
  928TIP3    H124343   4.937   0.465   6.326  0.9979 -1.0143  2.4570
  928TIP3    H224344   4.970   0.606   6.281 -1.9876 -1.1482 -0.5219
  929TIP3   OH224345   3.089   5.287   1.018 -0.0797 -0.1731 -0.4005
  929TIP3    H124346   3.132   5.222   0.963  0.6897  1.1380 -1.4038
  929TIP3    H224347   2.996   5.267   1.011  0.0744 -0.5716 -1.4973
  930TIP3   OH224348   1.130   1.388   1.792  0.3216 -0.1522  0.8917
  930TIP3    H124349   1.141   1.322   1.724  0.0184 -0.1317  0.8208
  930TIP3    H224350   1.206   1.446   1.782 -0.8771  1.2280 -0.9675
  931TIP3   OH224351   1.422   0.466   7.866  0.2393 -0.2349  0.1370
  931TIP3    H124352   1.483   0.527   7.825  1.4053 -1.3316  0.1751
  931TIP3    H224353   1.420   0.493   7.958  1.2997 -0.6595  0.3002
  932TIP3   OH224354   0.682   1.560   7.097  0.2329  0.0162  0.1994
  932TIP3    H124355   0.767   1.604   7.100  0.6706 -0.8764  1.3261
  932TIP3    H224356   0.701   1.468   7.115 -1.1675  0.0984  2.4511
  933TIP3   OH224357   1.027   4.223   6.867  0.1669 -0.3955  0.1156
  933TIP3    H124358   0.969   4.157   6.905 -1.6235  0.0606 -1.6507
  933TIP3    H224359   0.994   4.306   6.902  0.2452 -0.1887 -0.2938
  934TIP3   OH224360   5.615   0.355   7.595 -0.0037  0.1643  0.0065
  934TIP3    H124361   5.598   0.293   7.666 -1.2550  1.0419  0.5314
  934TIP3    H224362   5.569   0.319   7.519 -0.9223  0.5309  0.3701
  935TIP3   OH224363   4.700   4.294   0.133 -0.4892  0.0762 -0.4994
  935TIP3    H124364   4.715   4.226   0.199  0.3670 -0.6292 -1.3843
  935TIP3    H224365   4.668   4.369   0.183 -0.3180 -0.5888  0.6553
  936TIP3   OH224366   4.398   1.126   2.163 -0.2383  0.2431 -0.2724
  936TIP3    H124367   4.421   1.152   2.253  0.0377 -3.0312  0.7295
  936TIP3    H224368   4.314   1.169   2.147 -1.7474 -1.2639  2.7366
  937TIP3   OH224369   5.019   3.006   1.677 -0.4978  0.4644 -0.4313
  937TIP3    H124370   5.028   3.101   1.683  0.0123  0.4796 -1.2364
  937TIP3    H224371   4.928   2.992   1.653 -1.3100  0.6011  2.2053
  938TIP3   OH224372   1.779   2.809   0.063  0.2317 -0.2445  0.2426
  938TIP3    H124373   1.801   2.822  -0.030  1.2073  1.8011  0.7063
  938TIP3    H224374   1.856   2.768   0.100  0.4350  0.3062  0.4358
  939TIP3   OH224375   0.629   0.085   2.212  0.3223  0.0464  0.2736
  939TIP3    H124376   0.548   0.060   2.168 -0.0449  1.6275 -0.0270
  939TIP3    H224377   0.660   0.005   2.254 -0.7731 -0.8574 -0.5772
  940TIP3   OH224378   4.370   6.555   1.288 -0.2624 -0.4466 -0.2189
  940TIP3    H124379   4.433   6.557   1.360  0.1153 -0.2070 -0.5538
  940TIP3    H224380   4.355   6.647   1.266  0.2370 -0.5449 -0.9774
  941TIP3   OH224381   3.211   4.366   8.037 -0.1392 -0.0417  0.7970
  941TIP3    H124382   3.137   4.422   8.060 -1.2650 -0.2688 -1.9031
  941TIP3    H224383   3.191   4.282   8.078 -2.0889 -0.4602 -0.8367
  942TIP3   OH224384   2.820   0.510   6.983 -0.4119 -0.4051  0.3869
  942TIP3    H124385   2.905   0.475   6.956  0.4057 -0.7003  3.0691
  942TIP3    H224386   2.823   0.602   6.954 -1.9527 -1.7729 -5.2915
  943TIP3   OH224387   0.170   3.262   1.222  0.0746  0.4865 -0.2394
  943TIP3    H124388   0.228   3.338   1.227  0.4757  0.2203 -0.7333
  943TIP3    H224389   0.218   3.199   1.168 -0.8196  0.3959 -0.9515
  944TIP3   OH224390   3.702   1.303   7.201 -0.1185  0.4113 -0.1442
  944TIP3    H124391   3.716   1.212   7.224  1.6344  0.6110 -0.3097
  944TIP3    H224392   3.640   1.335   7.267 -3.4052 -1.6693 -1.9699
  945TIP3   OH224393   4.258   6.094   0.959  0.1043 -0.6119 -0.4524
  945TIP3    H124394   4.299   6.029   0.902 -0.9216  0.0690 -2.0515
  945TIP3    H224395   4.330   6.146   0.993  0.9402 -2.4809  0.7806
  946TIP3   OH224396   4.208   3.414   0.976 -0.4966 -0.1793 -0.0329
  946TIP3    H124397   4.285   3.461   1.007 -0.5003  0.2683 -0.6796
  946TIP3    H224398   4.135   3.451   1.026 -0.6099  1.0746 -1.0806
  947TIP3   OH224399   0.484   2.748   7.414  0.3120 -0.2020 -0.5086
  947TIP3    H124400   0.474   2.668   7.361  1.1809  0.6911 -2.1038
  947TIP3    H224401   0.554   2.796   7.370 -0.1493  1.4194  0.4707
  948TIP3   OH224402   3.215   3.719   6.752 -0.4764  0.2540  0.2065
  948TIP3    H124403   3.124   3.724   6.723  0.4214  0.9551 -2.7884
  948TIP3    H224404   3.239   3.810   6.771  0.3548  0.5349 -1.8712
  949TIP3   OH224405   3.603   3.212   1.098 -0.6840  0.1228  0.0164
  949TIP3    H124406   3.687   3.195   1.055 -1.1869 -0.2290 -0.8734
  949TIP3    H224407   3.611   3.171   1.184 -0.3045 -0.8019 -0.4442
  950TIP3   OH224408   4.187   0.562   0.094 -1.1180 -0.2601 -0.0893
  950TIP3    H124409   4.131   0.488   0.117 -0.9439 -0.6958 -1.0525
  950TIP3    H224410   4.274   0.524   0.081 -1.2137 -0.0410 -1.4778
  951TIP3   OH224411   5.103   5.000   8.318  0.6141  0.2605 -0.0988
  951TIP3    H124412   5.083   4.928   8.378 -0.6506  2.1546  1.8846
  951TIP3    H224413   5.099   5.078   8.372 -0.6034  2.1024 -2.6711
  952TIP3   OH224414   3.536   1.704   0.540 -0.1318 -0.3449 -0.0793
  952TIP3    H124415   3.464   1.703   0.603 -0.2681 -0.4884 -0.2319
  952TIP3    H224416   3.562   1.795   0.533 -0.7956 -0.1816 -0.5701
  953TIP3   OH224417   3.460   5.991   6.533  0.2210 -0.1209  0.1786
  953TIP3    H124418   3.478   5.899   6.516  0.3937 -0.1009  0.2507
  953TIP3    H224419   3.395   5.990   6.603  0.0075 -0.1923 -0.0212
  954TIP3   OH224420   5.262   4.963   0.254  0.1278  0.3952  0.1880
  954TIP3    H124421   5.178   4.922   0.233  0.3382  0.1975 -0.3000
  954TIP3    H224422   5.311   4.960   0.172 -0.1834  2.4728 -0.1385
  955TIP3   OH224423   0.800   3.934   1.366  0.1104  0.2643 -0.1651
  955TIP3    H124424   0.881   3.894   1.335 -0.9886 -1.2321 -1.2793
  955TIP3    H224425   0.757   3.965   1.287 -1.8081 -1.7663 -0.0122
  956TIP3   OH224426   1.254   4.871   7.879  0.7735 -0.5436 -0.3258
  956TIP3    H124427   1.261   4.877   7.975 -0.4810  0.5982 -0.2811
  956TIP3    H224428   1.320   4.806   7.855 -0.6483 -2.8549  1.5620
  957TIP3   OH224429   2.914   5.775   1.870 -0.2927 -0.1404  0.9729
  957TIP3    H124430   2.919   5.688   1.910 -1.4377 -0.4966  0.3807
  957TIP3    H224431   2.868   5.828   1.935  1.9599  0.5331  2.1154
  958TIP3   OH224432   4.109   0.111   7.696 -0.1384  0.2362  0.1376
  958TIP3    H124433   4.152   0.136   7.778  2.3458 -2.2108 -0.2843
  958TIP3    H224434   4.167   0.143   7.627 -0.6373 -0.4056 -0.5994
  959TIP3   OH224435   5.130   1.758   8.346 -0.1619 -0.0820  0.1933
  959TIP3    H124436   5.051   1.724   8.304 -1.0140 -1.0057  2.3915
  959TIP3    H224437   5.126   1.853   8.332 -0.9522 -0.2525 -0.8271
  960TIP3   OH224438   1.314   4.547   6.463 -0.2015 -0.1129 -0.1455
  960TIP3    H124439   1.386   4.485   6.447  0.0100 -0.0143  0.4072
  960TIP3    H224440   1.331   4.581   6.551 -1.7183 -1.1731  0.6121
  961TIP3   OH224441   1.663   0.387   0.752 -0.7580 -0.4223  0.7696
  961TIP3    H124442   1.679   0.346   0.837  0.2329 -2.1068 -0.1888
  961TIP3    H224443   1.669   0.315   0.689 -0.0093  1.0205 -0.8807
  962TIP3   OH224444   1.016   4.489   8.051  0.0995  0.5359  0.5366
  962TIP3    H124445   1.011   4.585   8.051  0.5937  0.5659  0.5501
  962TIP3    H224446   1.100   4.470   8.009 -0.2571  0.0910  0.0126
  963TIP3   OH224447   5.702   4.536   1.761  1.5152 -0.0439 -0.3501
  963TIP3    H124448   5.797   4.546   1.764  1.6134 -0.6188 -1.0535
  963TIP3    H224449   5.669   4.599   1.825  2.3763  0.0116  0.0599
  964TIP3   OH224450   6.525   5.480   0.585 -0.2679  0.6091 -0.4469
  964TIP3    H124451   6.555   5.418   0.651 -1.8944  1.2615  0.9581
  964TIP3    H224452   6.432   5.462   0.574 -0.6633  2.3708 -0.4299
  965TIP3   OH224453   0.350   6.238   7.810  0.3558  0.3531 -0.4950
  965TIP3    H124454   0.308   6.153   7.797  1.0692  0.0365 -0.8383
  965TIP3    H224455   0.339   6.257   7.903  0.6332 -0.3706 -0.3073
  966TIP3   OH224456   0.584   0.915   0.930 -0.1902  0.6577 -0.0538
  966TIP3    H124457   0.530   0.880   0.859 -3.2069  3.3920  0.6426
  966TIP3    H224458   0.558   0.864   1.007  0.4227  0.0358 -0.2576
  967TIP3   OH224459   3.013   0.330   0.553 -0.1712 -0.1142  0.2954
  967TIP3    H124460   3.042   0.351   0.641  1.1631  0.0499 -0.1573
  967TIP3    H224461   2.955   0.255   0.564  1.7167 -1.5322  1.1206
  968TIP3   OH224462   2.236   4.265   7.102 -0.5100 -0.0679 -0.2619
  968TIP3    H124463   2.229   4.352   7.141 -1.5985 -0.9432  1.6214
  968TIP3    H224464   2.176   4.210   7.153  0.0093 -1.9016 -1.5021
  969TIP3   OH224465   3.023   4.394   1.230 -0.2065 -1.1056  0.7321
  969TIP3    H124466   2.987   4.425   1.313  0.0220 -1.6486  1.0334
  969TIP3    H224467   2.962   4.427   1.164 -0.8608 -1.4156  1.1788
  970TIP3   OH224468   3.789   5.234   7.071  0.1114  0.3500  0.2747
  970TIP3    H124469   3.696   5.254   7.067 -0.2562 -0.9622  1.4654
  970TIP3    H224470   3.823   5.259   6.985 -1.1883  1.4951  0.0727
  971TIP3   OH224471   4.720   3.035   7.416  0.2752 -0.3669 -0.1546
  971TIP3    H124472   4.712   3.080   7.332 -0.7569 -1.1575 -0.4963
  971TIP3    H224473   4.633   3.043   7.456  0.4961 -0.7957  0.4283
  972TIP3   OH224474   5.349   4.342   0.811  0.5540 -0.6367  0.2449
  972TIP3    H124475   5.360   4.247   0.801  1.4949 -0.4858 -0.2465
  972TIP3    H224476   5.438   4.375   0.825  0.5914  0.4348 -2.0959
  973TIP3   OH224477   0.550   2.007   6.827 -0.5216  0.0083  1.0797
  973TIP3    H124478   0.482   1.946   6.800 -1.8750  0.7240  2.6780
  973TIP3    H224479   0.598   1.961   6.896  1.3342 -0.8773 -0.6989
  974TIP3   OH224480   3.813   6.711   0.838 -0.6160  0.0324  0.0287
  974TIP3    H124481   3.865   6.634   0.813 -1.3553 -0.5338  0.1861
  974TIP3    H224482   3.825   6.772   0.766  1.1390  0.3609  0.5658
  975TIP3   OH224483   4.185   5.767   7.210  0.1296  0.2953  0.1778
  975TIP3    H124484   4.151   5.854   7.230  0.2555  0.2583  0.5684
  975TIP3    H224485   4.255   5.753   7.274  1.7469  0.8758 -1.3815
  976TIP3   OH224486   0.387   1.514   0.878  0.4020  0.1047  0.6832
  976TIP3    H124487   0.437   1.434   0.865  0.3198  0.1525  0.0573
  976TIP3    H224488   0.312   1.488   0.932 -0.1490 -0.4421 -0.3260
  977TIP3   OH224489   3.426   0.965   7.598 -0.3563 -0.1637  0.2847
  977TIP3    H124490   3.462   0.913   7.670  0.0359  0.5143  0.5947
  977TIP3    H224491   3.390   0.901   7.538  2.2602 -0.9936 -0.5476
  978TIP3   OH224492   6.949   3.210   1.385  0.5017 -1.4733 -0.5415
  978TIP3    H124493   6.980   3.254   1.306  0.7765  2.7262  1.6298
  978TIP3    H224494   7.027   3.168   1.422  1.3210  0.0838 -0.4451
  979TIP3   OH224495   2.631   0.269   1.621 -0.0760  0.7535  0.3608
  979TIP3    H124496   2.598   0.305   1.539 -2.6456 -0.3811  0.7975
  979TIP3    H224497   2.718   0.307   1.631 -0.6875  2.8884 -1.6142
  980TIP3   OH224498   2.497   2.183   7.284 -0.2702  0.5707  0.4407
  980TIP3    H124499   2.540   2.199   7.368  0.2086 -0.5317  0.4102
  980TIP3    H224500   2.568   2.165   7.223 -0.5116  2.6162 -0.5377
  981TIP3   OH224501   5.559   1.606   1.928  0.8824  0.4918  0.1378
  981TIP3    H124502   5.653   1.626   1.932  0.9429  0.2781 -0.1598
  981TIP3    H224503   5.517   1.690   1.908  1.1053  0.4023 -0.7764
  982TIP3   OH224504   3.505   1.900   6.076  0.1559  0.1883  0.0114
  982TIP3    H124505   3.558   1.883   5.998 -0.5556 -0.3952 -0.3588
  982TIP3    H224506   3.477   1.813   6.105  2.1282  0.1777  2.1800
  983TIP3   OH224507   3.146   2.632   0.395 -0.0666  0.0580  0.1868
  983TIP3    H124508   3.083   2.616   0.325  0.4196 -0.8289 -0.0664
  983TIP3    H224509   3.097   2.619   0.476 -0.3984  0.1671  0.0032
  984TIP3   OH224510   1.638   4.309   7.355  0.0863  0.6105  0.2544
  984TIP3    H124511   1.712   4.353   7.314 -0.6355 -0.5835 -2.5620
  984TIP3    H224512   1.674   4.268   7.434  3.0886 -1.8620 -2.1617
  985TIP3   OH224513   1.291   6.863   8.360 -0.7712  0.0063 -0.1066
  985TIP3    H124514   1.319   6.774   8.337 -1.1754 -0.0589 -0.3470
  985TIP3    H224515   1.354   6.891   8.427 -1.9856 -1.3612  1.7296
  986TIP3   OH224516   6.592   1.992   7.832  0.2460  0.2599 -0.0400
  986TIP3    H124517   6.583   2.077   7.789 -0.7317  1.0341  1.5644
  986TIP3    H224518   6.620   1.932   7.763  1.3602  1.9534 -1.1361
  987TIP3   OH224519   4.188   4.609   7.829 -0.0731 -0.0205  0.4172
  987TIP3    H124520   4.262   4.603   7.769 -1.0856 -2.8155 -0.6915
  987TIP3    H224521   4.226   4.644   7.910  2.2237 -0.3674 -0.4369
  988TIP3   OH224522   4.625   1.771   7.086 -0.6020  0.2579 -0.4584
  988TIP3    H124523   4.555   1.737   7.031 -0.3396 -1.0977 -0.0128
  988TIP3    H224524   4.582   1.802   7.165 -0.6273 -2.0892  0.5316
  989TIP3   OH224525   6.326   2.294   0.954 -0.4921 -0.3884 -0.7184
  989TIP3    H124526   6.339   2.202   0.934 -0.0527 -0.3948 -0.4223
  989TIP3    H224527   6.392   2.314   1.021 -1.0745 -0.0488 -0.2313
  990TIP3   OH224528   1.028   4.358   6.506 -0.7539 -0.0811 -0.5598
  990TIP3    H124529   1.042   4.400   6.420  0.7649 -0.5820 -0.5796
  990TIP3    H224530   1.112   4.320   6.528 -1.5371 -1.2834  0.4741
  991TIP3   OH224531   5.332   0.680   7.424 -0.0002  0.6256  0.2161
  991TIP3    H124532   5.347   0.750   7.361 -0.5162 -0.5955 -1.3279
  991TIP3    H224533   5.252   0.637   7.395 -0.0165 -0.2595  1.4593
  992TIP3   OH224534   1.616   0.160   0.326 -0.6221 -0.0879 -0.5357
  992TIP3    H124535   1.647   0.080   0.367 -0.4322 -0.3723 -1.2183
  992TIP3    H224536   1.696   0.212   0.312 -0.6380 -0.1562 -0.8864
  993TIP3   OH224537   5.157   0.257   7.362  0.2522 -0.5293  0.0593
  993TIP3    H124538   5.078   0.205   7.378  0.8031 -0.9206  1.7924
  993TIP3    H224539   5.186   0.231   7.275 -1.0155 -1.0671 -0.2221
  994TIP3   OH224540   0.454   1.372   7.424 -0.1304  0.2091  0.5669
  994TIP3    H124541   0.412   1.292   7.455  0.7390 -0.2786  0.5137
  994TIP3    H224542   0.472   1.422   7.504  0.1165 -0.0475  0.6728
  995TIP3   OH224543   4.787   5.833   6.453 -0.3643  0.0067 -0.2889
  995TIP3    H124544   4.832   5.807   6.534 -0.7655 -1.6759 -0.5803
  995TIP3    H224545   4.735   5.909   6.479 -0.7209 -0.6808  1.1199
  996TIP3   OH224546   4.606   4.956   7.337 -0.0141 -0.4694  0.0617
  996TIP3    H124547   4.576   5.000   7.257  1.7402  0.6922 -0.0071
  996TIP3    H224548   4.701   4.946   7.324  0.3730  0.1231  2.1709
  997TIP3   OH224549   5.528   0.941   1.102  0.7288 -0.0742  0.4403
  997TIP3    H124550   5.501   1.028   1.073  1.5902 -0.1196 -0.5891
  997TIP3    H224551   5.586   0.957   1.176  1.6027  0.2956 -0.3072
  998TIP3   OH224552   2.589   1.391   8.203 -0.5738  0.4562 -0.1103
  998TIP3    H124553   2.554   1.308   8.171 -0.6727 -0.1189  1.3970
  998TIP3    H224554   2.512   1.444   8.221 -0.4942  1.3852 -2.2323
  999TIP3   OH224555   5.884   4.341   7.694 -0.2475  0.2730  0.1801
  999TIP3    H124556   5.941   4.371   7.765  1.2894 -1.6417 -0.1731
  999TIP3    H224557   5.799   4.379   7.715  1.0144  2.9849  0.9178
 1000TIP3   OH224558   4.613   2.786   2.657  0.5298  0.6076 -0.1389
 1000TIP3    H124559   4.696   2.781   2.705  0.1769  0.0950  0.4370
 1000TIP3    H224560   4.635   2.833   2.577  1.6680 -0.6708 -0.6173
 1001TIP3   OH224561   2.527   5.872   1.427  0.0608 -0.0161  0.1660
 1001TIP3    H124562   2.464   5.848   1.359  1.1618  0.0730 -0.9210
 1001TIP3    H224563   2.474   5.885   1.505 -1.3618  0.7420 -0.8806
 1002TIP3   OH224564   4.727   5.752   7.554 -0.3125  0.4616 -0.3835
 1002TIP3    H124565   4.723   5.828   7.611  0.6608  0.5703 -0.4389
 1002TIP3    H224566   4.684   5.682   7.603  0.0009  0.7010  0.2360
 1003TIP3   OH224567   0.181   6.247   8.249  0.5204  0.1471  0.3319
 1003TIP3    H124568   0.228   6.256   8.333  0.3811 -1.8401  0.6542
 1003TIP3    H224569   0.117   6.178   8.265  0.9028 -0.6997 -1.6010
 1004TIP3   OH224570   2.059   3.452   1.237 -0.4510  0.2187 -0.6231
 1004TIP3    H124571   2.147   3.489   1.226  1.2110 -2.5483  1.9086
 1004TIP3    H224572   2.008   3.523   1.277  0.6880  1.7660 -1.8043
 1005TIP3   OH224573   5.208   4.045   7.630  0.3128  0.6372 -0.5826
 1005TIP3    H124574   5.297   4.058   7.661  0.3934  1.0734 -0.9866
 1005TIP3    H224575   5.152   4.076   7.702  0.4864  3.9450 -1.7077
 1006TIP3   OH224576   1.874   3.428   0.625  0.2984 -0.1339 -0.7188
 1006TIP3    H124577   1.859   3.522   0.623  1.0607  0.0077 -0.0447
 1006TIP3    H224578   1.911   3.411   0.712 -1.8657 -1.3754  0.0274
 1007TIP3   OH224579   5.893   4.365   7.316 -0.1676 -0.3963  0.3130
 1007TIP3    H124580   5.922   4.449   7.281  0.6250 -0.3843  0.9895
 1007TIP3    H224581   5.803   4.382   7.346 -0.2222  0.0465 -0.0829
 1008TIP3   OH224582   5.239   0.653   7.681  0.5854  0.0854 -0.2835
 1008TIP3    H124583   5.283   0.643   7.596  1.9697 -1.5805  0.5770
 1008TIP3    H224584   5.207   0.565   7.702 -0.6559  0.6884  0.4870
 1009TIP3   OH224585   1.230   0.354   0.120 -0.3124 -0.6323  0.5763
 1009TIP3    H124586   1.301   0.316   0.171 -0.0202 -1.9849 -0.7862
 1009TIP3    H224587   1.262   0.441   0.095  0.5708 -0.9611  0.5417
 1010TIP3   OH224588   6.459   3.857   6.417 -0.2284  0.1847  0.1871
 1010TIP3    H124589   6.455   3.949   6.391 -1.8915 -0.3924 -1.8532
 1010TIP3    H224590   6.368   3.829   6.418  0.3176 -1.7101 -0.2498
 1011TIP3   OH224591   3.965   3.479   7.509  0.6250 -0.8113 -0.3421
 1011TIP3    H124592   3.913   3.430   7.574  0.1099  0.5905  0.3380
 1011TIP3    H224593   4.047   3.430   7.502  0.0221 -1.9323  0.0869
 1012TIP3   OH224594   5.015   1.049   0.653 -0.4157 -0.3657 -0.3428
 1012TIP3    H124595   5.007   1.114   0.583  0.8924 -0.2658 -0.4173
 1012TIP3    H224596   5.052   0.972   0.610  1.2302 -0.0119  0.3795
 1013TIP3   OH224597   3.422   5.712   1.752  0.1055  0.2199 -0.1374
 1013TIP3    H124598   3.441   5.627   1.793  0.7050  0.1703 -0.5084
 1013TIP3    H224599   3.369   5.758   1.817  2.2466  0.7136  1.3613
 1014TIP3   OH224600   3.248   2.715   7.663  0.3474 -0.4394 -0.2801
 1014TIP3    H124601   3.240   2.766   7.743 -0.6834 -0.1854 -0.5384
 1014TIP3    H224602   3.343   2.711   7.647  0.6771 -1.6635  1.6735
 1015TIP3   OH224603   1.033   1.842   1.031 -0.0533  0.5574  0.6344
 1015TIP3    H124604   1.053   1.756   1.067  1.8669  1.0676  0.8907
 1015TIP3    H224605   0.978   1.824   0.954  1.2804 -0.9768 -0.0158
 1016TIP3   OH224606   1.209   4.314   0.790 -0.5686  0.4301 -0.1843
 1016TIP3    H124607   1.143   4.318   0.720 -1.0074  0.3115  0.2115
 1016TIP3    H224608   1.229   4.405   0.809  1.0647  0.4649 -1.8385
 1017TIP3   OH224609   5.617   5.938   7.701 -0.0651  0.1577 -0.4090
 1017TIP3    H124610   5.523   5.952   7.704  0.1781  2.2089 -1.1321
 1017TIP3    H224611   5.628   5.861   7.644 -1.2422  0.9824 -1.8232
 1018TIP3   OH224612   3.361   2.724   7.342  0.7811  0.2303 -0.0201
 1018TIP3    H124613   3.388   2.738   7.251 -0.4315 -0.1147 -0.4530
 1018TIP3    H224614   3.313   2.641   7.340 -0.4347  0.8958  0.6551
 1019TIP3   OH224615   4.063   2.103   7.262  0.5903 -0.2601  0.1926
 1019TIP3    H124616   4.145   2.068   7.298  1.1819 -0.8814 -1.6608
 1019TIP3    H224617   3.995   2.068   7.320  1.5822  0.0146  1.5858
 1020TIP3   OH224618   3.930   3.406   1.101  0.1318  0.3447  0.1029
 1020TIP3    H124619   3.941   3.317   1.067  0.3120 -0.0051  1.0289
 1020TIP3    H224620   3.853   3.440   1.056  0.4343 -0.0501 -0.7267
 1021TIP3   OH224621   1.859   6.985   6.820 -0.4108  0.2488 -0.5741
 1021TIP3    H124622   1.893   6.984   6.909  2.2506  1.2571 -1.4557
 1021TIP3    H224623   1.873   7.076   6.791 -1.5448  0.0267 -1.8913
 1022TIP3   OH224624   2.321   6.932   8.332  0.1248  0.6194  0.6093
 1022TIP3    H124625   2.255   6.863   8.335  0.8946 -0.1524  0.1061
 1022TIP3    H224626   2.295   6.992   8.402 -1.4890  0.6892 -0.0043
 1023TIP3   OH224627   3.190   3.260   7.185 -0.2467 -0.6600  0.4261
 1023TIP3    H124628   3.096   3.241   7.186 -0.5807  0.8796  0.5744
 1023TIP3    H224629   3.219   3.231   7.099 -1.4658  1.4008 -0.7640
 1024TIP3   OH224630   3.760   4.881   1.889 -0.1169  0.1268  0.1943
 1024TIP3    H124631   3.790   4.971   1.885  0.9909 -0.2756 -0.8908
 1024TIP3    H224632   3.761   4.859   1.982  0.3477  0.9775  0.3906
 1025TIP3   OH224633   2.594   1.559   7.259  0.0240  0.2622  0.6361
 1025TIP3    H124634   2.588   1.464   7.266 -0.4376  0.3197  1.1338
 1025TIP3    H224635   2.583   1.577   7.166  0.0332 -0.1640  0.5489
 1026TIP3   OH224636   2.426   6.811   0.491 -0.1607 -0.2902  0.0286
 1026TIP3    H124637   2.395   6.785   0.404  0.7762 -0.6865 -0.2011
 1026TIP3    H224638   2.423   6.731   0.543  1.4005 -0.5778 -0.2848
 1027TIP3   OH224639   4.972   4.079   1.785 -0.3710 -0.5345 -0.2135
 1027TIP3    H124640   4.975   3.988   1.755 -1.4292 -0.3867 -0.8227
 1027TIP3    H224641   5.062   4.111   1.773 -0.7269 -0.4256 -3.5498
 1028TIP3   OH224642   3.739   2.371   6.923  0.4496 -0.1070  0.4493
 1028TIP3    H124643   3.744   2.375   7.018  0.6465 -0.9245  0.4790
 1028TIP3    H224644   3.711   2.458   6.897 -0.1265 -0.0331  1.2878
 1029TIP3   OH224645   0.525   4.327   7.245 -0.2775  0.2475  0.1357
 1029TIP3    H124646   0.453   4.390   7.236 -1.9619 -1.3885  1.4073
 1029TIP3    H224647   0.572   4.334   7.162 -0.6231  2.8355  0.0599
 1030TIP3   OH224648   5.922   3.836   6.800 -0.0485  0.4213  0.0523
 1030TIP3    H124649   5.972   3.861   6.722  0.0858  0.1490  0.0481
 1030TIP3    H224650   5.907   3.742   6.789  1.9211 -0.1090  1.4226
 1031TIP3   OH224651   2.794   3.753   7.154  0.0786  0.1498 -0.1740
 1031TIP3    H124652   2.734   3.727   7.084 -0.7071 -1.1007  0.9121
 1031TIP3    H224653   2.859   3.808   7.110 -0.0118 -1.0999 -2.0143
 1032TIP3   OH224654   2.980   4.965   7.630  0.6799 -0.6049  0.1433
 1032TIP3    H124655   3.027   5.030   7.578  0.9558  0.7124  1.9481
 1032TIP3    H224656   3.014   4.881   7.599  0.0733  0.0184 -2.4713
 1033TIP3   OH224657   1.081   6.088   0.506  0.1020  0.2835  0.0925
 1033TIP3    H124658   1.057   6.134   0.587  0.0134  2.6207 -1.1750
 1033TIP3    H224659   1.007   6.030   0.489 -0.7992  1.2039  0.6826
 1034TIP3   OH224660   2.906   3.049   7.775  0.3190  0.4047 -0.1415
 1034TIP3    H124661   2.989   3.035   7.731  0.6388  0.6587  0.3753
 1034TIP3    H224662   2.840   3.031   7.708  0.7780 -0.1596 -0.4556
 1035TIP3   OH224663   2.283   5.436   7.356 -0.6766 -0.2202  0.2864
 1035TIP3    H124664   2.346   5.391   7.299 -0.8742  0.6164 -0.6190
 1035TIP3    H224665   2.308   5.528   7.351 -0.7522 -0.1114  1.5132
 1036TIP3   OH224666   0.400   2.867   6.979 -0.1620 -0.6759  0.1371
 1036TIP3    H124667   0.339   2.862   7.052 -0.6547  1.1793 -0.0765
 1036TIP3    H224668   0.474   2.917   7.013 -0.3979  0.2042 -0.6044
 1037TIP3   OH224669   5.627   6.765   6.322  0.4980  0.0300  0.0221
 1037TIP3    H124670   5.545   6.798   6.286  0.3975 -2.0305 -1.9188
 1037TIP3    H224671   5.680   6.842   6.337 -0.6372  1.2282 -1.7551
 1038TIP3   OH224672   1.174   1.780   7.457 -0.0164 -0.2103 -0.1875
 1038TIP3    H124673   1.087   1.771   7.496  0.1353  1.7531  0.7159
 1038TIP3    H224674   1.218   1.697   7.477 -1.5378 -1.0629 -0.2984
 1039TIP3   OH224675   5.160   4.131   1.424  0.0115  0.0582 -0.1587
 1039TIP3    H124676   5.178   4.161   1.513  1.8197 -0.0545 -0.4584
 1039TIP3    H224677   5.209   4.191   1.368 -1.6466  0.5565 -1.1545
 1040TIP3   OH224678   6.614   4.368   8.055 -0.2068  0.0392  0.0658
 1040TIP3    H124679   6.634   4.336   8.143  0.7005  1.4376  0.4063
 1040TIP3    H224680   6.528   4.408   8.063 -0.1052  0.2071  0.3432
 1041TIP3   OH224681   4.931   4.741   6.755 -0.0062  0.3024  0.7555
 1041TIP3    H124682   4.899   4.829   6.775 -1.6206 -0.1206  0.2358
 1041TIP3    H224683   4.925   4.735   6.659  0.2377 -0.3026  0.7764
 1042TIP3   OH224684   4.716   6.654   7.409 -0.0543  0.2456  0.1049
 1042TIP3    H124685   4.778   6.702   7.355  0.8575 -0.7074  0.2774
 1042TIP3    H224686   4.659   6.609   7.346  0.0621  0.3241 -0.0552
 1043TIP3   OH224687   3.105   2.950   8.015  0.1974  0.1647 -0.1773
 1043TIP3    H124688   3.028   2.993   7.978  0.4398 -0.3978 -1.3946
 1043TIP3    H224689   3.168   2.946   7.943  0.3696 -1.7221  0.0210
 1044TIP3   OH224690   6.330   6.270   6.731 -0.1005 -0.0063  0.2706
 1044TIP3    H124691   6.342   6.226   6.646  2.5322  2.3366 -0.7353
 1044TIP3    H224692   6.372   6.212   6.794 -0.7534 -1.0689 -0.2363
 1045TIP3   OH224693   2.189   2.597   7.339  0.0133 -0.3062  0.0985
 1045TIP3    H124694   2.152   2.537   7.273  0.4195 -1.1316  0.6126
 1045TIP3    H224695   2.274   2.560   7.360  0.9929  1.3629 -0.7658
 1046TIP3   OH224696   4.851   0.847   0.344  0.0376 -0.0927 -0.3478
 1046TIP3    H124697   4.861   0.931   0.299  4.2198  1.4280  2.8016
 1046TIP3    H224698   4.884   0.782   0.281  0.5560  1.1711 -1.4308
 1047TIP3   OH224699   0.547   2.382   6.919 -0.0791  0.3756  0.4346
 1047TIP3    H124700   0.552   2.451   6.854  0.0910 -2.4070 -2.8031
 1047TIP3    H224701   0.453   2.370   6.934 -0.2306 -0.1137 -0.7639
 1048TIP3   OH224702   1.745   2.340   1.224 -0.3871 -0.1639 -0.4455
 1048TIP3    H124703   1.694   2.390   1.287 -0.6944 -2.0255  0.8804
 1048TIP3    H224704   1.827   2.321   1.269 -0.1088 -0.4739 -1.0729
 1049TIP3   OH224705   2.207   2.686   7.842  0.2500 -0.4036 -0.0541
 1049TIP3    H124706   2.131   2.628   7.834 -0.2333  0.4494 -3.7127
 1049TIP3    H224707   2.169   2.773   7.852  0.5942  0.0550 -2.1018
 1050TIP3   OH224708   0.234   0.048   0.247  0.5645 -0.4287 -0.2678
 1050TIP3    H124709   0.275   0.119   0.197  0.2729 -0.9973 -1.3494
 1050TIP3    H224710   0.251   0.070   0.339  0.1207  1.2624 -0.5528
 1051TIP3   OH224711   1.993   6.969   6.493 -0.6093  0.0658 -0.0305
 1051TIP3    H124712   1.963   7.060   6.493  2.1510  1.1201  1.7881
 1051TIP3    H224713   2.059   6.966   6.424 -1.5038 -0.9227 -0.8681
 1052TIP3   OH224714   2.459   6.131   2.099 -0.6134  0.0137 -0.0462
 1052TIP3    H124715   2.510   6.207   2.127  0.0273  0.4354 -2.1826
 1052TIP3    H224716   2.369   6.163   2.095 -0.4527  0.4600 -0.2150
 1053TIP3   OH224717   0.811   3.776   8.131  0.1753 -0.4628  0.8063
 1053TIP3    H124718   0.773   3.805   8.214  0.0160 -0.9820  0.9225
 1053TIP3    H224719   0.903   3.758   8.152  0.3344  0.1857  0.6761
 1054TIP3   OH224720   3.197   6.923   6.563  0.0492 -0.1443  0.2582
 1054TIP3    H124721   3.244   6.877   6.494 -0.4200  0.9470 -0.8249
 1054TIP3    H224722   3.252   6.999   6.583 -1.3989  1.4191 -1.3714
 1055TIP3   OH224723   2.667   5.305   7.528 -0.1486  0.0856 -0.0439
 1055TIP3    H124724   2.615   5.383   7.549  0.1245 -0.6042  4.1239
 1055TIP3    H224725   2.753   5.339   7.505 -0.3703  1.1034  0.5328
 1056TIP3   OH224726   3.310   3.196   7.670 -0.6485 -0.1335  0.5603
 1056TIP3    H124727   3.267   3.277   7.644 -0.2784 -0.1302 -0.0793
 1056TIP3    H224728   3.404   3.214   7.658 -0.6458 -1.8220 -3.3070
 1057TIP3   OH224729   0.388   3.146   0.127 -0.3402 -0.3672 -0.1725
 1057TIP3    H124730   0.420   3.120   0.041 -0.9301 -0.1733 -0.4532
 1057TIP3    H224731   0.356   3.236   0.115 -0.4274 -0.3399  0.2427
 1058TIP3   OH224732   0.666   6.538   2.632  0.5510  0.1463 -0.5572
 1058TIP3    H124733   0.577   6.561   2.603  0.1106 -0.1909  0.4582
 1058TIP3    H224734   0.708   6.622   2.652 -0.6004  0.2447  1.8784
 1059TIP3   OH224735   0.077   4.730   6.137 -0.3368 -0.6296 -0.1784
 1059TIP3    H124736   0.158   4.684   6.114  0.1492 -0.4828  1.1402
 1059TIP3    H224737   0.080   4.811   6.085 -0.0456 -0.9972 -0.7462
 1060TIP3   OH224738   5.260   4.098   0.564 -0.4102  0.6117 -0.1455
 1060TIP3    H124739   5.335   4.153   0.540  2.2287 -2.4038  0.4182
 1060TIP3    H224740   5.280   4.069   0.653 -2.0177 -0.6764 -0.1636
 1061TIP3   OH224741   3.645   5.253   1.637 -0.3917  0.2883  0.0670
 1061TIP3    H124742   3.710   5.206   1.688  1.5342  0.6016 -1.9299
 1061TIP3    H224743   3.610   5.188   1.577  0.2553  0.7481 -0.8304
 1062TIP3   OH224744   6.564   3.828   6.138  0.0353 -0.2363  0.5142
 1062TIP3    H124745   6.646   3.841   6.185 -0.6578  1.3440  1.3727
 1062TIP3    H224746   6.590   3.804   6.049  1.3978 -0.6919  1.0127
 1063TIP3   OH224747   5.659   5.379   6.388 -0.4504  0.0789  0.0770
 1063TIP3    H124748   5.655   5.474   6.377  0.4884  0.0815 -0.3331
 1063TIP3    H224749   5.628   5.343   6.305 -1.2505  0.0189  0.3978
 1064TIP3   OH224750   1.176   1.009   7.420  0.1082 -0.2738 -0.6224
 1064TIP3    H124751   1.178   0.926   7.469 -0.6473  0.5314  0.8376
 1064TIP3    H224752   1.111   0.995   7.352 -2.2596  0.0180  1.4303
 1065TIP3   OH224753   1.249   3.773   7.045  0.1119  0.1832 -0.7616
 1065TIP3    H124754   1.267   3.823   6.966 -0.1090 -0.4198 -1.1990
 1065TIP3    H224755   1.174   3.719   7.023 -0.0756  0.1542 -0.0727
 1066TIP3   OH224756   2.182   0.608   7.840 -0.7213 -0.5398 -0.2898
 1066TIP3    H124757   2.256   0.550   7.852 -1.4987 -1.4427  0.2794
 1066TIP3    H224758   2.215   0.695   7.864  0.4936 -0.6948 -1.3190
 1067TIP3   OH224759   3.498   6.419   2.074 -0.1510  0.1655 -0.3273
 1067TIP3    H124760   3.518   6.327   2.092  1.6061  0.6225  0.1643
 1067TIP3    H224761   3.577   6.454   2.034 -0.5257  1.6493  0.1684
 1068TIP3   OH224762   5.801   6.460   6.102 -0.1859  0.0885  0.0476
 1068TIP3    H124763   5.791   6.367   6.080 -1.0981 -0.1694  1.3956
 1068TIP3    H224764   5.843   6.498   6.026  0.8868 -1.5701 -0.2542
 1069TIP3   OH224765   5.847   0.381   1.599 -0.0403 -0.0791  0.5111
 1069TIP3    H124766   5.758   0.411   1.582  0.1966  0.2074 -0.2734
 1069TIP3    H224767   5.893   0.460   1.628 -0.0987 -0.2823  1.1810
 1070TIP3   OH224768   3.189   1.785   8.049 -0.3240  0.1474  0.3642
 1070TIP3    H124769   3.151   1.737   8.123 -0.5631 -0.3496 -0.0797
 1070TIP3    H224770   3.284   1.775   8.060 -0.3758 -1.7205 -0.5488
 1071TIP3   OH224771   6.398   4.757   7.567 -0.4323 -0.0266  0.2505
 1071TIP3    H124772   6.478   4.713   7.536 -1.4424 -2.2222  0.6004
 1071TIP3    H224773   6.357   4.693   7.625 -3.1550  0.4866 -0.9831
 1072TIP3   OH224774   5.945   6.333   0.311 -0.4406  0.5191  0.2058
 1072TIP3    H124775   5.964   6.312   0.219 -0.6383  1.9814 -0.2029
 1072TIP3    H224776   5.866   6.283   0.331 -0.8109  0.7384 -0.6605
 1073TIP3   OH224777   4.875   2.764   0.822 -0.2035 -0.1377 -0.0946
 1073TIP3    H124778   4.808   2.709   0.782  0.1428 -0.5862 -0.0613
 1073TIP3    H224779   4.893   2.722   0.906 -0.8123  0.7027  0.4891
 1074TIP3   OH224780   5.435   3.279   7.324 -0.2320  0.1498  0.4528
 1074TIP3    H124781   5.370   3.250   7.259  0.2583 -0.0238  0.0346
 1074TIP3    H224782   5.492   3.339   7.277  0.3209 -0.2232  0.6283
 1075TIP3   OH224783   3.505   6.842   0.626 -0.6106  0.2021  0.1472
 1075TIP3    H124784   3.509   6.754   0.664  0.8689  0.2191  0.1088
 1075TIP3    H224785   3.486   6.900   0.700  0.0798  0.0051  0.4962
 1076TIP3   OH224786   1.867   1.349   8.310 -0.1310 -0.0281 -0.5628
 1076TIP3    H124787   1.777   1.376   8.324 -0.0095  0.3094 -0.4213
 1076TIP3    H224788   1.905   1.341   8.397  0.3292  1.0687 -0.6418
 1077TIP3   OH224789   5.888   2.925   0.919 -0.2347 -0.6255  0.0083
 1077TIP3    H124790   5.974   2.965   0.907 -1.4646  1.9517 -1.0752
 1077TIP3    H224791   5.902   2.857   0.985  2.4694  0.2172  0.4286
 1078TIP3   OH224792   3.785   5.266   8.300 -0.0748  0.3938 -0.7646
 1078TIP3    H124793   3.809   5.259   8.392  0.5767  0.9556 -0.8893
 1078TIP3    H224794   3.838   5.338   8.266 -2.0380  1.8061 -1.0033
 1079TIP3   OH224795   1.502   2.704   7.460 -0.4739  0.3852 -0.3392
 1079TIP3    H124796   1.415   2.721   7.495 -0.9306 -0.9397 -0.7968
 1079TIP3    H224797   1.561   2.746   7.522 -1.4064  0.7874  0.2938
 1080TIP3   OH224798   4.384   5.095   7.819 -0.5315  0.0482  0.0469
 1080TIP3    H124799   4.295   5.084   7.850 -0.0070 -1.8087  1.0376
 1080TIP3    H224800   4.424   5.008   7.829  1.8434  1.1681  1.1179
 1081TIP3   OH224801   3.399   2.946   6.380 -0.3453  0.4632  0.1473
 1081TIP3    H124802   3.465   2.951   6.311 -0.4104  1.8781  0.1608
 1081TIP3    H224803   3.329   3.004   6.351 -1.0585 -0.0947  0.6969
 1082TIP3   OH224804   6.517   0.930   7.814  0.4735  0.1927 -0.6107
 1082TIP3    H124805   6.610   0.953   7.808  0.0300  2.3553  0.0827
 1082TIP3    H224806   6.485   0.937   7.724  0.6465  1.0561 -0.6140
 1083TIP3   OH224807   6.935   3.426   7.652  0.3611 -0.4199 -0.4822
 1083TIP3    H124808   6.919   3.488   7.723 -1.2060 -2.0242  0.6619
 1083TIP3    H224809   7.026   3.398   7.664  0.2592 -0.3211  0.6370
 1084TIP3   OH224810   5.882   5.291   8.171 -0.6743  1.0201 -0.1240
 1084TIP3    H124811   5.884   5.197   8.191 -2.6968  1.1747  1.0712
 1084TIP3    H224812   5.931   5.299   8.089  2.0070 -0.6408  1.1758
 1085TIP3   OH224813   2.955   6.462   7.603 -0.2563  0.5646 -0.2652
 1085TIP3    H124814   2.988   6.419   7.682 -2.0981 -0.3060  0.0867
 1085TIP3    H224815   2.891   6.525   7.635  0.8154  2.0491 -0.9350
 1086TIP3   OH224816   5.741   5.803   7.329  0.2222 -0.5368 -0.0467
 1086TIP3    H124817   5.834   5.811   7.353  0.6189 -1.5437 -1.1744
 1086TIP3    H224818   5.703   5.887   7.356  1.0094 -0.8478  2.2921
 1087TIP3   OH224819   4.970   6.070   0.534  0.0740  0.3621  0.0635
 1087TIP3    H124820   4.942   5.983   0.505  1.0447  0.0904 -0.1064
 1087TIP3    H224821   4.967   6.067   0.629  0.8603 -0.1192  0.0732
 1088TIP3   OH224822   2.123   3.635   6.935  0.8308 -0.4581  0.4235
 1088TIP3    H124823   2.071   3.703   6.979  1.3631  0.1578  0.1136
 1088TIP3    H224824   2.069   3.610   6.859  0.0850 -1.2557  1.1944
 1089TIP3   OH224825   3.049   6.103   6.299  0.5203  0.0312  0.2661
 1089TIP3    H124826   3.010   6.188   6.317 -0.8300 -0.4392 -0.3428
 1089TIP3    H224827   2.980   6.040   6.320  0.5009 -0.7650 -1.9319
 1090TIP3   OH224828   5.713   1.860   6.346 -0.0084  0.1605  0.1019
 1090TIP3    H124829   5.763   1.930   6.387  0.4920  0.2519 -0.6396
 1090TIP3    H224830   5.629   1.901   6.321  0.2897  0.5092 -0.3474
 1091TIP3   OH224831   6.042   3.343   0.793  0.6255 -0.1077  0.0240
 1091TIP3    H124832   6.036   3.274   0.727 -0.4352  0.6703 -0.7173
 1091TIP3    H224833   6.133   3.340   0.823  1.0039 -0.7679 -1.1560
 1092TIP3   OH224834   6.338   0.376   7.974 -0.1705  0.1498  0.6886
 1092TIP3    H124835   6.261   0.329   7.943  1.0104 -0.2747 -1.8905
 1092TIP3    H224836   6.398   0.307   8.005  0.6034  0.0722 -0.8536
 1093TIP3   OH224837   2.185   6.257   7.812  0.1719  0.1446  0.1871
 1093TIP3    H124838   2.162   6.338   7.765 -1.2688 -0.3447  0.0165
 1093TIP3    H224839   2.102   6.211   7.822  1.0088 -1.4244  0.1036
 1094TIP3   OH224840   6.462   0.351   6.869  0.4611 -0.1542  0.0023
 1094TIP3    H124841   6.390   0.402   6.905  0.6184 -0.2237  0.4299
 1094TIP3    H224842   6.422   0.297   6.801  0.0815 -0.2952  0.3335
 1095TIP3   OH224843   0.405   3.764   2.105 -0.4146  0.1022 -0.1663
 1095TIP3    H124844   0.333   3.797   2.051 -0.2432  2.4345  0.8825
 1095TIP3    H224845   0.475   3.829   2.094  0.4442 -0.5591  1.0774
 1096TIP3   OH224846   4.956   6.280   8.000 -0.5733  0.3721  0.0212
 1096TIP3    H124847   5.013   6.205   8.014 -0.0452  0.3031 -2.0774
 1096TIP3    H224848   4.898   6.282   8.076  0.9102 -0.7529  1.2359
 1097TIP3   OH224849   4.811   0.075   2.437 -0.5277  0.5831 -0.1102
 1097TIP3    H124850   4.732   0.128   2.450 -0.8008  0.3249 -0.6828
 1097TIP3    H224851   4.781  -0.002   2.390  0.0562  0.4435 -0.2621
 1098TIP3   OH224852   5.894   3.839   7.742  0.2228  0.3292  0.0448
 1098TIP3    H124853   5.861   3.918   7.784 -0.2975  0.1886 -0.0962
 1098TIP3    H224854   5.900   3.775   7.812  0.4669  0.4361  0.1232
 1099TIP3   OH224855   2.529   2.927   2.463 -0.1516 -0.0818 -0.1499
 1099TIP3    H124856   2.589   2.901   2.533  0.2890 -1.4807 -0.9845
 1099TIP3    H224857   2.581   2.985   2.407  0.2427 -0.7446 -0.4976
 1100TIP3   OH224858   4.099   5.415   7.498 -0.7910  0.2019 -0.1728
 1100TIP3    H124859   4.112   5.509   7.509 -0.6878  0.2473 -0.6342
 1100TIP3    H224860   4.092   5.380   7.587  1.5981  0.3014  0.1158
 1101TIP3   OH224861   3.334   2.076   0.895  0.1618  0.1227  0.0816
 1101TIP3    H124862   3.394   2.147   0.872 -0.2978  0.9870  1.4385
 1101TIP3    H224863   3.293   2.105   0.977 -0.9174 -1.1739  0.0289
 1102TIP3   OH224864   4.466   2.422   6.749 -0.0465  0.0359 -0.1756
 1102TIP3    H124865   4.510   2.466   6.821 -0.3216  1.9618 -1.1141
 1102TIP3    H224866   4.529   2.424   6.677 -0.5662  0.1625 -0.6390
 1103TIP3   OH224867   5.955   2.221   0.771  0.5771 -0.1527  0.4941
 1103TIP3    H124868   5.958   2.316   0.778  0.3513 -0.2115  1.5509
 1103TIP3    H224869   5.864   2.201   0.747  0.6047 -0.1082  0.3519
 1104TIP3   OH224870   2.958   6.468   0.694 -0.0464  0.1378  0.4728
 1104TIP3    H124871   2.993   6.497   0.778  0.7410 -0.0600  0.2148
 1104TIP3    H224872   2.896   6.399   0.718  1.5274 -1.2169  0.7999
 1105TIP3   OH224873   3.137   5.684   1.088  0.5988 -0.4167 -0.3390
 1105TIP3    H124874   3.130   5.682   1.184  0.2453 -0.3176 -0.3622
 1105TIP3    H224875   3.194   5.611   1.067  0.0411 -0.9254 -0.1045
 1106TIP3   OH224876   6.398   1.699   2.393  0.0724 -0.3325 -0.3468
 1106TIP3    H124877   6.406   1.607   2.419 -0.7833 -0.5417 -0.7795
 1106TIP3    H224878   6.407   1.697   2.298  0.0497  0.0308 -0.3565
 1107TIP3   OH224879   1.587   6.356   0.937  0.1586  0.1685  0.1425
 1107TIP3    H124880   1.514   6.344   0.876 -0.7484  0.6110  1.1047
 1107TIP3    H224881   1.629   6.270   0.941  0.3600  0.1806 -1.2342
 1108TIP3   OH224882   3.529   4.326   1.167 -0.2424  0.2684  0.1878
 1108TIP3    H124883   3.497   4.238   1.189  0.3337 -0.4457 -1.5625
 1108TIP3    H224884   3.455   4.384   1.185 -0.5013 -0.5004  1.7609
 1109TIP3   OH224885   2.312   3.352   6.753 -0.0515 -0.0730  0.0581
 1109TIP3    H124886   2.308   3.421   6.687  0.7455 -0.0777 -0.0000
 1109TIP3    H224887   2.404   3.346   6.776 -0.5911  1.8052  3.2073
 1110TIP3   OH224888   2.780   2.855   0.026  0.7487  0.2586  0.0080
 1110TIP3    H124889   2.776   2.946  -0.004 -2.1223 -0.2828 -1.6914
 1110TIP3    H224890   2.740   2.805  -0.045  4.4955 -2.7648 -0.2846
 1111TIP3   OH224891   1.613   1.092   1.568 -0.2603  0.1993  0.4934
 1111TIP3    H124892   1.578   1.114   1.655  0.1497 -0.4538  0.8300
 1111TIP3    H224893   1.697   1.136   1.565 -1.2767  2.2064 -0.5209
 1112TIP3   OH224894   1.173   4.622   5.811 -0.1484  0.1125  0.0331
 1112TIP3    H124895   1.182   4.678   5.733  0.4197  1.6830  1.1788
 1112TIP3    H224896   1.212   4.539   5.785  1.5090  1.1176 -0.8832
 1113TIP3   OH224897   4.983   5.357   7.603 -0.2504  0.8950 -0.1872
 1113TIP3    H124898   5.039   5.297   7.652  0.1863  0.5122 -1.1384
 1113TIP3    H224899   4.907   5.304   7.579  0.9928  0.1181 -2.6706
 1114TIP3   OH224900   0.127   6.732   1.638 -0.0840 -0.1052 -0.0038
 1114TIP3    H124901   0.074   6.664   1.596  1.0584 -0.2426 -1.2903
 1114TIP3    H224902   0.145   6.697   1.725 -1.7239 -0.2383  0.3103
 1115TIP3   OH224903   0.542   6.933   0.340 -0.4180 -0.5384 -0.6700
 1115TIP3    H124904   0.491   6.861   0.378 -1.7572  0.5286 -0.3765
 1115TIP3    H224905   0.510   7.011   0.384  2.4769  0.0904  0.5746
 1116TIP3   OH224906   0.935   6.184   6.089 -0.3416  0.6254  0.1383
 1116TIP3    H124907   0.840   6.179   6.102 -0.2491 -1.8924  0.3688
 1116TIP3    H224908   0.945   6.216   6.000 -1.4595 -0.1023 -0.2725
 1117TIP3   OH224909   3.169   1.837   7.153  0.1797 -0.0474 -0.0445
 1117TIP3    H124910   3.259   1.858   7.177 -0.6103  0.6939  2.6762
 1117TIP3    H224911   3.129   1.806   7.235 -1.7627 -1.3858 -1.4082
 1118TIP3   OH224912   2.614   0.385   0.226 -0.0028 -0.2436  0.0873
 1118TIP3    H124913   2.630   0.292   0.215 -0.0992 -0.1136 -1.2933
 1118TIP3    H224914   2.700   0.422   0.245  0.0237 -0.6108  0.7156
 1119TIP3   OH224915   6.100   1.097   0.245  0.0302  0.0836 -0.1384
 1119TIP3    H124916   6.021   1.054   0.280 -0.1252  1.3180  1.1249
 1119TIP3    H224917   6.070   1.145   0.168 -0.1576 -0.5963 -0.4941
 1120TIP3   OH224918   4.258   6.756   1.891  0.0442 -0.4062  0.0605
 1120TIP3    H124919   4.248   6.833   1.835  0.1596 -0.8184 -0.5452
 1120TIP3    H224920   4.173   6.712   1.888  0.4997 -1.2669 -1.0858
 1121TIP3   OH224921   3.406   5.892   7.169 -1.1739 -0.4873  0.6069
 1121TIP3    H124922   3.499   5.871   7.177 -0.9839  0.1133 -0.0267
 1121TIP3    H224923   3.387   5.946   7.245 -1.2225 -1.3299  1.2162
 1122TIP3   OH224924   0.300   0.124   1.321  0.1713 -0.0774  0.4208
 1122TIP3    H124925   0.239   0.051   1.309 -0.2882 -0.0507  2.2932
 1122TIP3    H224926   0.306   0.164   1.235 -0.1796 -1.8458 -0.4677
 1123TIP3   OH224927   2.970   0.350   7.527 -0.1661 -0.5267 -0.1335
 1123TIP3    H124928   3.034   0.382   7.464 -1.1102 -0.3861 -1.0570
 1123TIP3    H224929   2.932   0.272   7.485 -1.3922  0.0421 -0.1301
 1124TIP3   OH224930   5.256   2.279   7.594  0.3915 -0.2002 -0.3860
 1124TIP3    H124931   5.244   2.223   7.517  1.7107  3.1487 -3.3231
 1124TIP3    H224932   5.345   2.259   7.625  0.5215 -0.3680 -0.8628
 1125TIP3   OH224933   0.061   2.107   1.168  0.4148 -0.2608 -0.7457
 1125TIP3    H124934   0.077   2.013   1.173 -0.6895 -0.5521 -2.0754
 1125TIP3    H224935   0.107   2.135   1.089  1.8059  0.5906  0.3208
 1126TIP3   OH224936   5.593   0.001   1.204  0.1483  0.4112  0.8886
 1126TIP3    H124937   5.615  -0.041   1.121  0.0597 -1.4386  1.7396
 1126TIP3    H224938   5.631   0.088   1.198  1.6798 -0.3023 -0.3933
 1127TIP3   OH224939   5.322   6.090   1.631  0.0244 -0.0759  0.0715
 1127TIP3    H124940   5.314   5.995   1.634  0.1041 -0.0670  0.6273
 1127TIP3    H224941   5.235   6.121   1.606 -0.1243 -0.2677  0.3514
 1128TIP3   OH224942   6.869   6.071   7.605  0.1070 -0.3014  0.6853
 1128TIP3    H124943   6.791   6.083   7.551 -0.5674  0.7482  1.8617
 1128TIP3    H224944   6.881   5.976   7.609 -1.4698 -0.5079  0.9934
 1129TIP3   OH224945   5.974   5.708   1.482  0.8990 -0.2853  0.1396
 1129TIP3    H124946   6.041   5.640   1.470 -0.5070 -1.7557  0.3321
 1129TIP3    H224947   5.915   5.672   1.549 -0.7456  0.4350 -0.8646
 1130TIP3   OH224948   1.285   3.625   2.161  0.0709  0.1960  0.0919
 1130TIP3    H124949   1.265   3.555   2.098  0.2396  0.4856 -0.2884
 1130TIP3    H224950   1.326   3.694   2.108  1.4738 -0.1039  0.7215
 1131TIP3   OH224951   2.482   6.227   0.724 -0.1966  0.7849 -0.0947
 1131TIP3    H124952   2.426   6.264   0.656 -1.4329  0.7488  0.8883
 1131TIP3    H224953   2.571   6.241   0.691 -0.7589 -0.4904 -2.4000
 1132TIP3   OH224954   1.731   0.771   1.353 -0.2539  0.6060 -0.4813
 1132TIP3    H124955   1.772   0.689   1.326 -1.8660 -1.1386  1.8960
 1132TIP3    H224956   1.801   0.836   1.346  0.4952 -0.3628 -4.6436
 1133TIP3   OH224957   1.836   1.516   7.210  0.4147  0.5389  0.0335
 1133TIP3    H124958   1.776   1.521   7.136  1.3154  0.7363 -0.6869
 1133TIP3    H224959   1.826   1.427   7.244 -0.6376  0.7173  0.2335
 1134TIP3   OH224960   3.391   0.415   7.393 -0.4260 -0.1719 -0.5736
 1134TIP3    H124961   3.473   0.460   7.413 -1.4042  1.2724  0.4533
 1134TIP3    H224962   3.371   0.365   7.473 -0.8901  0.0534 -0.5449
 1135TIP3   OH224963   1.167   1.782   2.134 -0.1680 -0.5021 -0.2115
 1135TIP3    H124964   1.161   1.756   2.225 -1.1252 -0.1994 -0.1761
 1135TIP3    H224965   1.077   1.777   2.101  0.2033 -0.9160 -1.2261
 1136TIP3   OH224966   4.844   2.083   1.106  0.1076 -0.2332  0.4221
 1136TIP3    H124967   4.782   2.043   1.166  0.7593  1.4030  2.3111
 1136TIP3    H224968   4.792   2.107   1.029 -1.2995 -0.1703  1.3668
 1137TIP3   OH224969   5.793   2.448   0.095 -0.7099  0.0001  0.1905
 1137TIP3    H124970   5.822   2.532   0.131 -0.3552  0.5778 -1.3373
 1137TIP3    H224971   5.719   2.472   0.038  2.1167  0.0812 -3.8884
 1138TIP3   OH224972   0.353   6.800   7.465 -0.5615  0.1252  0.3754
 1138TIP3    H124973   0.261   6.783   7.446 -0.5095  0.6670 -0.4110
 1138TIP3    H224974   0.397   6.718   7.443 -0.8852 -0.2381  1.0484
 1139TIP3   OH224975   3.227   3.467   0.602 -0.1875 -0.3267 -0.1912
 1139TIP3    H124976   3.242   3.435   0.512 -1.8791  0.3716 -0.7634
 1139TIP3    H224977   3.282   3.545   0.609  2.6831 -2.2832  0.6464
 1140TIP3   OH224978   1.757   3.477   6.136 -0.4538  0.5520 -0.1023
 1140TIP3    H124979   1.735   3.566   6.111  1.9456  1.3047  0.2260
 1140TIP3    H224980   1.809   3.486   6.216 -0.6983 -1.1976  0.2978
 1141TIP3   OH224981   5.952   5.816   8.094  0.2418  0.0797  0.1434
 1141TIP3    H124982   5.920   5.846   8.009  0.5063  0.9652  0.3415
 1141TIP3    H224983   5.894   5.858   8.158 -0.2749 -0.9897  0.3891
 1142TIP3   OH224984   5.376   3.990   6.567 -0.1882  0.5906 -0.1802
 1142TIP3    H124985   5.439   4.011   6.636 -1.6780  0.5859  1.2554
 1142TIP3    H224986   5.398   3.901   6.540  2.1289  1.5256 -1.7296
 1143TIP3   OH224987   6.730   4.683   1.941 -0.1851 -0.0689 -0.5129
 1143TIP3    H124988   6.699   4.772   1.956  2.0490  0.6245  0.2594
 1143TIP3    H224989   6.823   4.685   1.964 -0.1548 -2.6944 -0.0851
 1144TIP3   OH224990   2.276   3.710   7.177 -0.3038  0.9462  0.4497
 1144TIP3    H124991   2.279   3.630   7.125  0.8327  0.9935  0.4172
 1144TIP3    H224992   2.198   3.701   7.231 -0.2225 -0.1565  0.4014
 1145TIP3   OH224993   4.214   2.060   0.945  0.7311  0.2237 -0.1759
 1145TIP3    H124994   4.227   2.021   0.859  0.4300 -0.7010  0.1873
 1145TIP3    H224995   4.124   2.039   0.968  0.1631  2.1367 -0.4504
 1146TIP3   OH224996   4.332   4.433   0.839 -0.3502  0.0790 -0.1933
 1146TIP3    H124997   4.391   4.507   0.823  0.0841 -0.2443 -0.0912
 1146TIP3    H224998   4.330   4.386   0.756  0.4162 -0.5338  0.1231
 1147TIP3   OH224999   1.342   3.474   1.638  0.3626  0.1992  0.7953
 1147TIP3    H125000   1.335   3.387   1.677 -3.8514 -0.4771 -0.8894
 1147TIP3    H225001   1.396   3.524   1.699  0.7542 -2.8500  3.2010
 1148TIP3   OH225002   2.377   1.854   1.441  0.8349  0.0172  0.8986
 1148TIP3    H125003   2.451   1.903   1.405 -0.4921  2.1436  0.8966
 1148TIP3    H225004   2.357   1.897   1.524 -1.1318  0.2625  0.3379
 1149TIP3   OH225005   0.313   5.211   7.591 -0.0892 -0.6708 -0.0027
 1149TIP3    H125006   0.310   5.247   7.680  0.1716 -0.5584 -0.0410
 1149TIP3    H225007   0.404   5.182   7.580 -0.2202 -1.0628 -0.0815
 1150TIP3   OH225008   2.005   5.087   0.858 -0.1207 -0.5471 -0.3433
 1150TIP3    H125009   1.962   5.155   0.912 -0.1770 -1.2255  0.4947
 1150TIP3    H225010   1.947   5.076   0.783  0.2301  0.7999 -0.8356
 1151TIP3   OH225011   2.095   0.428   0.514 -0.3819 -0.2758 -0.8051
 1151TIP3    H125012   2.075   0.335   0.505 -3.8268  0.2606 -0.1204
 1151TIP3    H225013   2.146   0.434   0.594 -2.1029 -1.4353  0.4462
 1152TIP3   OH225014   0.846   5.887   5.819 -0.5007 -0.0950 -0.0088
 1152TIP3    H125015   0.763   5.935   5.815  0.0635  0.8170 -2.7097
 1152TIP3    H225016   0.834   5.812   5.762  0.1546 -0.6623  0.5733
 1153TIP3   OH225017   2.061   1.439   8.144 -0.2724 -0.9518 -0.1299
 1153TIP3    H125018   2.015   1.499   8.085  0.5516  1.4170  1.5137
 1153TIP3    H225019   1.997   1.420   8.213  0.0295 -0.5115  0.2791
 1154TIP3   OH225020   6.109   4.518   6.787  0.1887 -0.9120  0.8145
 1154TIP3    H125021   6.033   4.462   6.772 -0.2180  0.1655 -1.6399
 1154TIP3    H225022   6.074   4.607   6.781  1.7800 -0.3587 -1.9121
 1155TIP3   OH225023   6.967   6.809   0.887 -0.2395  0.2726 -0.3914
 1155TIP3    H125024   6.989   6.855   0.968 -0.8826 -0.1143  0.0063
 1155TIP3    H225025   7.023   6.731   0.889 -0.4039  0.1582 -0.2184
 1156TIP3   OH225026   0.269   3.438   8.241 -0.4921  0.2574  0.2288
 1156TIP3    H125027   0.304   3.524   8.262 -1.7065  0.9368 -0.4261
 1156TIP3    H225028   0.264   3.393   8.326  0.1091  0.8403  0.5819
 1157TIP3   OH225029   6.241   4.250   7.722  0.2661 -0.6340  0.4501
 1157TIP3    H125030   6.199   4.288   7.798  2.2589  2.8143  0.0135
 1157TIP3    H225031   6.169   4.234   7.660 -0.9314  0.5190  1.4908
 1158TIP3   OH225032   6.478   1.630   1.571 -0.5798 -0.0435 -0.0599
 1158TIP3    H125033   6.394   1.672   1.592  0.0241  1.2357 -0.0982
 1158TIP3    H225034   6.544   1.696   1.594  0.3508 -0.5469 -1.1960
 1159TIP3   OH225035   5.651   1.911   7.151 -0.1970 -0.0544  0.2621
 1159TIP3    H125036   5.601   1.908   7.070  1.6472 -1.2383 -0.9048
 1159TIP3    H225037   5.622   1.833   7.199 -1.4888  0.7921  0.9333
 1160TIP3   OH225038   3.211   0.089   8.120  0.1098  0.3131  0.2683
 1160TIP3    H125039   3.152   0.164   8.124 -1.1501 -0.5318 -1.4788
 1160TIP3    H225040   3.155   0.014   8.140  1.0582 -0.3099  0.6476
 1161TIP3   OH225041   5.748   2.209   1.840  0.0538  0.5197 -0.1364
 1161TIP3    H125042   5.707   2.124   1.830 -0.7152  0.7913  0.5435
 1161TIP3    H225043   5.777   2.211   1.932  1.0012  0.5906 -0.4271
 1162TIP3   OH225044   6.073   3.198   6.904 -0.4592 -0.1704  0.0034
 1162TIP3    H125045   6.155   3.150   6.913  0.1201  0.4495 -1.5679
 1162TIP3    H225046   6.026   3.152   6.834 -1.8940 -1.0578  1.4715
 1163TIP3   OH225047   1.569   5.016   1.502 -0.1906  0.5045 -0.5679
 1163TIP3    H125048   1.663   5.000   1.495 -0.1069  0.6623  0.0940
 1163TIP3    H225049   1.541   4.958   1.574 -0.8019 -0.3562 -1.4784
 1164TIP3   OH225050   1.007   5.903   6.555  0.2210 -0.3387 -0.7030
 1164TIP3    H125051   1.044   5.886   6.469  0.4741  0.4869 -0.7673
 1164TIP3    H225052   1.077   5.947   6.604 -0.2184  0.0321 -0.3854
 1165TIP3   OH225053   5.989   5.884   7.429  0.2734 -0.4277  0.9273
 1165TIP3    H125054   6.083   5.904   7.425  0.5853 -1.8142  0.8089
 1165TIP3    H225055   5.957   5.936   7.502  0.2292  3.3373 -1.4467
 1166TIP3   OH225056   4.722   4.818   8.000  0.3223 -0.1720 -0.0579
 1166TIP3    H125057   4.700   4.883   7.934 -0.1197 -1.3284 -1.0940
 1166TIP3    H225058   4.750   4.869   8.076 -1.4195  1.2445 -0.3199
 1167TIP3   OH225059   0.526   5.384   0.956 -0.0474 -0.1969 -0.8395
 1167TIP3    H125060   0.584   5.436   0.900  2.0889  1.1228  2.3322
 1167TIP3    H225061   0.556   5.293   0.944 -0.8844 -0.2479 -3.0899
 1168TIP3   OH225062   5.443   4.459   7.303  0.3205  0.3709  0.5613
 1168TIP3    H125063   5.425   4.473   7.210  0.0581  1.8899  0.8206
 1168TIP3    H225064   5.358   4.469   7.346  0.3587 -0.7684  0.9464
 1169TIP3   OH225065   2.992   6.265   0.984 -0.1003 -0.4959  0.3260
 1169TIP3    H125066   2.904   6.234   0.960 -0.6101 -0.7330  2.3209
 1169TIP3    H225067   3.030   6.193   1.034  1.0565 -0.2095 -0.1265
 1170TIP3   OH225068   3.530   1.962   0.253 -0.5309  0.2507 -0.3493
 1170TIP3    H125069   3.623   1.950   0.267 -0.7619 -0.9979  0.1925
 1170TIP3    H225070   3.525   2.022   0.178  0.6850  0.9111  0.0605
 1171TIP3   OH225071   1.282   5.214   0.193 -0.3054  0.0076 -0.3537
 1171TIP3    H125072   1.265   5.298   0.235 -2.0435 -0.0503 -0.8518
 1171TIP3    H225073   1.282   5.150   0.264  0.2730  0.3340 -0.0593
 1172TIP3   OH225074   0.985   5.434   0.537 -0.9038  0.2572  0.4620
 1172TIP3    H125075   0.894   5.458   0.523 -1.2774 -1.3027  0.0987
 1172TIP3    H225076   1.017   5.499   0.600 -1.7258  1.9402 -0.7873
 1173TIP3   OH225077   6.323   2.520   8.185 -0.8670  0.4719  0.2355
 1173TIP3    H125078   6.411   2.489   8.165 -1.8161 -1.5251 -1.1679
 1173TIP3    H225079   6.289   2.552   8.102 -1.2504  1.9628  0.9203
 1174TIP3   OH225080   3.458   4.055   1.277 -0.1844 -0.0653 -0.0915
 1174TIP3    H125081   3.471   4.017   1.191  0.5188  0.7109 -0.3468
 1174TIP3    H225082   3.523   4.012   1.333  0.7057  0.8167 -0.4113
 1175TIP3   OH225083   1.340   6.951   1.261  0.4901  0.4362  0.2187
 1175TIP3    H125084   1.270   7.008   1.293 -0.1270 -0.6162  0.8457
 1175TIP3    H225085   1.416   6.973   1.315  0.5966  1.4530 -0.3305
 1176TIP3   OH225086   1.007   6.598   2.599  0.2359 -0.1534  0.3841
 1176TIP3    H125087   0.940   6.645   2.648 -2.2209 -1.9502 -0.9950
 1176TIP3    H225088   1.052   6.666   2.549  0.6160  1.2970  2.5558
 1177TIP3   OH225089   2.147   2.382   6.893 -0.4812  0.1039 -0.1676
 1177TIP3    H125090   2.172   2.414   6.806 -0.6183  1.6596  0.3398
 1177TIP3    H225091   2.229   2.382   6.942 -0.5352 -0.0445 -0.0778
 1178TIP3   OH225092   3.779   2.211   1.766 -0.5594 -0.1268 -0.4494
 1178TIP3    H125093   3.841   2.206   1.839  1.1860  1.3901 -1.7419
 1178TIP3    H225094   3.693   2.200   1.807  0.4422 -0.7724  1.6184
 1179TIP3   OH225095   4.141   6.991   2.141  0.5092 -0.4220  0.1995
 1179TIP3    H125096   4.189   7.039   2.073  1.0688 -0.1703  0.7635
 1179TIP3    H225097   4.076   6.939   2.092  1.3392 -0.7577 -0.5764
 1180TIP3   OH225098   0.645   1.214   1.663 -0.3884  0.1385 -0.2696
 1180TIP3    H125099   0.552   1.199   1.642  0.2158 -2.0772 -1.6384
 1180TIP3    H225100   0.654   1.183   1.753 -0.9322  0.2794 -0.1562
 1181TIP3   OH225101   0.557   1.687   0.212  0.7268  0.6579 -0.2728
 1181TIP3    H125102   0.634   1.638   0.181  0.9058 -0.4806  1.7995
 1181TIP3    H225103   0.593   1.769   0.244  0.5900  1.6678 -2.4854
 1182TIP3   OH225104   1.336   1.994   7.633  0.3277 -0.3728 -0.1251
 1182TIP3    H125105   1.263   1.986   7.694  1.4305  0.4969  1.4017
 1182TIP3    H225106   1.409   1.950   7.677  1.0575 -0.0733 -1.0039
 1183TIP3   OH225107   5.372   4.452   2.117 -0.5687  0.0675 -0.0035
 1183TIP3    H125108   5.285   4.491   2.130  0.1096  1.0403  2.1243
 1183TIP3    H225109   5.430   4.527   2.103 -0.1245 -0.6092 -2.1060
 1184TIP3   OH225110   6.493   3.477   6.942  0.3213  0.5075 -0.4250
 1184TIP3    H125111   6.550   3.414   6.898 -0.0897 -1.4616  1.6762
 1184TIP3    H225112   6.553   3.541   6.979  0.9597  0.0373 -0.6233
 1185TIP3   OH225113   2.887   5.077   0.668  0.3728  0.0984  0.5606
 1185TIP3    H125114   2.825   5.004   0.661  1.1419 -0.6041  0.9503
 1185TIP3    H225115   2.965   5.038   0.708  0.4169  1.3521  1.7552
 1186TIP3   OH225116   0.821   1.087   7.767  0.0897 -0.3546 -0.1539
 1186TIP3    H125117   0.864   1.002   7.763  1.4767  0.2334  1.3040
 1186TIP3    H225118   0.838   1.119   7.855 -2.0419  0.6192 -0.0258
 1187TIP3   OH225119   2.065   2.590   0.415 -0.4992 -0.4014  0.3221
 1187TIP3    H125120   2.155   2.575   0.386  0.6494  0.6781  3.0315
 1187TIP3    H225121   2.024   2.635   0.342  0.8314 -1.7654 -1.3682
 1188TIP3   OH225122   3.170   0.410   1.500 -0.4809 -0.2531 -0.1035
 1188TIP3    H125123   3.247   0.466   1.503 -1.1210  0.7637 -1.6344
 1188TIP3    H225124   3.170   0.372   1.412 -1.5181 -0.5471  0.0095
 1189TIP3   OH225125   0.789   3.859   7.777  0.0683 -0.2553 -0.1725
 1189TIP3    H125126   0.764   3.885   7.689 -1.5368  0.0576  0.3349
 1189TIP3    H225127   0.796   3.764   7.773  0.7051 -0.1836 -0.7983
 1190TIP3   OH225128   4.068   0.650   1.863  0.1124  0.2259 -1.1013
 1190TIP3    H125129   4.131   0.709   1.905  0.1777 -0.2678 -0.4952
 1190TIP3    H225130   3.987   0.663   1.912  0.4000 -0.9433 -0.2793
 1191TIP3   OH225131   4.473   2.764   7.949  0.9361 -0.2751 -0.3402
 1191TIP3    H125132   4.555   2.762   7.998  0.6718 -1.8755  0.0636
 1191TIP3    H225133   4.476   2.687   7.892 -1.5407 -2.1208  1.8187
 1192TIP3   OH225134   5.637   2.857   0.161 -0.4937 -0.3434  0.1960
 1192TIP3    H125135   5.708   2.796   0.181 -1.0135 -1.3827 -1.0160
 1192TIP3    H225136   5.621   2.846   0.068 -3.0576 -1.0812  0.6254
 1193TIP3   OH225137   5.713   2.056   7.863 -0.0011  0.2686 -0.0292
 1193TIP3    H125138   5.785   1.999   7.838 -0.0421  1.0085 -2.0125
 1193TIP3    H225139   5.732   2.080   7.954  1.5304 -0.5978 -0.0877
 1194TIP3   OH225140   2.621   2.049   8.057 -0.1496 -0.3069 -0.6511
 1194TIP3    H125141   2.711   2.057   8.090 -0.2124 -0.8107 -0.3612
 1194TIP3    H225142   2.595   1.960   8.080 -1.3315  0.3708  0.7711
 1195TIP3   OH225143   0.893   5.413   1.075 -0.2652 -0.1300  0.0746
 1195TIP3    H125144   0.954   5.473   1.119 -1.1836  0.2950  0.7984
 1195TIP3    H225145   0.829   5.471   1.033  0.0081 -0.5644 -0.9680
 1196TIP3   OH225146   5.878   4.951   7.774 -0.4285  0.4302  0.1351
 1196TIP3    H125147   5.863   4.861   7.744 -0.9756  1.1665 -2.0648
 1196TIP3    H225148   5.805   4.968   7.834 -0.2137 -0.6381  0.7352
 1197TIP3   OH225149   0.562   4.381   0.057  0.0000  0.3129 -0.3489
 1197TIP3    H125150   0.521   4.446   0.115  2.5998  1.0747  0.7689
 1197TIP3    H225151   0.622   4.431   0.003 -0.1930 -0.8126 -1.6607
 1198TIP3   OH225152   0.976   2.634   7.001  0.3731  0.0663  0.6050
 1198TIP3    H125153   0.911   2.564   7.000  0.1648  0.2603  0.1436
 1198TIP3    H225154   1.036   2.613   6.929 -0.3738  0.9745 -0.3244
 1199TIP3   OH225155   3.005   0.998   2.112 -0.0169 -0.1125  0.0896
 1199TIP3    H125156   3.036   0.925   2.059  1.4067 -0.1773  0.9596
 1199TIP3    H225157   3.007   0.966   2.202  0.3758  0.8958  0.4642
 1200TIP3   OH225158   6.495   2.253   6.105 -0.1829 -0.8035 -0.0437
 1200TIP3    H125159   6.585   2.280   6.124 -0.4709 -0.7335  1.3462
 1200TIP3    H225160   6.472   2.301   6.026  0.5098  0.3207  0.4074
 1201TIP3   OH225161   1.573   3.363   7.214 -0.0912  0.6173  0.0654
 1201TIP3    H125162   1.537   3.338   7.129  1.1904 -2.0327  0.1923
 1201TIP3    H225163   1.537   3.450   7.230 -3.6445 -0.3952 -1.3125
 1202TIP3   OH225164   0.596   4.644   7.740  0.5614  0.2178  0.2521
 1202TIP3    H125165   0.581   4.660   7.833  0.7006  1.4257  0.0745
 1202TIP3    H225166   0.681   4.684   7.721  0.8560 -0.6104 -0.2553
 1203TIP3   OH225167   4.179   5.193   6.304 -0.5353 -0.2090 -0.1030
 1203TIP3    H125168   4.245   5.151   6.360 -0.0305  0.1209 -0.4407
 1203TIP3    H225169   4.134   5.120   6.261  0.8753 -0.4292 -1.3062
 1204TIP3   OH225170   3.290   6.429   7.397 -0.9061 -0.7160 -0.4776
 1204TIP3    H125171   3.253   6.512   7.429  1.3975 -0.4422  1.7839
 1204TIP3    H225172   3.331   6.452   7.314  0.8466  0.8340  0.7234
 1205TIP3   OH225173   3.306   4.492   6.989 -0.0059 -0.4417  0.1593
 1205TIP3    H125174   3.224   4.542   6.993  0.8296  0.9111  1.6719
 1205TIP3    H225175   3.299   4.430   7.062  1.4580  1.6936  2.2832
 1206TIP3   OH225176   5.170   3.028   0.091  0.5225 -0.4699 -0.2533
 1206TIP3    H125177   5.082   2.991   0.085 -0.3936  1.0769  2.2594
 1206TIP3    H225178   5.222   2.960   0.132  0.1219 -0.8039 -0.2944
 1207TIP3   OH225179   2.589   5.546   6.422 -0.1687  0.2048 -0.0770
 1207TIP3    H125180   2.644   5.468   6.411  0.2460  0.6825 -1.7008
 1207TIP3    H225181   2.505   5.522   6.384 -0.1275  0.4474 -0.3260
 1208TIP3   OH225182   3.248   3.374   7.430  0.3737 -0.5305 -0.3237
 1208TIP3    H125183   3.179   3.418   7.480  2.3279  0.4518  1.6827
 1208TIP3    H225184   3.205   3.346   7.349 -2.3941 -0.1474  0.9001
 1209TIP3   OH225185   0.497   2.754   1.050 -0.1243 -0.1329  0.4243
 1209TIP3    H125186   0.466   2.797   0.970  1.4782  1.4673  0.6151
 1209TIP3    H225187   0.477   2.661   1.036 -3.2956  0.5229 -0.1838
 1210TIP3   OH225188   2.823   3.251   1.511  0.0905  0.0299  0.7039
 1210TIP3    H125189   2.832   3.332   1.561  0.5009  0.0270  0.6427
 1210TIP3    H225190   2.912   3.213   1.511  0.2416  0.3375 -0.5490
 1211TIP3   OH225191   5.473   3.490   7.660 -0.2198 -0.5517  0.2056
 1211TIP3    H125192   5.477   3.575   7.704 -0.5050 -0.1588 -0.5011
 1211TIP3    H225193   5.418   3.436   7.717 -0.2844 -0.1704  0.5121
 1212TIP3   OH225194   0.593   2.456   1.983  0.9087 -0.1376 -0.3743
 1212TIP3    H125195   0.544   2.531   2.017  0.5093 -0.2518 -0.6914
 1212TIP3    H225196   0.666   2.496   1.936 -0.7647  0.2166 -2.8997
 1213TIP3   OH225197   3.429   1.489   0.876  0.0208  0.0714  0.4777
 1213TIP3    H125198   3.410   1.583   0.875 -2.0776 -0.3070  0.4466
 1213TIP3    H225199   3.405   1.459   0.789  2.3123 -0.2574 -0.1012
 1214TIP3   OH225200   2.430   6.494   1.308 -0.2277  0.2841 -0.6031
 1214TIP3    H125201   2.368   6.504   1.380  0.3319  0.7848 -0.1773
 1214TIP3    H225202   2.396   6.421   1.257  0.5843 -1.6683  1.4593
 1215TIP3   OH225203   3.258   2.333   0.614  0.3059 -0.3052 -0.0665
 1215TIP3    H125204   3.314   2.331   0.537  1.1460 -2.5371  0.5335
 1215TIP3    H225205   3.309   2.288   0.682 -1.2822 -0.3414  1.1574
 1216TIP3   OH225206   2.842   3.860   0.643  0.0446 -0.6094  0.8681
 1216TIP3    H125207   2.936   3.859   0.627  0.0484  1.4292  0.5667
 1216TIP3    H225208   2.805   3.907   0.569 -1.2344 -1.4132  0.9689
 1217TIP3   OH225209   0.112   4.436   0.115 -0.0910 -0.5582 -0.0334
 1217TIP3    H125210   0.055   4.422   0.190 -0.3573 -0.7849 -0.2756
 1217TIP3    H225211   0.082   4.518   0.076 -0.0382 -0.5085  0.0304
 1218TIP3   OH225212   5.520   3.703   6.734 -0.2442 -0.3891 -0.1281
 1218TIP3    H125213   5.452   3.636   6.745 -1.4393  1.0347  1.8312
 1218TIP3    H225214   5.521   3.721   6.640 -1.5876 -1.4573 -0.3720
 1219TIP3   OH225215   3.462   5.647   7.569 -0.1951 -0.1953  0.0425
 1219TIP3    H125216   3.403   5.660   7.495 -0.1780 -1.3688 -0.1947
 1219TIP3    H225217   3.534   5.707   7.553  0.1276 -0.9034 -1.2569
 1220TIP3   OH225218   4.401   6.736   7.619 -0.0731 -0.0650 -0.4972
 1220TIP3    H125219   4.445   6.743   7.535 -2.3662  0.7238 -1.7263
 1220TIP3    H225220   4.313   6.704   7.597 -0.2189 -1.5132  1.7963
 1221TIP3   OH225221   5.149   1.473   0.314  0.2016 -0.3551  0.7271
 1221TIP3    H125222   5.149   1.534   0.388  1.2774  0.5667  0.0019
 1221TIP3    H225223   5.177   1.526   0.239  0.6990 -1.6282 -0.0189
 1222TIP3   OH225224   5.473   5.609   7.224  0.0169 -0.3508 -0.4897
 1222TIP3    H125225   5.423   5.597   7.144  0.4364  1.2521 -1.0327
 1222TIP3    H225226   5.450   5.698   7.254  1.3652 -0.1617  0.0637
 1223TIP3   OH225227   0.863   6.823   7.687  0.0636 -0.6181  0.3695
 1223TIP3    H125228   0.849   6.819   7.593 -0.1507 -4.4728  0.4071
 1223TIP3    H225229   0.953   6.856   7.696 -0.2771  0.8119 -1.0797
 1224TIP3   OH225230   6.676   3.921   8.266 -0.5461 -0.0844 -0.0333
 1224TIP3    H125231   6.751   3.913   8.208  0.4878  0.8335  1.1433
 1224TIP3    H225232   6.628   3.839   8.254 -0.0374 -0.1779 -1.6921
 1225TIP3   OH225233   0.522   3.661   0.960  0.3827 -0.2599  0.0455
 1225TIP3    H125234   0.549   3.638   1.049  1.8422  0.9806 -0.0424
 1225TIP3    H225235   0.470   3.586   0.931 -2.8660  0.5494  3.0415
 1226TIP3   OH225236   0.495   5.495   7.425  0.7184  0.1930  0.3748
 1226TIP3    H125237   0.522   5.533   7.509  2.5545  1.7881 -0.8474
 1226TIP3    H225238   0.554   5.421   7.412  1.3560  0.7746 -0.1064
 1227TIP3   OH225239   5.698   1.366   8.168  0.0218  0.2944  0.5000
 1227TIP3    H125240   5.627   1.411   8.214  0.1180  0.8446  0.1136
 1227TIP3    H225241   5.684   1.273   8.189 -1.6254  0.2352 -0.6365
 1228TIP3   OH225242   0.127   5.388   5.793 -0.4976 -0.9756  0.1044
 1228TIP3    H125243   0.151   5.315   5.850  0.4675 -1.0240 -0.3625
 1228TIP3    H225244   0.072   5.444   5.849  0.6023 -0.9101  1.1680
 1229TIP3   OH225245   3.248   6.375   6.436 -0.1333 -0.1754  0.1550
 1229TIP3    H125246   3.188   6.439   6.399  1.3498  1.0097 -0.3188
 1229TIP3    H225247   3.270   6.317   6.363 -1.7188 -1.4949  0.6563
 1230TIP3   OH225248   3.230   0.959   1.008 -0.2748 -0.4576  0.5254
 1230TIP3    H125249   3.260   1.048   0.992  1.7396 -1.0626  0.7367
 1230TIP3    H225250   3.202   0.959   1.099  1.1207 -0.3775  0.9772
 1231TIP3   OH225251   2.522   5.476   0.376  0.4295  0.6901  0.2450
 1231TIP3    H125252   2.490   5.425   0.451 -0.6994 -0.2528 -0.8313
 1231TIP3    H225253   2.539   5.411   0.308  3.6561  1.2575  0.3305
 1232TIP3   OH225254   2.951   1.126   0.302  0.0772 -0.1736  0.2659
 1232TIP3    H125255   2.902   1.081   0.233 -0.1137 -2.0937  1.5870
 1232TIP3    H225256   2.997   1.056   0.349  2.3208  1.3502  0.4844
 1233TIP3   OH225257   0.586   4.125   0.030  0.2584 -0.1831  0.3555
 1233TIP3    H125258   0.579   4.217   0.056  0.0893 -0.9685  3.4763
 1233TIP3    H225259   0.535   4.078   0.095 -2.8070 -2.3199 -3.1736
 1234TIP3   OH225260   2.038   1.010   0.870 -0.5270 -0.3282 -0.1157
 1234TIP3    H125261   1.997   0.935   0.913 -1.6980  0.5090  0.2645
 1234TIP3    H225262   2.060   1.070   0.941  0.3314 -0.2629 -0.4253
 1235TIP3   OH225263   4.772   6.908   1.414 -0.0535  0.1771  0.5467
 1235TIP3    H125264   4.795   7.000   1.401  2.0983 -0.3311  0.4539
 1235TIP3    H225265   4.696   6.910   1.472 -1.2876  2.0527 -1.0374
 1236TIP3   OH225266   1.211   1.232   7.178 -0.5684  0.1684 -0.3287
 1236TIP3    H125267   1.201   1.260   7.087  0.6554 -0.4615 -0.6824
 1236TIP3    H225268   1.162   1.149   7.183 -1.0069  0.4265 -0.2868
 1237TIP3   OH225269   6.666   5.115   6.483  0.0850  0.1224  0.8941
 1237TIP3    H125270   6.692   5.053   6.551  0.7006 -2.2169 -1.3202
 1237TIP3    H225271   6.741   5.174   6.475  1.6028 -1.8205 -0.1401
 1238TIP3   OH225272   3.126   0.769   5.973 -0.3711  0.2752  0.0061
 1238TIP3    H125273   3.172   0.841   6.015  0.0500 -0.1937  0.3627
 1238TIP3    H225274   3.134   0.787   5.879  0.6377  0.1483  0.0585
 1239TIP3   OH225275   5.753   0.306   8.059  0.6007 -0.4160  0.5057
 1239TIP3    H125276   5.837   0.281   8.021  0.7429 -1.0438  1.1972
 1239TIP3    H225277   5.774   0.337   8.147  0.1879  0.1425  0.4097
 1240TIP3   OH225278   4.728   1.325   7.644 -0.1484 -0.1863  0.1333
 1240TIP3    H125279   4.649   1.360   7.686  0.3499 -1.0313  1.8734
 1240TIP3    H225280   4.716   1.230   7.647 -1.4700 -0.4237 -4.4750
 1241TIP3   OH225281   1.878   3.777   0.178 -0.9730 -0.2092  0.0329
 1241TIP3    H125282   1.961   3.807   0.141 -0.0842 -2.5460 -0.0887
 1241TIP3    H225283   1.812   3.801   0.114  0.2039 -1.8932 -1.9433
 1242TIP3   OH225284   5.772   5.905   8.263 -0.5546  0.5516 -0.4017
 1242TIP3    H125285   5.761   5.990   8.305  1.8360  0.6219  0.2383
 1242TIP3    H225286   5.741   5.842   8.329 -0.0503  0.8235  0.1020
 1243TIP3   OH225287   4.610   2.710   7.164 -0.0642 -0.2350  0.2726
 1243TIP3    H125288   4.517   2.732   7.170 -0.0120 -0.1051  0.6385
 1243TIP3    H225289   4.638   2.699   7.255  0.1568 -0.7858  0.1451
 1244TIP3   OH225290   2.868   2.046   8.176 -0.0915  0.0942 -0.3818
 1244TIP3    H125291   2.859   2.018   8.267 -1.5695  1.6154 -0.0228
 1244TIP3    H225292   2.933   2.116   8.179  1.5515 -1.3213 -0.8853
 1245TIP3   OH225293   2.272   4.740   7.590  0.0108 -0.1312 -0.0400
 1245TIP3    H125294   2.339   4.782   7.644 -1.1320  0.3164  1.1078
 1245TIP3    H225295   2.303   4.751   7.500  1.5386 -0.0927  0.4607
 1246TIP3   OH225296   0.645   0.852   2.240 -0.2773 -0.0297  0.1497
 1246TIP3    H125297   0.580   0.784   2.256 -1.5995  1.4024  1.1675
 1246TIP3    H225298   0.722   0.824   2.290 -0.6671 -0.9589  0.2427
 1247TIP3   OH225299   0.669   6.154   0.579  0.4276  0.4385 -0.5551
 1247TIP3    H125300   0.577   6.178   0.574  0.5096  0.6889 -0.8544
 1247TIP3    H225301   0.680   6.120   0.668 -0.2452 -0.7874 -0.9066
 1248TIP3   OH225302   6.299   2.227   7.205  0.1840 -0.0198 -0.0986
 1248TIP3    H125303   6.350   2.157   7.246 -0.3164  1.1948  2.9108
 1248TIP3    H225304   6.337   2.237   7.118  2.7953 -1.4466  0.7676
 1249TIP3   OH225305   4.832   3.797   8.351 -0.0442 -0.2869  0.2230
 1249TIP3    H125306   4.885   3.875   8.333  2.1279 -1.5394  0.8467
 1249TIP3    H225307   4.881   3.750   8.418 -1.2584 -2.2457 -0.2036
 1250TIP3   OH225308   1.109   0.702   7.961  0.2260  0.0853 -0.3568
 1250TIP3    H125309   1.163   0.662   8.029 -0.3857 -1.0805 -0.5313
 1250TIP3    H225310   1.132   0.653   7.881 -0.5587  0.0646 -0.5732
 1251TIP3   OH225311   4.093   6.547   1.256 -0.2870 -0.5783  0.0060
 1251TIP3    H125312   4.075   6.478   1.319  0.6347 -2.0195 -1.2375
 1251TIP3    H225313   4.188   6.556   1.257 -0.3245 -0.0798 -0.6145
 1252TIP3   OH225314   4.426   3.746   1.484 -1.0418 -0.6290 -0.0405
 1252TIP3    H125315   4.411   3.760   1.390 -0.9465 -1.0273 -0.1182
 1252TIP3    H225316   4.504   3.691   1.488  0.6546  1.6905  0.3781
 1253TIP3   OH225317   4.949   0.637   7.574  0.3895  0.0617  0.2101
 1253TIP3    H125318   4.975   0.722   7.539  0.1384  0.0920  0.0987
 1253TIP3    H225319   4.856   0.630   7.555  0.4244 -0.2723  0.1494
 1254TIP3   OH225320   4.413   4.734   2.214  0.4564 -0.4069  0.3416
 1254TIP3    H125321   4.331   4.766   2.251 -1.0444 -1.3597 -1.8953
 1254TIP3    H225322   4.466   4.812   2.199 -1.1070  0.5438 -0.4571
 1255TIP3   OH225323   4.350   1.014   0.739 -0.5411 -0.2662 -0.1929
 1255TIP3    H125324   4.371   0.965   0.659  1.9846 -1.4852  1.0871
 1255TIP3    H225325   4.420   1.080   0.745 -1.8681  1.1677 -0.0004
 1256TIP3   OH225326   3.484   2.558   0.707  0.4404 -0.0453 -0.1827
 1256TIP3    H125327   3.475   2.567   0.612  0.1843 -2.4468 -0.4547
 1256TIP3    H225328   3.480   2.647   0.740  0.2312  0.8339 -2.4023
 1257TIP3   OH225329   4.183   2.911   7.574  0.1457 -0.0477  0.4725
 1257TIP3    H125330   4.187   2.851   7.499 -1.2510 -0.6456  0.8388
 1257TIP3    H225331   4.122   2.979   7.546  0.0969  0.0608  0.8443
 1258TIP3   OH225332   6.144   3.934   8.051  0.0927  0.1578  0.9127
 1258TIP3    H125333   6.141   3.893   7.964 -1.4713 -0.2899  1.1467
 1258TIP3    H225334   6.236   3.958   8.063  0.9765 -2.7229  0.5112
 1259TIP3   OH225335   4.970   0.301   0.478  0.0428  0.2218  0.5212
 1259TIP3    H125336   5.027   0.301   0.555 -0.0393  0.8555  0.5887
 1259TIP3    H225337   5.026   0.270   0.407  0.6319  1.3256  0.4832
 1260TIP3   OH225338   2.632   6.495   0.418 -0.1790  0.2744  0.3837
 1260TIP3    H125339   2.584   6.501   0.336 -1.7276  0.4872  1.2469
 1260TIP3    H225340   2.682   6.414   0.412 -0.2666  0.2894 -0.7438
 1261TIP3   OH225341   2.462   0.160   8.224 -0.0305 -0.4476 -0.3124
 1261TIP3    H125342   2.407   0.238   8.230  0.3022 -0.2759  0.6502
 1261TIP3    H225343   2.402   0.088   8.244 -0.0443 -0.3069  0.1879
 1262TIP3   OH225344   5.576   5.627   2.315 -0.8708 -0.5082 -0.2246
 1262TIP3    H125345   5.543   5.538   2.307 -3.2147  0.4139 -1.9710
 1262TIP3    H225346   5.654   5.629   2.259 -0.3326 -1.6113  0.4470
 1263TIP3   OH225347   1.377   4.891   6.429 -0.4864 -0.4302 -0.1367
 1263TIP3    H125348   1.308   4.946   6.393 -0.0208  0.6982  0.6458
 1263TIP3    H225349   1.425   4.860   6.353 -2.0830 -1.6038 -0.7396
 1264TIP3   OH225350   3.319   5.082   0.348  0.0200  0.5143 -0.2040
 1264TIP3    H125351   3.243   5.033   0.378  0.3694 -1.7859 -2.6988
 1264TIP3    H225352   3.284   5.145   0.285  0.0265  0.5825 -0.1402
 1265TIP3   OH225353   4.463   0.013   0.342  0.2829 -0.0985  1.0748
 1265TIP3    H125354   4.488  -0.062   0.289  0.8142  1.6420 -1.3237
 1265TIP3    H225355   4.391   0.054   0.294  1.2873  1.9971  1.2472
 1266TIP3   OH225356   6.901   0.898   1.438  0.1446 -0.5568  0.3372
 1266TIP3    H125357   6.905   0.848   1.519  1.0839 -1.4899 -0.2602
 1266TIP3    H225358   6.812   0.882   1.405 -0.6672  0.8065  1.7469
 1267TIP3   OH225359   0.140   6.097   7.481  0.7399  0.0211 -0.0566
 1267TIP3    H125360   0.132   6.139   7.396  1.9840  0.0131 -0.1936
 1267TIP3    H225361   0.063   6.126   7.529  1.4264  2.3048 -0.2048
 1268TIP3   OH225362   0.400   0.151   0.492 -0.3441 -0.0501  0.2476
 1268TIP3    H125363   0.360   0.237   0.478 -0.3814 -0.2949 -1.3788
 1268TIP3    H225364   0.452   0.161   0.572  1.2013  2.0768 -0.9237
 1269TIP3   OH225365   2.496   6.234   6.307  0.1033  0.2467  0.0019
 1269TIP3    H125366   2.411   6.235   6.263 -0.0721 -0.6852  0.3067
 1269TIP3    H225367   2.536   6.151   6.281 -0.5828 -1.0095  2.6468
 1270TIP3   OH225368   2.771   2.749   0.907 -0.6772  0.3092 -0.3196
 1270TIP3    H125369   2.729   2.738   0.992  1.3057  1.2556  0.8350
 1270TIP3    H225370   2.831   2.675   0.900 -1.4121 -0.2107 -1.2792
 1271TIP3   OH225371   2.469   2.197   0.745  0.3438 -0.3880  0.2793
 1271TIP3    H125372   2.384   2.177   0.783  0.8347 -0.2258  1.5068
 1271TIP3    H225373   2.459   2.179   0.652 -1.2639  0.3938  0.2690
 1272TIP3   OH225374   4.096   3.441   0.703 -0.1219 -0.2396  0.3208
 1272TIP3    H125375   4.145   3.434   0.785 -0.2299 -0.2637  0.3843
 1272TIP3    H225376   4.005   3.449   0.731 -0.1532 -0.1891  0.2041
 1273TIP3   OH225377   5.445   0.826   7.817  0.3647  0.2796 -0.7640
 1273TIP3    H125378   5.506   0.768   7.771  0.2047 -0.0784 -0.5268
 1273TIP3    H225379   5.359   0.785   7.806  0.3691  0.0079  0.1362
 1274TIP3   OH225380   2.004   1.345   0.221  0.5149  0.0677  0.1413
 1274TIP3    H125381   2.053   1.285   0.277  2.1418  2.7443  1.7863
 1274TIP3    H225382   1.920   1.356   0.266  0.9374  0.4405  0.8608
 1275TIP3   OH225383   3.567   4.763   6.648  0.4163  0.5064 -0.2051
 1275TIP3    H125384   3.549   4.673   6.621  0.1080 -0.2505  2.2747
 1275TIP3    H225385   3.661   4.775   6.632  0.5820 -0.4856 -0.0227
 1276TIP3   OH225386   0.457   5.675   0.367  0.1887  0.4329 -0.1274
 1276TIP3    H125387   0.363   5.690   0.362  0.0809 -0.3912 -0.8837
 1276TIP3    H225388   0.469   5.583   0.341  1.1142  0.2312  0.9216
 1277TIP3   OH225389   5.657   0.767   0.453  0.5027 -0.1163 -0.6491
 1277TIP3    H125390   5.662   0.674   0.428 -1.0935 -0.1783 -0.8994
 1277TIP3    H225391   5.731   0.781   0.511  0.6756 -1.6064 -0.4686
 1278TIP3   OH225392   5.722   3.335   0.378  0.0212  0.0736  0.4549
 1278TIP3    H125393   5.697   3.264   0.438  0.2178  0.3107  0.8183
 1278TIP3    H225394   5.795   3.299   0.328 -0.0626 -0.0815  0.4441
 1279TIP3   OH225395   0.967   6.480   1.646 -0.2081 -0.2549  0.1140
 1279TIP3    H125396   0.895   6.456   1.589 -0.2472 -0.0406  0.0722
 1279TIP3    H225397   0.954   6.428   1.725 -0.1993 -0.4914 -0.0399
 1280TIP3   OH225398   6.684   2.366   1.775  0.9138  0.1294  0.0314
 1280TIP3    H125399   6.654   2.357   1.684 -0.2907 -0.5355  0.4776
 1280TIP3    H225400   6.643   2.447   1.805  0.3531 -0.2562  0.3295
 1281TIP3   OH225401   0.452   3.868   7.727 -0.3907  0.1021 -0.3890
 1281TIP3    H125402   0.398   3.940   7.696 -0.4810 -0.1920 -0.9389
 1281TIP3    H225403   0.527   3.866   7.667 -0.3152 -0.1689 -0.2905
 1282TIP3   OH225404   0.862   0.409   0.824 -0.2196  0.0981 -0.0312
 1282TIP3    H125405   0.799   0.480   0.829  0.5644  0.8009  0.1664
 1282TIP3    H225406   0.864   0.385   0.732 -0.7054  0.1391 -0.0515
 1283TIP3   OH225407   0.456   4.114   7.595 -0.7438 -0.0452  0.2402
 1283TIP3    H125408   0.470   4.144   7.505 -2.2081 -0.4326 -0.1333
 1283TIP3    H225409   0.399   4.180   7.634 -2.4414 -1.3107 -0.0091
 1284TIP3   OH225410   2.500   3.043   0.473 -0.1501 -0.4074 -0.8702
 1284TIP3    H125411   2.506   3.112   0.540  0.2821  0.0981 -1.4204
 1284TIP3    H225412   2.563   2.977   0.502 -0.0463 -0.2427 -0.7177
 1285TIP3   OH225413   2.384   2.193   6.542 -0.0434 -0.0486 -0.6991
 1285TIP3    H125414   2.315   2.140   6.502  0.0604  1.0871 -2.5371
 1285TIP3    H225415   2.411   2.253   6.472  1.1025  1.1827  0.7239
 1286TIP3   OH225416   4.411   3.728   7.170  0.0846 -0.3002 -0.0920
 1286TIP3    H125417   4.315   3.721   7.172  0.1254 -1.2755 -0.8924
 1286TIP3    H225418   4.434   3.757   7.258 -0.8400 -1.6771  0.6525
 1287TIP3   OH225419   4.503   1.749   0.715 -0.7397 -0.2579  0.4181
 1287TIP3    H125420   4.505   1.686   0.643 -0.6709 -0.3086  0.4637
 1287TIP3    H225421   4.562   1.712   0.781 -0.3586  0.0670  0.2669
 1288TIP3   OH225422   1.729   3.736   7.494 -0.5067 -0.3896 -0.5548
 1288TIP3    H125423   1.755   3.755   7.583 -0.2458  1.8615 -1.0595
 1288TIP3    H225424   1.633   3.734   7.496 -0.4980 -0.4194 -0.2337
 1289TIP3   OH225425   2.354   2.176   1.237  0.1650 -1.0760  0.1009
 1289TIP3    H125426   2.339   2.163   1.331  2.1311 -1.5146  0.4093
 1289TIP3    H225427   2.322   2.265   1.220  0.9762 -0.4836  1.4983
 1290TIP3   OH225428   1.997   0.012   7.085  0.0525 -0.3869 -0.1097
 1290TIP3    H125429   1.936   0.027   7.157 -0.4090 -1.2293 -0.3161
 1290TIP3    H225430   2.025   0.100   7.059 -0.3633 -0.0386  0.5902
 1291TIP3   OH225431   3.764   0.355   6.576 -0.0632  0.1824  0.0106
 1291TIP3    H125432   3.854   0.380   6.599 -0.9126  1.8908  1.7977
 1291TIP3    H225433   3.764   0.351   6.481  1.2904  2.9083 -0.2013
 1292TIP3   OH225434   1.599   5.557   1.642 -0.0862  0.4802 -0.0437
 1292TIP3    H125435   1.527   5.592   1.589 -0.1437 -0.4302 -0.5844
 1292TIP3    H225436   1.624   5.476   1.598 -0.0207 -0.2155  1.2172
 1293TIP3   OH225437   0.474   0.373   5.878  0.4578  0.2416  0.2159
 1293TIP3    H125438   0.443   0.394   5.790 -0.0937  0.1886  0.3914
 1293TIP3    H225439   0.474   0.456   5.925  1.0408  0.3217  0.0856
 1294TIP3   OH225440   2.574   0.756   0.703  0.5873  0.0175 -0.5376
 1294TIP3    H125441   2.498   0.755   0.645  0.0580 -3.6425 -0.0361
 1294TIP3    H225442   2.538   0.744   0.790  1.6625 -1.0814 -0.2143
 1295TIP3   OH225443   2.345   6.393   7.420 -0.1041 -0.6083 -0.2239
 1295TIP3    H125444   2.333   6.480   7.381  3.6178 -0.4397 -1.4064
 1295TIP3    H225445   2.337   6.407   7.514  2.4585  1.6211 -0.1948
 1296TIP3   OH225446   1.798   0.238   7.631  0.2473  0.0663 -0.0083
 1296TIP3    H125447   1.858   0.179   7.676  0.4823  0.0088 -0.4010
 1296TIP3    H225448   1.853   0.309   7.600 -0.6370  4.1201  5.9983
 1297TIP3   OH225449   1.815   0.070   7.348 -0.4137 -0.1163  0.2497
 1297TIP3    H125450   1.899   0.053   7.392 -0.3136 -0.6512 -0.1388
 1297TIP3    H225451   1.780   0.148   7.392  0.4264  0.2946  0.2128
 1298TIP3   OH225452   4.206   1.652   0.658 -0.1702 -0.5578  0.4956
 1298TIP3    H125453   4.296   1.684   0.668  0.0703 -1.6022  2.0823
 1298TIP3    H225454   4.162   1.681   0.738 -0.7064 -1.6980  0.6378
 1299TIP3   OH225455   2.402   1.186   8.082 -0.0915 -0.2087 -0.3007
 1299TIP3    H125456   2.322   1.148   8.118  0.1824 -0.5742 -0.0692
 1299TIP3    H225457   2.379   1.213   7.994 -0.0390 -1.7908 -0.8191
 1300TIP3   OH225458   6.447   3.680   0.968 -0.3744 -0.0779  0.0404
 1300TIP3    H125459   6.448   3.664   0.874  1.4924 -2.6235  0.3984
 1300TIP3    H225460   6.510   3.751   0.981  0.5076 -0.7390 -0.5126
 1301TIP3   OH225461   0.173   2.814   0.319 -0.1297  0.4651 -0.0948
 1301TIP3    H125462   0.171   2.719   0.330  0.1539  0.6173  1.6549
 1301TIP3    H225463   0.121   2.831   0.241 -2.0073 -0.9993  0.7522
 1302TIP3   OH225464   6.706   3.892   0.982 -0.4960 -0.1569 -0.0004
 1302TIP3    H125465   6.699   3.848   1.067 -0.8593 -0.3111 -0.1087
 1302TIP3    H225466   6.779   3.953   0.993 -0.2520 -0.4942  0.2790
 1303TIP3   OH225467   6.885   3.924   7.074  0.5107  0.2995 -0.2610
 1303TIP3    H125468   6.789   3.923   7.077  0.4977  1.8858  1.7716
 1303TIP3    H225469   6.909   3.832   7.086 -0.7811  0.0924  1.2156
 1304TIP3   OH225470   4.636   4.492   7.261  0.5799  0.4647 -0.2635
 1304TIP3    H125471   4.592   4.491   7.346  1.1324  1.1284  0.0374
 1304TIP3    H225472   4.631   4.402   7.230  2.0464 -0.2127  1.3298
 1305TIP3   OH225473   5.940   3.341   7.170 -0.0034  0.1852 -0.4424
 1305TIP3    H125474   5.872   3.316   7.232  0.6605  0.7791  0.5601
 1305TIP3    H225475   5.902   3.324   7.084 -0.4351 -1.9652  0.1267
 1306TIP3   OH225476   3.586   2.520   2.006  0.2798 -0.7148  0.1401
 1306TIP3    H125477   3.573   2.579   2.080 -1.1967 -1.9678  0.9494
 1306TIP3    H225478   3.519   2.546   1.943  1.6513  0.4687 -0.8774
 1307TIP3   OH225479   0.392   2.737   1.811  0.3089  0.2883  0.0350
 1307TIP3    H125480   0.400   2.711   1.902  0.0707  1.3412  0.3784
 1307TIP3    H225481   0.468   2.794   1.795  0.0440  0.5755 -0.2409
 1308TIP3   OH225482   5.592   2.471   7.914 -1.1183 -0.0555 -0.3261
 1308TIP3    H125483   5.633   2.555   7.890  0.4998  0.0941  2.5192
 1308TIP3    H225484   5.498   2.488   7.909 -0.8495  2.1554  0.6554
 1309TIP3   OH225485   2.405   6.812   1.968 -0.4731 -0.1873 -0.1425
 1309TIP3    H125486   2.377   6.865   1.894  1.2968  0.5050 -0.3722
 1309TIP3    H225487   2.412   6.873   2.041  0.5256 -0.2866 -0.1362
 1310TIP3   OH225488   0.269   3.074   1.066 -0.5179  0.3383  0.5502
 1310TIP3    H125489   0.323   3.066   0.987  0.7682 -2.7825  1.5804
 1310TIP3    H225490   0.258   2.984   1.096 -3.4335  1.1810  2.3772
 1311TIP3   OH225491   2.274   2.262   2.042 -1.3024 -0.2214  0.0495
 1311TIP3    H125492   2.338   2.263   2.113 -1.0769 -0.9475 -0.1361
 1311TIP3    H225493   2.189   2.265   2.086 -1.1584  0.5307  0.3039
 1312TIP3   OH225494   6.962   1.685   1.470  0.1463  0.0666  0.5573
 1312TIP3    H125495   6.993   1.665   1.558 -0.7982  1.4209  1.2348
 1312TIP3    H225496   7.038   1.720   1.425  0.8007 -1.2256  0.6062
 1313TIP3   OH225497   1.786   5.871   6.818  0.8087 -0.3000  0.2873
 1313TIP3    H125498   1.757   5.825   6.740 -0.5596  0.1195  0.5300
 1313TIP3    H225499   1.848   5.811   6.859  0.0121 -1.3919 -0.0570
 1314TIP3   OH225500   3.532   2.926   7.385 -0.1830 -0.0492  0.4342
 1314TIP3    H125501   3.489   3.003   7.422 -0.2702  0.2693 -0.3250
 1314TIP3    H225502   3.463   2.860   7.380 -1.2239  1.1426 -2.8655
 1315TIP3   OH225503   1.198   6.454   7.035  0.1761  0.6564  0.3656
 1315TIP3    H125504   1.260   6.412   6.976  1.0325  0.9981  1.0079
 1315TIP3    H225505   1.252   6.496   7.101 -0.7647 -0.7030  2.0921
 1316TIP3   OH225506   6.622   1.532   8.193 -0.8446 -0.1323 -0.0446
 1316TIP3    H125507   6.708   1.521   8.234 -0.9562  1.7978  0.8128
 1316TIP3    H225508   6.563   1.552   8.265 -1.8770 -0.6526 -0.7193
 1317TIP3   OH225509   1.126   4.581   1.633  0.1882  0.1382  0.1021
 1317TIP3    H125510   1.052   4.554   1.688  0.1323  0.9517  0.4360
 1317TIP3    H225511   1.203   4.550   1.680  0.1069  0.1855  0.2678
 1318TIP3   OH225512   6.245   6.856   7.541 -0.3583 -0.9674  0.1868
 1318TIP3    H125513   6.168   6.846   7.485 -0.2051 -1.9398  0.1470
 1318TIP3    H225514   6.232   6.793   7.612  0.2575 -0.9249  0.3387
 1319TIP3   OH225515   5.757   2.801   0.474  0.0869  0.2818  0.2335
 1319TIP3    H125516   5.852   2.793   0.481  0.0439 -0.5979 -0.1122
 1319TIP3    H225517   5.729   2.724   0.426 -0.8353  0.4089  0.5309
 1320TIP3   OH225518   4.545   3.599   0.589 -0.0099  0.0305 -0.1218
 1320TIP3    H125519   4.627   3.625   0.630 -1.2199  2.6424  0.8907
 1320TIP3    H225520   4.518   3.521   0.637  1.7794 -0.7977 -0.3978
 1321TIP3   OH225521   1.248   1.724   6.904 -0.1885  0.3550  0.0504
 1321TIP3    H125522   1.290   1.717   6.990 -1.4303 -0.9257  0.6030
 1321TIP3    H225523   1.279   1.646   6.857 -0.3247  0.5049 -0.2865
 1322TIP3   OH225524   4.434   6.518   0.100 -0.1430  0.6607 -0.3628
 1322TIP3    H125525   4.361   6.460   0.124 -0.7880  0.3410 -2.8130
 1322TIP3    H225526   4.507   6.488   0.154 -1.2243 -0.5706  0.4862
 1323TIP3   OH225527   0.679   3.355   1.182  0.0559  0.5291 -0.4851
 1323TIP3    H125528   0.689   3.307   1.100  0.6939 -2.2561  1.0604
 1323TIP3    H225529   0.622   3.299   1.235  0.1453  1.9292  1.1729
 1324TIP3   OH225530   3.403   1.471   1.149 -0.0023  0.0435  0.4568
 1324TIP3    H125531   3.416   1.482   1.054 -0.1439  2.0399  0.6144
 1324TIP3    H225532   3.308   1.482   1.161 -0.3743 -2.6731  0.6117
 1325TIP3   OH225533   6.632   6.091   0.214 -0.3160  0.3436 -0.2349
 1325TIP3    H125534   6.546   6.121   0.184 -0.2363  2.2894  1.2615
 1325TIP3    H225535   6.680   6.171   0.232  1.6199 -0.7226 -0.4376
 1326TIP3   OH225536   3.487   0.590   8.276  0.3056  0.9726 -0.3172
 1326TIP3    H125537   3.419   0.634   8.328  0.7743  2.2220 -0.7415
 1326TIP3    H225538   3.559   0.653   8.272  0.4050  0.7888 -2.2192
 1327TIP3   OH225539   5.763   6.221   8.348  0.6864 -0.4700  0.1347
 1327TIP3    H125540   5.824   6.282   8.390 -0.3783  0.1313  0.8662
 1327TIP3    H225541   5.768   6.241   8.255  2.1002 -0.9027  0.0982
 1328TIP3   OH225542   2.266   0.023   0.255 -0.1122  0.0809  0.4914
 1328TIP3    H125543   2.317   0.029   0.336  1.0481  0.9495 -0.2815
 1328TIP3    H225544   2.249   0.113   0.230 -0.4672 -0.1778 -0.2316
 1329TIP3   OH225545   6.693   4.929   7.511  0.0846  0.1690  0.6864
 1329TIP3    H125546   6.651   4.843   7.507  0.8612 -0.1879 -0.0976
 1329TIP3    H225547   6.780   4.912   7.548 -0.1084  0.7735  1.4607
 1330TIP3   OH225548   6.241   2.260   0.503  0.2920 -0.4327  0.1557
 1330TIP3    H125549   6.267   2.269   0.411  1.3041  0.4062  0.5001
 1330TIP3    H225550   6.324   2.248   0.550 -0.2044 -0.7068  0.9852
 1331TIP3   OH225551   1.503   2.618   1.449 -0.0353  0.1394  0.2854
 1331TIP3    H125552   1.544   2.540   1.486  1.3944  0.9155  0.3808
 1331TIP3    H225553   1.447   2.651   1.520  1.5607  0.7950  1.2955
 1332TIP3   OH225554   0.201   1.575   7.953  0.3861  0.1660  0.3003
 1332TIP3    H125555   0.296   1.576   7.965  0.5064  2.2154 -0.3850
 1332TIP3    H225556   0.187   1.629   7.875 -1.4268  1.3386  1.3586
 1333TIP3   OH225557   3.818   6.682   7.547  0.1121  0.0277  0.4235
 1333TIP3    H125558   3.751   6.657   7.484 -0.3352  0.7627  0.5968
 1333TIP3    H225559   3.849   6.599   7.584 -0.3921 -0.3373  0.0303
 1334TIP3   OH225560   3.273   3.376   0.330 -0.1332  0.1443  1.0790
 1334TIP3    H125561   3.192   3.401   0.285 -0.2900 -2.2378 -0.0661
 1334TIP3    H225562   3.278   3.281   0.321  2.6618  0.1850  1.3789
 1335TIP3   OH225563   3.366   6.491   6.901 -0.3325  0.4198  0.4459
 1335TIP3    H125564   3.301   6.432   6.862 -1.1828  1.2860  0.5109
 1335TIP3    H225565   3.349   6.575   6.859 -1.2369  1.3786  2.5910
 1336TIP3   OH225566   5.550   3.161   1.502 -0.1688  0.0769  0.2416
 1336TIP3    H125567   5.637   3.132   1.530  0.0674 -0.3731 -0.9014
 1336TIP3    H225568   5.504   3.181   1.584  0.4561 -1.2593  0.9579
 1337TIP3   OH225569   1.525   0.498   6.223 -0.2514  0.1368 -0.1468
 1337TIP3    H125570   1.535   0.485   6.129 -0.8193  0.2857 -0.2314
 1337TIP3    H225571   1.528   0.592   6.235  0.3888  0.0964  0.0579
 1338TIP3   OH225572   5.846   5.462   7.941 -0.0145  0.3828 -0.9857
 1338TIP3    H125573   5.768   5.407   7.950  0.0826  0.1589 -1.4338
 1338TIP3    H225574   5.841   5.524   8.013  0.5138 -0.9965  0.2969
 1339TIP3   OH225575   2.335   3.012   7.941 -0.2247  0.2806  0.1476
 1339TIP3    H125576   2.364   2.935   7.891 -0.7881  0.5355 -0.5869
 1339TIP3    H225577   2.345   3.085   7.880 -3.7764  0.2130 -0.7533
 1340TIP3   OH225578   3.495   4.777   8.260 -0.0697 -0.7121 -0.0412
 1340TIP3    H125579   3.464   4.714   8.195 -0.7566 -0.9591  0.5131
 1340TIP3    H225580   3.504   4.725   8.340  1.1458 -0.5028 -0.0098
 1341TIP3   OH225581   5.391   6.339   7.047 -0.2573  0.2601  0.0888
 1341TIP3    H125582   5.411   6.400   7.118 -0.1149  1.4861 -0.9712
 1341TIP3    H225583   5.387   6.393   6.969 -0.3552 -1.0698 -0.8653
 1342TIP3   OH225584   2.848   5.584   1.152  0.1844  0.4032  0.1247
 1342TIP3    H125585   2.852   5.492   1.128  2.0293  0.1486  1.2112
 1342TIP3    H225586   2.940   5.611   1.158 -0.2938  2.6692 -1.3918
 1343TIP3   OH225587   1.817   1.798   0.715  0.3206  0.9753  0.1468
 1343TIP3    H125588   1.853   1.854   0.783  1.0626  1.4881 -0.6423
 1343TIP3    H225589   1.870   1.719   0.717  1.2954  1.5848 -0.7786
 1344TIP3   OH225590   1.213   4.130   7.062  0.1546 -0.9288 -0.7121
 1344TIP3    H125591   1.157   4.052   7.060 -0.3312 -0.5774 -2.5795
 1344TIP3    H225592   1.152   4.203   7.055  0.7709 -0.5482 -3.2921
 1345TIP3   OH225593   2.110   1.541   7.264  0.0958  0.1287  0.2261
 1345TIP3    H125594   2.020   1.551   7.233 -0.0445 -0.1589  0.5419
 1345TIP3    H225595   2.150   1.480   7.201  0.3759  1.0506 -0.5217
 1346TIP3   OH225596   6.406   5.052   6.513  0.1920  0.3680  0.6212
 1346TIP3    H125597   6.376   4.992   6.446 -0.6090  2.6223 -1.1774
 1346TIP3    H225598   6.499   5.067   6.493 -0.2448  1.6587 -0.5397
 1347TIP3   OH225599   4.645   3.775   6.201  0.0374  0.0150 -0.2311
 1347TIP3    H125600   4.618   3.693   6.159 -3.1227  0.5337  0.5167
 1347TIP3    H225601   4.576   3.838   6.178  1.5659  2.0738  0.4716
 1348TIP3   OH225602   3.992   3.678   1.060 -0.0587 -0.2392  0.3271
 1348TIP3    H125603   3.945   3.736   1.120  1.3386  1.1491  0.1304
 1348TIP3    H225604   3.970   3.590   1.090  0.3807  0.4056  2.7243
 1349TIP3   OH225605   4.317   0.154   6.873  0.1087  0.0285  0.1997
 1349TIP3    H125606   4.366   0.116   6.946  0.7509  1.3219  0.4692
 1349TIP3    H225607   4.383   0.171   6.806 -0.7268 -2.9689 -1.5554
 1350TIP3   OH225608   3.529   1.988   6.455 -0.2377 -0.6776 -0.1390
 1350TIP3    H125609   3.521   2.002   6.361 -0.7851 -0.4514 -0.0621
 1350TIP3    H225610   3.489   2.065   6.494 -1.6293 -1.5845  0.2819
 1351TIP3   OH225611   5.616   0.877   6.861  0.8475  0.0869  0.1016
 1351TIP3    H125612   5.669   0.954   6.881  0.6101 -0.4785  3.4441
 1351TIP3    H225613   5.528   0.912   6.845  0.3989  0.5686  3.0054
 1352TIP3   OH225614   4.045   4.170   7.582  0.1962 -0.1816  0.7461
 1352TIP3    H125615   3.991   4.163   7.504  0.1055  0.8075  0.7104
 1352TIP3    H225616   4.120   4.113   7.564 -0.5160 -1.0926  0.5479
 1353TIP3   OH225617   3.847   2.179   2.758  0.1420 -0.9367  0.2598
 1353TIP3    H125618   3.872   2.124   2.684 -0.0311 -0.2299 -0.3410
 1353TIP3    H225619   3.912   2.160   2.826  0.3723 -1.5036 -0.1151
 1354TIP3   OH225620   0.443   4.743   6.122  0.1871  0.2028 -0.0927
 1354TIP3    H125621   0.531   4.734   6.085  0.5116  1.5044  0.3117
 1354TIP3    H225622   0.407   4.821   6.079 -1.2928 -1.0476 -1.2247
 1355TIP3   OH225623   1.152   2.917   1.314 -0.3263 -0.3887  0.0384
 1355TIP3    H125624   1.104   2.900   1.233  0.2852  0.5511 -0.5505
 1355TIP3    H225625   1.173   3.011   1.310  0.5807 -0.5357  0.8030
 1356TIP3   OH225626   0.288   4.362   0.948 -0.2776 -0.1790 -0.3760
 1356TIP3    H125627   0.196   4.348   0.966  0.0713 -1.0457  0.8436
 1356TIP3    H225628   0.313   4.436   1.004 -0.0214 -0.5489  0.0045
 1357TIP3   OH225629   3.878   1.014   6.767 -0.0652  0.0483 -0.2946
 1357TIP3    H125630   3.887   1.034   6.860 -0.8185  1.9128 -0.5730
 1357TIP3    H225631   3.804   1.068   6.738 -0.2436 -0.9563 -1.8552
 1358TIP3   OH225632   4.417   2.625   1.319  0.3065  0.0473  0.3905
 1358TIP3    H125633   4.387   2.535   1.305  0.8334 -0.2889  1.2900
 1358TIP3    H225634   4.338   2.673   1.344  0.0103 -0.1420 -0.1519
 1359TIP3   OH225635   4.172   0.140   1.062 -0.4005 -0.3651  0.3803
 1359TIP3    H125636   4.254   0.159   1.015 -1.0287 -2.0171 -1.5543
 1359TIP3    H225637   4.105   0.188   1.013 -0.7246  0.2722  1.4240
 1360TIP3   OH225638   1.782   5.203   6.361 -0.4078 -0.0015  0.0104
 1360TIP3    H125639   1.877   5.208   6.350 -0.2719  2.1805  1.6837
 1360TIP3    H225640   1.764   5.109   6.371  1.7220 -0.3689  0.8823
 1361TIP3   OH225641   6.240   5.673   7.596  0.0386 -0.2873  0.0182
 1361TIP3    H125642   6.219   5.745   7.655  0.0031 -0.2249 -0.0702
 1361TIP3    H225643   6.222   5.707   7.509 -1.1272 -0.7994  0.0455
 1362TIP3   OH225644   3.904   4.750   0.940  0.1593 -0.1324  0.2760
 1362TIP3    H125645   3.950   4.667   0.933 -0.8885 -0.8893  1.9587
 1362TIP3    H225646   3.974   4.815   0.949  0.9566 -0.9458  0.0853
 1363TIP3   OH225647   6.736   3.098   1.517 -0.2067  0.3303 -0.6311
 1363TIP3    H125648   6.770   3.160   1.453 -1.9652  2.1282  0.0552
 1363TIP3    H225649   6.812   3.071   1.568  1.1102 -0.5569 -2.9208
 1364TIP3   OH225650   6.432   5.872   2.166  0.4649 -0.1738  0.2969
 1364TIP3    H125651   6.439   5.777   2.162  0.7139 -0.1160 -1.2127
 1364TIP3    H225652   6.520   5.904   2.148  0.2880  0.3534  0.3388
 1365TIP3   OH225653   4.790   3.960   0.851  1.0091  0.4183 -0.2271
 1365TIP3    H125654   4.792   3.924   0.940  0.7113  1.3854  0.1897
 1365TIP3    H225655   4.882   3.972   0.828  1.1441 -1.1947 -0.6416
 1366TIP3   OH225656   6.688   5.677   0.012 -0.6797 -0.2080  0.2619
 1366TIP3    H125657   6.643   5.612   0.065  0.2708 -1.8385 -0.8428
 1366TIP3    H225658   6.623   5.746  -0.001 -1.1877 -0.0873  2.8442
 1367TIP3   OH225659   6.237   5.424   0.693 -0.0948  0.7016  0.1439
 1367TIP3    H125660   6.166   5.463   0.744  0.4959  3.1837 -0.8171
 1367TIP3    H225661   6.214   5.442   0.602  0.5332 -0.7296 -0.3335
 1368TIP3   OH225662   6.214   2.713   1.041  0.1216  0.4936 -0.1667
 1368TIP3    H125663   6.227   2.666   1.123 -0.9145 -0.3218 -0.4493
 1368TIP3    H225664   6.302   2.743   1.017  1.0317 -2.0975 -0.4432
 1369TIP3   OH225665   5.939   2.164   1.634  0.0240 -0.2926 -0.0333
 1369TIP3    H125666   5.877   2.186   1.703 -0.1119 -3.3943  0.9965
 1369TIP3    H225667   6.023   2.157   1.679 -0.1067 -2.5729 -0.0241
 1370TIP3   OH225668   0.729   4.937   1.354 -0.0227  0.5133  0.3092
 1370TIP3    H125669   0.685   4.852   1.361 -0.3817  0.7628  1.2589
 1370TIP3    H225670   0.658   5.002   1.363  0.3171  0.9119  0.1365
 1371TIP3   OH225671   5.999   5.859   2.056 -0.3900  0.8440 -0.0817
 1371TIP3    H125672   5.931   5.796   2.079  1.7484 -1.0139  1.5643
 1371TIP3    H225673   5.972   5.892   1.970 -2.1708 -1.4844 -0.5260
 1372TIP3   OH225674   6.948   4.346   0.333  0.1889  0.2910 -0.1245
 1372TIP3    H125675   6.896   4.269   0.355  0.2053  0.6248  1.1575
 1372TIP3    H225676   6.883   4.413   0.309  0.1573  0.0148 -0.8428
 1373TIP3   OH225677   3.383   5.452   1.185 -0.1125 -0.5238  0.3565
 1373TIP3    H125678   3.389   5.441   1.090 -1.8185 -0.3829  0.2059
 1373TIP3    H225679   3.393   5.363   1.220 -1.4113 -0.8645 -0.0884
 1374TIP3   OH225680   2.214   0.448   1.668 -0.2261 -0.1214 -0.2624
 1374TIP3    H125681   2.280   0.508   1.702  0.3259  0.0330 -1.5661
 1374TIP3    H225682   2.199   0.387   1.741 -0.4272  1.2550  0.9000
 1375TIP3   OH225683   4.942   2.164   7.980 -0.1439  0.4178 -0.1370
 1375TIP3    H125684   4.888   2.086   7.968  1.1694 -0.4962 -0.4079
 1375TIP3    H225685   4.883   2.237   7.966 -1.3936 -0.5267  0.0001
 1376TIP3   OH225686   1.910   4.270   7.621  0.4579 -0.0088  0.0251
 1376TIP3    H125687   1.847   4.334   7.657 -0.8196 -1.9108  1.3608
 1376TIP3    H225688   1.984   4.274   7.681 -0.5688 -1.2928  1.4721
 1377TIP3   OH225689   1.159   6.236   0.978  0.2571 -0.1440 -0.1680
 1377TIP3    H125690   1.100   6.194   1.041 -1.4228  2.2765  0.0029
 1377TIP3    H225691   1.185   6.318   1.021  1.3432  0.2345 -1.4936
 1378TIP3   OH225692   6.043   6.008   0.607  0.7044  0.0162  0.1103
 1378TIP3    H125693   5.968   6.068   0.611  1.2288  0.6252  1.2170
 1378TIP3    H225694   6.074   6.016   0.517  1.0294  1.7797  0.3294
 1379TIP3   OH225695   5.972   3.683   1.170  0.0515 -0.4456 -0.1439
 1379TIP3    H125696   5.999   3.601   1.129 -1.9310 -1.2891  0.0827
 1379TIP3    H225697   5.876   3.678   1.172 -0.0436  0.3508  2.9335
 1380TIP3   OH225698   6.862   0.365   6.936 -0.5431 -0.1369  0.6104
 1380TIP3    H125699   6.807   0.312   6.879 -0.1690  0.4472 -0.3116
 1380TIP3    H225700   6.947   0.366   6.893 -0.7918  1.9958  0.0909
 1381TIP3   OH225701   3.229   2.482   7.016 -0.2267 -0.8590 -0.0675
 1381TIP3    H125702   3.244   2.551   7.081 -0.7407 -0.1992 -0.6359
 1381TIP3    H225703   3.196   2.408   7.067 -0.5568 -0.3741  0.4362
 1382TIP3   OH225704   5.446   0.162   6.911 -0.0841  0.6683 -0.5650
 1382TIP3    H125705   5.509   0.212   6.859 -0.4932  1.3255 -0.4438
 1382TIP3    H225706   5.392   0.118   6.846  0.8008 -0.2997 -0.6679
 1383TIP3   OH225707   0.024   2.856   0.593  0.1928  0.3229 -0.5327
 1383TIP3    H125708  -0.043   2.790   0.606 -0.0126  0.5136 -0.6159
 1383TIP3    H225709   0.105   2.807   0.582 -0.0991  0.0535 -1.5226
 1384TIP3   OH225710   2.475   2.933   6.876  0.1422  0.1953  0.2665
 1384TIP3    H125711   2.438   2.845   6.882  1.3316 -0.4492 -1.0539
 1384TIP3    H225712   2.557   2.928   6.924  0.6774  0.2811 -0.6105
 1385TIP3   OH225713   6.773   2.328   0.372 -0.3755 -0.7174 -0.1919
 1385TIP3    H125714   6.689   2.367   0.398  0.3938 -0.0565  1.4384
 1385TIP3    H225715   6.773   2.333   0.277 -1.2291  1.3898 -0.1319
 1386TIP3   OH225716   3.354   1.749   6.797 -0.2103 -0.3336  0.0802
 1386TIP3    H125717   3.303   1.712   6.725 -0.8590 -0.3109  0.5240
 1386TIP3    H225718   3.296   1.813   6.838  0.3611  0.0757  0.2693
 1387TIP3   OH225719   6.891   0.201   0.911 -0.8104  0.2802  0.5842
 1387TIP3    H125720   6.822   0.214   0.976  0.4151  1.6673  1.6814
 1387TIP3    H225721   6.972   0.215   0.960  0.1737  0.6193 -1.0807
 1388TIP3   OH225722   6.216   4.707   0.608  0.6982  0.6001 -0.6747
 1388TIP3    H125723   6.273   4.783   0.608  0.0878  1.0941 -2.1544
 1388TIP3    H225724   6.147   4.728   0.544  0.5597 -1.2107 -1.1857
 1389TIP3   OH225725   0.378   0.820   7.232 -0.3551 -0.0398 -0.5254
 1389TIP3    H125726   0.288   0.802   7.261  0.1267  1.2392  2.1324
 1389TIP3    H225727   0.428   0.744   7.262 -0.5607 -1.0056 -2.4767
 1390TIP3   OH225728   2.341   4.790   1.177 -0.1121 -0.2566  0.2612
 1390TIP3    H125729   2.324   4.746   1.260 -0.4892  0.3185  0.4954
 1390TIP3    H225730   2.269   4.764   1.120  0.0993 -0.5817  0.1436
 1391TIP3   OH225731   4.953   5.282   7.232  0.6119 -0.4552 -0.7486
 1391TIP3    H125732   4.943   5.237   7.148  1.2582  0.3965 -1.2953
 1391TIP3    H225733   4.980   5.371   7.208 -0.9002  0.3159  0.2944
 1392TIP3   OH225734   5.536   4.070   0.262 -0.2130 -0.2782 -0.3663
 1392TIP3    H125735   5.453   4.060   0.216 -0.0428 -1.0901 -0.5086
 1392TIP3    H225736   5.587   3.994   0.237 -0.0038 -0.6002  0.9379
 1393TIP3   OH225737   5.643   1.370   7.268 -0.0450 -0.5281  0.2046
 1393TIP3    H125738   5.715   1.337   7.322  0.6853 -1.6280 -1.3737
 1393TIP3    H225739   5.566   1.365   7.325  0.8379 -0.8880  1.3981
 1394TIP3   OH225740   2.351   4.097   7.330  0.3476  0.4529 -0.1789
 1394TIP3    H125741   2.380   4.126   7.243  0.4959 -0.3974 -0.4303
 1394TIP3    H225742   2.397   4.154   7.391  1.5440 -0.0099 -0.6133
 1395TIP3   OH225743   6.860   6.227   0.574 -0.0090 -0.1749  0.4790
 1395TIP3    H125744   6.788   6.282   0.607 -1.0642 -0.2524 -1.5511
 1395TIP3    H225745   6.921   6.288   0.534  0.2964 -0.2532  0.8158
 1396TIP3   OH225746   2.147   2.749   7.053  0.3389 -0.3230  0.5355
 1396TIP3    H125747   2.070   2.718   7.100 -0.4958 -1.2814 -1.3226
 1396TIP3    H225748   2.161   2.838   7.084  0.2302 -1.0883  2.9761
 1397TIP3   OH225749   4.364   0.434   1.908  0.1677  0.4526  0.2871
 1397TIP3    H125750   4.315   0.361   1.947  0.1900  0.4449  0.3004
 1397TIP3    H225751   4.314   0.458   1.830  0.8088 -0.3679 -0.3875
 1398TIP3   OH225752   3.056   6.234   1.336 -0.2266 -0.2800  0.1913
 1398TIP3    H125753   2.962   6.218   1.344 -0.3963  0.6885  0.2893
 1398TIP3    H225754   3.096   6.174   1.400 -0.7271 -1.1050 -0.2547
 1399TIP3   OH225755   1.905   6.149   1.681  0.5511  0.2684 -0.9752
 1399TIP3    H125756   1.954   6.095   1.743 -0.4497  0.4244 -0.0170
 1399TIP3    H225757   1.823   6.169   1.726 -0.2969  0.2198 -2.4526
 1400TIP3   OH225758   1.914   5.759   0.365 -0.0210  0.0718  0.3523
 1400TIP3    H125759   1.969   5.733   0.290 -0.0627 -1.0010  0.6817
 1400TIP3    H225760   1.839   5.701   0.361 -0.6654  0.8743  0.4892
 1401TIP3   OH225761   3.671   3.912   8.279 -0.2549 -0.1834  0.2115
 1401TIP3    H125762   3.729   3.898   8.354 -0.0173  1.2461  0.3393
 1401TIP3    H225763   3.623   3.992   8.301 -0.2550  0.1974 -1.1090
 1402TIP3   OH225764   6.671   0.848   0.819 -0.0974  0.7340  0.0712
 1402TIP3    H125765   6.603   0.784   0.838  0.6473 -0.5020 -1.2556
 1402TIP3    H225766   6.633   0.904   0.752  0.2048 -0.0294 -0.7567
 1403TIP3   OH225767   5.325   4.054   1.103 -0.0839  0.3321  0.6789
 1403TIP3    H125768   5.327   3.988   1.172  0.6078  0.4490  0.7813
 1403TIP3    H225769   5.300   4.135   1.148 -0.1961  0.2903  0.6907
 1404TIP3   OH225770   1.209   6.153   7.681 -0.4136 -0.3643  0.0267
 1404TIP3    H125771   1.279   6.216   7.663 -0.9753  0.3921  0.4415
 1404TIP3    H225772   1.243   6.070   7.648  0.1506  0.2419 -0.9868
 1405TIP3   OH225773   3.273   5.988   6.729  0.2630 -0.5577  0.4905
 1405TIP3    H125774   3.192   6.035   6.708  0.6463 -0.5128 -0.9782
 1405TIP3    H225775   3.312   6.038   6.801  0.2453  0.8878 -0.4873
 1406TIP3   OH225776   0.275   6.078   0.263 -0.3149 -0.8176 -0.0694
 1406TIP3    H125777   0.332   6.060   0.188 -1.5096 -1.9914 -0.7498
 1406TIP3    H225778   0.279   6.173   0.273  0.4900 -0.7120 -1.1186
 1407TIP3   OH225779   1.115   4.832   6.455 -0.1617 -0.0264 -0.0050
 1407TIP3    H125780   1.178   4.762   6.439 -1.4553 -0.9438 -1.3142
 1407TIP3    H225781   1.120   4.847   6.550  1.2109 -0.8165  0.0772
 1408TIP3   OH225782   5.703   6.459   0.918 -0.0959  0.2005  0.7035
 1408TIP3    H125783   5.693   6.379   0.970  0.2734 -0.5068 -0.2793
 1408TIP3    H225784   5.626   6.461   0.861 -0.5825  1.0576  1.3613
 1409TIP3   OH225785   0.383   0.981   0.045  0.1270  0.2100 -0.0084
 1409TIP3    H125786   0.385   0.936   0.129  0.6972  2.5652  1.3214
 1409TIP3    H225787   0.291   1.004   0.032  0.3610  2.2816  1.4454
 1410TIP3   OH225788   4.219   3.540   6.334 -0.4661  0.1252 -0.5976
 1410TIP3    H125789   4.252   3.620   6.374 -0.8281 -0.7386  1.5806
 1410TIP3    H225790   4.125   3.541   6.350 -0.8171  0.2180 -2.4122
 1411TIP3   OH225791   2.227   1.511   0.851 -0.4226  0.1291 -0.2307
 1411TIP3    H125792   2.255   1.433   0.803  1.5068  0.7287 -0.1646
 1411TIP3    H225793   2.246   1.491   0.943  0.7249  0.8920 -0.2800
 1412TIP3   OH225794   2.606   3.397   7.813  0.5447  0.0932  0.0390
 1412TIP3    H125795   2.571   3.474   7.767 -0.6591 -0.9702 -0.9223
 1412TIP3    H225796   2.529   3.356   7.852  1.0123 -1.1887 -0.3401
 1413TIP3   OH225797   3.236   4.187   7.030  0.5286  0.6510 -0.2021
 1413TIP3    H125798   3.146   4.205   7.058  0.3410 -0.4763 -0.0482
 1413TIP3    H225799   3.289   4.206   7.108  0.0819 -1.7173  0.7585
 1414TIP3   OH225800   3.894   5.085   7.989  0.2523  0.3166  0.5898
 1414TIP3    H125801   3.859   5.017   8.046 -0.1269 -0.7372 -0.8245
 1414TIP3    H225802   3.816   5.126   7.951  0.4176 -1.2800 -1.7044
 1415TIP3   OH225803   5.381   0.588   6.614  0.4312 -0.0694 -0.4593
 1415TIP3    H125804   5.408   0.523   6.548 -0.0979 -0.3778 -0.3830
 1415TIP3    H225805   5.463   0.621   6.651  0.7057 -1.3130  0.0953
 1416TIP3   OH225806   0.973   5.966   1.536  0.7015  0.0046  0.0737
 1416TIP3    H125807   1.021   5.923   1.465  2.3954 -0.4690  1.4443
 1416TIP3    H225808   1.005   6.057   1.534 -0.0071  0.2564 -0.3763
 1417TIP3   OH225809   4.302   2.934   1.871 -0.5040 -0.2648  0.1493
 1417TIP3    H125810   4.223   2.881   1.854 -1.6287  1.0307  1.1301
 1417TIP3    H225811   4.358   2.918   1.794 -2.4369  0.0888 -1.4301
 1418TIP3   OH225812   0.910   2.651   0.248  0.3570  0.1358  0.2149
 1418TIP3    H125813   0.881   2.740   0.225 -0.6457  0.2762  1.8609
 1418TIP3    H225814   0.835   2.613   0.293  0.6054 -1.7420 -0.8578
 1419TIP3   OH225815   2.958   4.147   1.523 -0.8740 -0.1851 -0.0731
 1419TIP3    H125816   3.009   4.080   1.477 -0.5283  0.2751 -0.3708
 1419TIP3    H225817   2.964   4.123   1.615 -0.1661 -0.1746 -0.1122
 1420TIP3   OH225818   3.674   6.214   0.326  0.8077 -0.2188  0.4711
 1420TIP3    H125819   3.663   6.129   0.282 -2.2124 -0.3171  1.1881
 1420TIP3    H225820   3.652   6.196   0.418 -0.4490  1.3776  0.5314
 1421TIP3   OH225821   6.922   0.228   6.622 -0.0534 -0.1308  0.5525
 1421TIP3    H125822   6.827   0.242   6.618  0.1871  2.2940  1.4994
 1421TIP3    H225823   6.934   0.159   6.686 -1.2044 -1.4406 -0.5651
 1422TIP3   OH225824   2.880   4.658   1.766 -0.7868  0.0074 -0.3995
 1422TIP3    H125825   2.922   4.729   1.816  2.2418 -2.7763  1.3775
 1422TIP3    H225826   2.946   4.632   1.702 -2.2834 -0.5331 -1.7685
 1423TIP3   OH225827   3.984   4.888   7.449  0.1497  0.2865 -0.0668
 1423TIP3    H125828   4.000   4.982   7.453 -0.9544  0.5264 -0.9619
 1423TIP3    H225829   3.937   4.868   7.530  0.4804  0.4737  0.1756
 1424TIP3   OH225830   5.342   1.377   6.464 -0.7936 -0.1987 -0.9095
 1424TIP3    H125831   5.343   1.434   6.386  0.4879 -1.0993 -1.5801
 1424TIP3    H225832   5.341   1.289   6.428 -0.1263 -0.6296  0.1072
 1425TIP3   OH225833   4.575   4.139   1.632  0.3558  0.1066  0.6705
 1425TIP3    H125834   4.610   4.210   1.579  0.6507 -0.5524 -0.0343
 1425TIP3    H225835   4.573   4.174   1.721  0.3386  1.0475  0.3077
 1426TIP3   OH225836   6.458   1.901   8.279 -0.2827  0.0644 -0.5631
 1426TIP3    H125837   6.383   1.897   8.338  0.5037 -2.2820  0.3700
 1426TIP3    H225838   6.530   1.935   8.333  0.2914 -1.5185 -0.2972
 1427TIP3   OH225839   2.022   1.956   8.340 -0.5160 -0.0831 -0.6966
 1427TIP3    H125840   2.071   1.895   8.285 -0.6010 -0.9954  0.2331
 1427TIP3    H225841   2.060   2.042   8.318  2.1935 -0.8129  0.6665
 1428TIP3   OH225842   6.780   2.047   6.776  0.1987 -0.0863 -0.5626
 1428TIP3    H125843   6.810   1.959   6.800  1.8170  0.3276 -0.9367
 1428TIP3    H225844   6.857   2.088   6.737 -0.6329  1.3892 -0.7053
 1429TIP3   OH225845   3.191   0.748   8.347 -0.1694 -0.1671 -0.4634
 1429TIP3    H125846   3.240   0.827   8.322  1.6670 -1.4762 -1.1867
 1429TIP3    H225847   3.157   0.714   8.265 -0.8364 -0.2248 -0.1669
 1430TIP3   OH225848   0.407   2.097   1.462 -0.5301 -0.0328  0.1013
 1430TIP3    H125849   0.387   2.013   1.503  1.2521 -0.0701  0.9605
 1430TIP3    H225850   0.374   2.162   1.524 -1.7126 -0.0681 -0.4630
 1431TIP3   OH225851   1.733   5.799   8.125 -0.1857  0.2822  0.4697
 1431TIP3    H125852   1.792   5.750   8.066 -0.5838 -1.9601  1.8092
 1431TIP3    H225853   1.645   5.782   8.090 -0.2945  0.5753  0.5991
 1432TIP3   OH225854   2.151   5.055   1.585  0.1388  0.1460  0.0257
 1432TIP3    H125855   2.235   5.071   1.542  0.5812 -2.3203 -0.1877
 1432TIP3    H225856   2.125   5.140   1.620  2.5541  1.0558 -0.2035
 1433TIP3   OH225857   2.620   4.871   1.844 -0.0359  0.4024  0.1107
 1433TIP3    H125858   2.540   4.862   1.897 -0.0863  2.2569  0.4061
 1433TIP3    H225859   2.651   4.959   1.863  1.7307 -0.0505 -0.5298
 1434TIP3   OH225860   1.937   1.560   0.797 -0.1670 -0.2349  0.6289
 1434TIP3    H125861   1.877   1.560   0.871  0.1170  0.0432  0.8652
 1434TIP3    H225862   2.020   1.528   0.834  0.2032  0.6856  0.6341
 1435TIP3   OH225863   3.786   5.422   7.787  0.3387  0.2024 -0.0610
 1435TIP3    H125864   3.746   5.354   7.841  0.5360  0.2669  0.1682
 1435TIP3    H225865   3.716   5.450   7.728 -0.0650  0.5586  0.5720
 1436TIP3   OH225866   6.071   2.654   7.599  0.5116 -0.8721 -0.4927
 1436TIP3    H125867   6.009   2.727   7.599  0.1842 -1.1424 -1.1773
 1436TIP3    H225868   6.017   2.576   7.610  0.8019 -1.0621 -0.4047
 1437TIP3   OH225869   4.678   3.953   1.435  0.1983  0.1324 -0.2881
 1437TIP3    H125870   4.700   3.887   1.501  0.5464  1.1732  0.6610
 1437TIP3    H225871   4.617   4.012   1.479  0.8073  1.1184 -0.7349
 1438TIP3   OH225872   2.399   5.973   1.641  0.2596 -0.1251 -0.1591
 1438TIP3    H125873   2.315   6.005   1.608  0.7678  0.4308 -0.9254
 1438TIP3    H225874   2.445   6.052   1.670  0.1167 -0.5215  1.2466
 1439TIP3   OH225875   1.561   6.576   7.050 -0.6107 -0.4702 -0.0996
 1439TIP3    H125876   1.479   6.577   7.100 -1.3557 -1.2825 -1.2513
 1439TIP3    H225877   1.580   6.483   7.038  0.7783 -0.2986  0.5802
 1440TIP3   OH225878   5.605   1.472   5.948  0.3268 -0.2004 -0.0145
 1440TIP3    H125879   5.626   1.474   6.042  1.2057  1.1924 -0.2035
 1440TIP3    H225880   5.553   1.551   5.935 -0.1589 -0.6180 -0.6402
 1441TIP3   OH225881   5.318   6.826   7.384  0.3984  0.2235  0.1390
 1441TIP3    H125882   5.398   6.874   7.361  0.8490 -1.2644 -1.6740
 1441TIP3    H225883   5.321   6.817   7.479  1.3487  1.9207  0.3035
 1442TIP3   OH225884   4.465   0.994   5.835 -0.0519 -0.1101  0.0902
 1442TIP3    H125885   4.547   1.035   5.808  1.8186 -1.6882  2.8550
 1442TIP3    H225886   4.467   0.997   5.931 -2.6899 -1.2549  0.2592
 1443TIP3   OH225887   4.588   1.151   0.720 -0.3670 -0.0028 -0.5100
 1443TIP3    H125888   4.646   1.215   0.679 -0.7351 -0.3258 -1.5584
 1443TIP3    H225889   4.621   1.066   0.690  0.2518 -0.3461  1.0407
 1444TIP3   OH225890   0.723   3.526   8.008 -0.0451  0.0184 -0.3044
 1444TIP3    H125891   0.734   3.607   8.058  1.1761 -0.0746 -0.4029
 1444TIP3    H225892   0.777   3.538   7.930  0.3951 -1.0014 -0.1768
 1445TIP3   OH225893   0.875   1.047   0.283 -0.2583 -0.1683 -0.0842
 1445TIP3    H125894   0.867   1.140   0.261 -0.4342  0.5791  2.7405
 1445TIP3    H225895   0.852   1.001   0.203 -1.4974  2.2255 -1.1912
 1446TIP3   OH225896   4.964   0.834   0.045  0.0319 -0.1977 -0.1814
 1446TIP3    H125897   4.965   0.783  -0.036  0.6768  0.5093 -0.6298
 1446TIP3    H225898   4.935   0.922   0.018  2.4573  0.7088 -0.0877
 1447TIP3   OH225899   0.035   0.728   1.193  0.3214 -0.1112 -0.4668
 1447TIP3    H125900  -0.058   0.745   1.180 -0.4305 -1.7349  2.2147
 1447TIP3    H225901   0.071   0.812   1.222 -0.6004  0.1484 -0.0529
 1448TIP3   OH225902   1.944   3.292   7.262  0.4361 -0.1177  0.1304
 1448TIP3    H125903   2.038   3.312   7.263 -0.0599  2.5468 -0.4636
 1448TIP3    H225904   1.937   3.216   7.205  2.0412  1.0175 -1.7268
 1449TIP3   OH225905   6.115   5.097   7.947 -0.1011 -0.2242 -1.0272
 1449TIP3    H125906   6.184   5.033   7.930 -1.3193 -1.5486 -1.0663
 1449TIP3    H225907   6.041   5.046   7.978 -0.1545  1.4653  1.9332
 1450TIP3   OH225908   6.386   0.557   8.204  0.1038  0.2524  0.1288
 1450TIP3    H125909   6.356   0.469   8.181 -0.3715  0.5917 -0.5796
 1450TIP3    H225910   6.444   0.544   8.280  0.6126 -0.7436 -0.4186
 1451TIP3   OH225911   5.894   5.008   8.209  0.0470  0.3357 -0.3092
 1451TIP3    H125912   5.955   4.935   8.206  0.5257  0.7534 -2.3905
 1451TIP3    H225913   5.822   4.982   8.151 -0.7325  0.7295  0.4516
 1452TIP3   OH225914   1.105   5.106   8.109 -0.6473 -0.2977 -0.0414
 1452TIP3    H125915   1.161   5.036   8.141 -0.3276 -0.2525 -0.4911
 1452TIP3    H225916   1.155   5.146   8.038 -1.7532 -1.0330 -1.2627
 1453TIP3   OH225917   0.597   5.182   7.571  0.2935  0.2747  0.2050
 1453TIP3    H125918   0.636   5.181   7.483 -0.6907  2.2487 -0.3218
 1453TIP3    H225919   0.637   5.108   7.616  1.5273 -0.2332 -1.6096
 1454TIP3   OH225920   2.055   3.584   1.528  0.3255  0.1752 -0.2172
 1454TIP3    H125921   2.007   3.531   1.592  1.0640  1.3802  1.4210
 1454TIP3    H225922   2.009   3.667   1.526  0.2431  0.1147 -1.3887
 1455TIP3   OH225923   2.711   3.698   1.418  0.0881  0.5782  0.3583
 1455TIP3    H125924   2.677   3.731   1.501 -1.4688  0.0455 -0.0247
 1455TIP3    H225925   2.725   3.605   1.433 -1.4079  0.2156 -0.2999
 1456TIP3   OH225926   6.931   4.065   8.179 -0.4066  0.6461 -0.3212
 1456TIP3    H125927   6.974   4.123   8.117 -0.3673 -0.0224 -0.9257
 1456TIP3    H225928   6.914   4.120   8.256  1.1879  1.0156 -0.2111
 1457TIP3   OH225929   0.872   4.341   8.223 -0.4897 -0.1958 -0.4511
 1457TIP3    H125930   0.860   4.414   8.284 -1.4469  0.0187 -0.8856
 1457TIP3    H225931   0.939   4.373   8.161 -1.4141  0.6156 -1.0706
 1458TIP3   OH225932   5.023   3.530   8.086  0.3872 -0.1379 -0.2102
 1458TIP3    H125933   5.052   3.509   7.998  0.9583  0.1085 -0.0806
 1458TIP3    H225934   4.962   3.459   8.108  1.6993 -1.2676 -0.0740
 1459TIP3   OH225935   6.692   5.917   2.027  0.2170  0.2716  0.1006
 1459TIP3    H125936   6.718   5.831   1.994  1.9907  0.5181  0.7830
 1459TIP3    H225937   6.648   5.958   1.952 -1.8551 -1.6561  0.1426
 1460TIP3   OH225938   0.087   1.722   0.307  0.1338 -0.3402 -0.5205
 1460TIP3    H125939   0.137   1.642   0.324 -1.4511 -1.1326  0.6044
 1460TIP3    H225940   0.077   1.763   0.393  0.5137  0.8329 -1.0210
 1461TIP3   OH225941   5.256   6.096   0.567  0.0873  0.6132  0.0191
 1461TIP3    H125942   5.165   6.080   0.592 -0.2109  0.7816 -0.9262
 1461TIP3    H225943   5.297   6.010   0.570 -0.4804  0.2934 -0.9979
 1462TIP3   OH225944   3.074   2.755   6.438 -0.2428  0.2414 -0.3794
 1462TIP3    H125945   3.088   2.756   6.533 -1.3632  1.5073 -0.2031
 1462TIP3    H225946   3.002   2.694   6.426 -1.6602  1.7790 -0.1260
 1463TIP3   OH225947   0.906   5.155   1.030 -0.6427  0.1283 -0.0258
 1463TIP3    H125948   0.918   5.249   1.046 -0.7897  0.1909 -0.2697
 1463TIP3    H225949   0.876   5.120   1.114  0.7239  0.0559  0.4540
 1464TIP3   OH225950   6.914   2.554   7.595 -0.1448  0.8718  0.5659
 1464TIP3    H125951   6.978   2.625   7.603 -1.6737  2.4021 -0.1596
 1464TIP3    H225952   6.829   2.598   7.586 -0.9843 -0.9489 -1.9115
 1465TIP3   OH225953   1.447   4.161   0.713  0.2116 -0.0079 -0.0008
 1465TIP3    H125954   1.468   4.144   0.621  1.0118 -0.5122  0.2648
 1465TIP3    H225955   1.351   4.161   0.716  0.1334  1.8327 -1.1595
 1466TIP3   OH225956   5.020   2.061   6.631 -0.2464  0.2352  0.1131
 1466TIP3    H125957   4.951   2.111   6.586  0.9489  2.1656  0.3295
 1466TIP3    H225958   5.077   2.030   6.561 -1.2025 -1.2733 -0.0570
 1467TIP3   OH225959   0.500   2.590   6.542  0.6761  0.1472  0.1927
 1467TIP3    H125960   0.572   2.528   6.554 -0.8318 -1.7551 -0.0875
 1467TIP3    H225961   0.460   2.565   6.459 -1.8981 -0.6541  1.5330
 1468TIP3   OH225962   0.237   2.480   6.713  0.3962 -0.1147 -0.2550
 1468TIP3    H125963   0.216   2.570   6.689 -1.1220 -0.5142 -0.4914
 1468TIP3    H225964   0.305   2.454   6.650  0.2066  0.5784 -0.7493
 1469TIP3   OH225965   0.681   0.403   6.701 -0.3759  0.6680  0.1085
 1469TIP3    H125966   0.676   0.395   6.606 -2.3282 -0.6191  0.2543
 1469TIP3    H225967   0.644   0.320   6.733  0.7156  0.8626  1.9878
 1470TIP3   OH225968   1.141   3.148   6.158  0.5777 -0.1125  0.5870
 1470TIP3    H125969   1.135   3.192   6.242  2.7779  0.6081  0.4434
 1470TIP3    H225970   1.065   3.179   6.108  0.4210  1.1183  1.5620
 1471TIP3   OH225971   5.216   2.137   7.361  0.0179 -0.0328  0.5195
 1471TIP3    H125972   5.257   2.050   7.360  0.6690  0.2176  2.4504
 1471TIP3    H225973   5.125   2.120   7.384 -0.4122 -0.3682 -1.3044
 1472TIP3   OH225974   0.699   5.940   1.842 -0.3235  0.3582 -0.9068
 1472TIP3    H125975   0.686   5.871   1.778 -3.1470  0.0116 -0.1091
 1472TIP3    H225976   0.720   6.018   1.790 -0.0280 -0.4511 -2.0233
 1473TIP3   OH225977   5.167   0.625   1.332 -0.4329 -0.1041  0.3530
 1473TIP3    H125978   5.166   0.531   1.315  0.2959 -0.1993  0.8072
 1473TIP3    H225979   5.088   0.657   1.289 -0.7601 -0.9400  0.3032
 1474TIP3   OH225980   6.339   5.092   7.044 -0.3711 -0.9780 -0.0219
 1474TIP3    H125981   6.381   5.048   7.118  0.5045  0.7667  0.5512
 1474TIP3    H225982   6.271   5.146   7.083 -0.0235 -0.1758 -0.5043
 1475TIP3   OH225983   3.428   6.498   7.173 -0.2527  0.0606 -0.0731
 1475TIP3    H125984   3.451   6.591   7.167  1.0191 -0.1193  1.2500
 1475TIP3    H225985   3.416   6.470   7.082  0.7502  1.1906 -0.5814
 1476TIP3   OH225986   5.600   0.615   6.798  0.2099 -0.3872 -0.4480
 1476TIP3    H125987   5.609   0.706   6.826  2.5864 -0.8911  0.7244
 1476TIP3    H225988   5.683   0.596   6.753 -1.7477 -0.9091 -4.2782
 1477TIP3   OH225989   6.755   5.306   1.300 -0.3929  0.6213 -0.4875
 1477TIP3    H125990   6.678   5.259   1.332  0.1362  1.2491  1.9248
 1477TIP3    H225991   6.722   5.365   1.232 -1.5319 -1.1079 -1.5054
 1478TIP3   OH225992   2.539   4.357   7.526 -0.0382 -0.3123  0.2893
 1478TIP3    H125993   2.449   4.372   7.499 -0.1635 -0.0139  0.8622
 1478TIP3    H225994   2.591   4.375   7.447 -0.4130  0.3177  0.1783
 1479TIP3   OH225995   5.276   4.817   1.978  0.1449  0.6902  0.0889
 1479TIP3    H125996   5.346   4.879   2.002  2.1610 -1.3405 -0.2662
 1479TIP3    H225997   5.262   4.832   1.885  3.6431 -2.0125 -1.0923
 1480TIP3   OH225998   1.573   6.276   7.872 -0.2269  0.4393  0.0942
 1480TIP3    H125999   1.590   6.212   7.941 -0.3335  0.9499  0.6112
 1480TIP3    H226000   1.569   6.360   7.919  0.1955  0.8542 -0.6041
 1481TIP3   OH226001   1.310   2.523   8.024  0.2893 -0.0971  0.2923
 1481TIP3    H126002   1.260   2.505   8.103  0.0773 -1.4237 -0.1110
 1481TIP3    H226003   1.371   2.592   8.049 -1.6909  1.5457  0.7937
 1482TIP3   OH226004   2.535   5.657   0.116 -0.3273  0.1822 -0.3290
 1482TIP3    H126005   2.574   5.571   0.103 -1.5104 -0.3445 -0.5188
 1482TIP3    H226006   2.600   5.718   0.080  0.6827 -0.5851  0.1349
 1483TIP3   OH226007   3.748   4.764   8.109 -0.3861  0.6785 -0.8507
 1483TIP3    H126008   3.819   4.723   8.159 -1.1199  0.3096 -0.1031
 1483TIP3    H226009   3.673   4.763   8.168 -1.0109  1.1048 -1.6230
 1484TIP3   OH226010   0.658   2.348   7.857 -0.1117  0.0991 -0.3283
 1484TIP3    H126011   0.703   2.414   7.911 -0.8548  1.1592 -0.9660
 1484TIP3    H226012   0.612   2.399   7.791  1.1239 -1.1787 -2.2631
 1485TIP3   OH226013   1.903   1.143   2.208  0.1921  0.0391 -0.0766
 1485TIP3    H126014   1.948   1.060   2.189  0.7312 -0.3026  2.3638
 1485TIP3    H226015   1.973   1.202   2.236 -0.3564  0.9351 -0.5649
 1486TIP3   OH226016   0.694   0.794   6.255  0.3135  0.4772 -0.0835
 1486TIP3    H126017   0.612   0.836   6.231  0.5332  1.2003  0.4020
 1486TIP3    H226018   0.756   0.867   6.267  1.8891 -0.1050 -3.4922
 1487TIP3   OH226019   3.838   2.342   0.162 -0.3768  0.3658 -0.2396
 1487TIP3    H126020   3.824   2.355   0.068  0.9852 -0.6723 -0.6244
 1487TIP3    H226021   3.911   2.281   0.166 -0.1085  0.7709  1.5157
 1488TIP3   OH226022   6.650   0.239   6.532 -0.3992  0.2602 -0.3270
 1488TIP3    H126023   6.587   0.176   6.499  0.0882 -1.0245  1.0449
 1488TIP3    H226024   6.602   0.322   6.537 -1.2799 -0.1656 -1.4497
 1489TIP3   OH226025   4.436   4.666   0.084  0.0328 -0.1342 -0.2671
 1489TIP3    H126026   4.367   4.604   0.060  1.0166 -1.1825 -0.5020
 1489TIP3    H226027   4.489   4.673   0.005  1.2747 -0.8411  0.4712
 1490TIP3   OH226028   1.962   2.045   1.294  0.3739 -0.2761  0.0237
 1490TIP3    H126029   1.900   2.092   1.238  0.6003 -0.7889 -0.6765
 1490TIP3    H226030   2.019   2.113   1.329  0.9093 -0.0411 -1.2429
 1491TIP3   OH226031   4.752   5.691   7.977  0.0945 -0.3685 -0.4537
 1491TIP3    H126032   4.669   5.675   8.022 -0.1213 -0.9481 -1.0372
 1491TIP3    H226033   4.772   5.608   7.933  0.2940  0.1687 -1.4130
 1492TIP3   OH226034   0.706   6.441   1.246  0.8838  0.1965  0.3565
 1492TIP3    H126035   0.668   6.374   1.189  0.9063 -0.6129  1.2639
 1492TIP3    H226036   0.636   6.506   1.257  0.0613 -0.7946  1.2291
 1493TIP3   OH226037   2.401   1.205   7.793 -0.0765  0.1360  0.4116
 1493TIP3    H126038   2.317   1.244   7.767 -0.2794 -0.5076  0.0953
 1493TIP3    H226039   2.464   1.276   7.780 -0.3567  0.2019 -0.7168
 1494TIP3   OH226040   2.439   2.647   0.883  0.0254  0.6596  0.2063
 1494TIP3    H126041   2.443   2.694   0.966  0.7399  2.3800 -0.7342
 1494TIP3    H226042   2.356   2.600   0.885  0.5658 -0.2970  2.3515
 1495TIP3   OH226043   2.188   4.246   0.409  0.1418 -0.1595 -0.0530
 1495TIP3    H126044   2.185   4.160   0.366  0.9051  0.2768 -1.0031
 1495TIP3    H226045   2.236   4.230   0.490  1.4186 -0.3942 -0.8331
 1496TIP3   OH226046   5.501   4.191   1.601 -0.2626  0.5215  0.6803
 1496TIP3    H126047   5.579   4.136   1.606 -0.4933 -0.4645 -3.0344
 1496TIP3    H226048   5.528   4.266   1.547 -1.8297  0.0001 -0.9586
 1497TIP3   OH226049   2.626   5.879   8.314  0.0897 -0.1333  0.2258
 1497TIP3    H126050   2.640   5.933   8.236 -0.0205  0.1630  0.4098
 1497TIP3    H226051   2.586   5.938   8.377  1.0394 -0.1337  0.8393
 1498TIP3   OH226052   2.852   0.823   6.252  0.0777  0.6521  0.5567
 1498TIP3    H126053   2.915   0.756   6.225  0.8674  1.0401  1.3833
 1498TIP3    H226054   2.905   0.898   6.278 -0.7902  1.5879 -0.2526
 1499TIP3   OH226055   0.689   6.559   1.760  0.9727  0.1061 -0.0445
 1499TIP3    H126056   0.688   6.463   1.766  1.5269 -0.0521 -1.7781
 1499TIP3    H226057   0.655   6.578   1.673  0.5848  1.5129  0.3923
 1500TIP3   OH226058   0.653   0.442   7.128  0.1634 -0.1178 -0.1618
 1500TIP3    H126059   0.566   0.417   7.161  0.1288  2.6338  2.2878
 1500TIP3    H226060   0.636   0.482   7.043 -0.6944 -1.2226 -0.5340
 1501TIP3   OH226061   0.926   3.188   0.507  0.4588  0.1465  0.3466
 1501TIP3    H126062   0.908   3.272   0.549  0.6773 -0.5145  1.8312
 1501TIP3    H226063   0.991   3.207   0.440  0.1900  1.2285  0.3885
 1502TIP3   OH226064   6.689   2.979   1.291 -0.1324  0.4230  0.3734
 1502TIP3    H126065   6.603   2.937   1.291  0.0900 -0.0401 -0.0011
 1502TIP3    H226066   6.706   2.998   1.383 -0.9789  1.2366  0.3693
 1503TIP3   OH226067   1.284   4.609   6.197 -0.2808  0.6276 -0.0544
 1503TIP3    H126068   1.368   4.577   6.164  0.1767  0.2600  1.3992
 1503TIP3    H226069   1.275   4.568   6.283 -1.7593  0.9938 -0.0182
 1504TIP3   OH226070   6.774   4.528   0.232  0.1733  0.1037 -0.4486
 1504TIP3    H126071   6.737   4.602   0.185  1.2352  0.6301 -0.4921
 1504TIP3    H226072   6.699   4.487   0.276 -0.8533 -0.3419 -2.4656
 1505TIP3   OH226073   6.888   4.999   2.043  0.7015 -0.0481  0.3510
 1505TIP3    H126074   6.828   4.941   2.090 -2.4049  2.2670 -0.4235
 1505TIP3    H226075   6.907   5.069   2.105  1.9715 -0.3112  0.2809
 1506TIP3   OH226076   4.593   4.622   8.221  0.1804 -0.2169  0.2034
 1506TIP3    H126077   4.603   4.686   8.151 -1.6071 -2.0400 -1.8467
 1506TIP3    H226078   4.682   4.589   8.236  0.6188  0.3369 -1.0661
 1507TIP3   OH226079   6.499   6.202   5.786  0.0343  0.4401 -0.5418
 1507TIP3    H126080   6.514   6.250   5.867 -0.6394  1.1559 -0.8313
 1507TIP3    H226081   6.587   6.181   5.755  0.2920 -1.1679  1.1170
 1508TIP3   OH226082   1.296   5.930   6.638  0.7873 -0.8986  0.4125
 1508TIP3    H126083   1.358   5.907   6.707  1.0175 -2.6608 -0.3222
 1508TIP3    H226084   1.345   5.990   6.581  0.4071  1.0383  2.0048
 1509TIP3   OH226085   0.494   6.284   7.088 -0.4484  0.1935  0.2703
 1509TIP3    H126086   0.584   6.265   7.061 -0.0373  1.5071  0.6684
 1509TIP3    H226087   0.456   6.197   7.105  0.2356 -0.4832 -1.4056
 1510TIP3   OH226088   0.426   3.470   1.558 -0.0297 -0.3468 -0.6208
 1510TIP3    H126089   0.520   3.486   1.550 -0.2069  0.5264 -0.9927
 1510TIP3    H226090   0.419   3.405   1.628  0.7883  0.2967  0.0778
 1511TIP3   OH226091   5.542   4.185   7.246  0.1926 -0.4016 -0.2769
 1511TIP3    H126092   5.514   4.185   7.155 -3.3742 -0.6534  0.6461
 1511TIP3    H226093   5.527   4.274   7.276  0.5281 -0.5223  0.2713
 1512TIP3   OH226094   5.332   5.247   8.194 -0.1590  0.2251 -0.4964
 1512TIP3    H126095   5.415   5.223   8.235 -0.1848  1.5444  0.4043
 1512TIP3    H226096   5.333   5.203   8.109  1.4834  0.2599 -0.5268
 1513TIP3   OH226097   1.594   0.389   6.494  0.2501 -0.0779  1.0128
 1513TIP3    H126098   1.567   0.411   6.405  0.4362 -1.1427  0.6823
 1513TIP3    H226099   1.675   0.439   6.507  0.8890 -0.8323  0.1287
 1514TIP3   OH226100   6.401   6.312   7.101 -0.3464 -0.0280  0.3135
 1514TIP3    H126101   6.453   6.261   7.040 -0.2514  0.0854  0.2997
 1514TIP3    H226102   6.457   6.322   7.178 -0.5285 -0.3115  0.4857
 1515TIP3   OH226103   3.630   3.056   1.313 -0.1722  0.2291  0.2065
 1515TIP3    H126104   3.550   3.026   1.356 -0.3762  1.8250  1.0005
 1515TIP3    H226105   3.688   2.979   1.315 -2.5277 -1.8350 -2.7646
 1516TIP3   OH226106   1.217   2.737   7.411 -0.2639  0.2806  0.1013
 1516TIP3    H126107   1.184   2.652   7.441 -2.1836  1.2400  0.8410
 1516TIP3    H226108   1.146   2.772   7.357 -0.6202  2.4859  1.8484
 1517TIP3   OH226109   2.627   1.055   1.779  0.2973  0.2586 -0.3300
 1517TIP3    H126110   2.614   1.148   1.760  2.6149  0.4788 -1.2025
 1517TIP3    H226111   2.671   1.053   1.863  2.6502  0.1946 -1.4811
 1518TIP3   OH226112   0.218   5.538   7.168  0.6422  0.2648  0.2439
 1518TIP3    H126113   0.300   5.577   7.199  1.3922  0.2788 -1.6122
 1518TIP3    H226114   0.152   5.569   7.229  1.4487  3.1736 -0.2020
 1519TIP3   OH226115   4.223   1.145   5.893  0.1247 -0.0922  0.3391
 1519TIP3    H126116   4.276   1.091   5.835 -0.9668 -1.5534  0.6462
 1519TIP3    H226117   4.287   1.196   5.944  1.1504 -0.4440 -0.5639
 1520TIP3   OH226118   2.925   3.570   6.948 -0.0513 -0.0117 -0.1264
 1520TIP3    H126119   2.986   3.619   7.004 -0.4590  0.7787 -0.3672
 1520TIP3    H226120   2.933   3.611   6.862 -0.0919 -0.6435 -0.4336
 1521TIP3   OH226121   4.068   2.940   0.418  0.2950  0.0872  0.9735
 1521TIP3    H126122   4.087   3.006   0.485  2.8391 -1.1418  1.5639
 1521TIP3    H226123   4.063   2.858   0.467 -0.0802 -0.5368 -0.0909
 1522TIP3   OH226124   3.077   5.375   6.259 -0.0638 -0.7798 -0.1028
 1522TIP3    H126125   3.029   5.292   6.257  1.1993 -1.5155 -0.5600
 1522TIP3    H226126   3.144   5.366   6.191  1.4193 -0.2056  1.2197
 1523TIP3   OH226127   2.091   5.291   1.414 -0.0035  0.2807 -0.6238
 1523TIP3    H126128   2.178   5.327   1.396 -0.3146  1.5809  0.2998
 1523TIP3    H226129   2.091   5.273   1.508 -0.4475 -0.5537 -0.7714
 1524TIP3   OH226130   6.285   6.430   7.923 -0.4506 -0.5128  0.1658
 1524TIP3    H126131   6.350   6.454   7.857  1.9704 -2.1702  1.8243
 1524TIP3    H226132   6.242   6.513   7.946  2.1373  0.9238  0.1183
 1525TIP3   OH226133   5.073   6.417   0.182 -0.0642  0.0114  0.0399
 1525TIP3    H126134   5.083   6.353   0.111 -2.7309 -0.7734  0.2746
 1525TIP3    H226135   5.127   6.383   0.253  0.7882 -0.4304 -0.7955
 1526TIP3   OH226136   1.994   4.201   8.128  0.5167 -0.5808  0.2601
 1526TIP3    H126137   2.085   4.216   8.104 -0.3923  0.4814 -2.9631
 1526TIP3    H226138   1.966   4.127   8.074 -1.6713  1.9499 -2.4126
 1527TIP3   OH226139   5.204   6.543   8.174 -0.6709 -0.1680  0.5115
 1527TIP3    H126140   5.206   6.580   8.262  0.0101  0.7057  0.1395
 1527TIP3    H226141   5.235   6.453   8.185 -3.0315 -0.9254  1.5329
 1528TIP3   OH226142   2.796   1.230   6.763  0.0726 -0.6366  0.9731
 1528TIP3    H126143   2.776   1.316   6.725  2.3993 -0.7359 -0.6817
 1528TIP3    H226144   2.720   1.176   6.741 -0.0399  0.1667 -0.7860
 1529TIP3   OH226145   4.963   2.477   6.804  0.2787 -0.7284 -0.1809
 1529TIP3    H126146   4.895   2.481   6.738 -0.8751 -1.6172  0.9165
 1529TIP3    H226147   4.946   2.397   6.853  2.0384 -0.9128  0.2169
 1530TIP3   OH226148   4.019   0.293   0.183 -0.4051  0.1245 -0.0971
 1530TIP3    H126149   4.014   0.259   0.273  0.6203  1.1007  0.3564
 1530TIP3    H226150   3.932   0.280   0.147 -0.8217 -0.3210  1.0293
 1531TIP3   OH226151   2.705   2.488   6.126 -0.3499 -0.4999  0.0948
 1531TIP3    H126152   2.642   2.524   6.189  1.0455 -1.7891  2.3536
 1531TIP3    H226153   2.686   2.534   6.044 -3.2445  0.1726  1.0392
 1532TIP3   OH226154   5.797   1.779   7.436  0.0651 -0.1270  0.6430
 1532TIP3    H126155   5.815   1.737   7.352 -0.0935 -0.4650  0.7772
 1532TIP3    H226156   5.703   1.770   7.448  0.2343 -1.0153  1.3498
 1533TIP3   OH226157   2.503   3.197   6.565 -1.0874 -0.1795  0.0749
 1533TIP3    H126158   2.518   3.255   6.490 -1.7050  1.9697  1.5234
 1533TIP3    H226159   2.582   3.207   6.619 -1.7325  0.3526  0.9542
 1534TIP3   OH226160   6.629   0.811   8.080  0.4331 -0.6736 -0.3064
 1534TIP3    H126161   6.625   0.753   8.003  0.0103 -0.5540 -0.3740
 1534TIP3    H226162   6.546   0.797   8.125 -0.2346  0.8066 -1.0031
 1535TIP3   OH226163   3.936   6.575   6.808 -0.2292  0.4523 -0.0773
 1535TIP3    H126164   3.844   6.580   6.781  0.1262 -1.8987 -2.0855
 1535TIP3    H226165   3.984   6.558   6.727  1.9568  1.1523  0.9937
 1536TIP3   OH226166   2.663   5.175   6.812  0.4090 -0.3921 -0.2771
 1536TIP3    H126167   2.676   5.176   6.717  1.6006  0.5749 -0.1217
 1536TIP3    H226168   2.572   5.148   6.823  0.5271 -1.4939 -1.6538
 1537TIP3   OH226169   0.542   2.287   7.349 -0.2271  0.2784 -0.0950
 1537TIP3    H126170   0.544   2.214   7.288  0.4783 -0.4330  0.7502
 1537TIP3    H226171   0.575   2.251   7.431 -0.0101  1.5080  0.3838
 1538TIP3   OH226172   6.360   5.490   7.155  0.9316 -0.9242  0.2828
 1538TIP3    H126173   6.314   5.418   7.111 -1.3597 -1.1058  2.7391
 1538TIP3    H226174   6.445   5.452   7.178  2.0161 -1.0048 -3.1839
 1539TIP3   OH226175   6.655   4.142   6.191  0.8065  0.7674 -0.2500
 1539TIP3    H126176   6.648   4.047   6.181  4.7323  0.0481  1.8975
 1539TIP3    H226177   6.578   4.166   6.243  0.8188 -1.6813  1.0700
 1540TIP3   OH226178   1.896   4.970   7.813  0.2177 -0.6837 -0.2488
 1540TIP3    H126179   1.962   5.039   7.822  1.2216 -1.5555 -0.7336
 1540TIP3    H226180   1.880   4.940   7.902  1.1016 -1.0411 -0.2103
 1541TIP3   OH226181   1.678   5.102   1.048  0.0126  0.4978 -0.1143
 1541TIP3    H126182   1.604   5.161   1.060  0.2277  1.1029 -1.5293
 1541TIP3    H226183   1.740   5.152   0.995  0.8814 -0.4592 -0.0334
 1542TIP3   OH226184   3.374   0.305   0.688  0.0033 -0.2122 -0.0470
 1542TIP3    H126185   3.347   0.305   0.779  0.8043 -0.0376  0.1979
 1542TIP3    H226186   3.450   0.248   0.685 -0.1773 -0.4346 -0.6608
 1543TIP3   OH226187   5.647   1.661   1.207  0.5938  0.5788  0.2902
 1543TIP3    H126188   5.659   1.642   1.114  0.1910  0.3310  0.2883
 1543TIP3    H226189   5.690   1.746   1.219 -0.1339  1.0456 -0.3190
 1544TIP3   OH226190   0.859   4.427   7.690  0.2521  0.3510  0.0295
 1544TIP3    H126191   0.918   4.502   7.681  2.0342 -0.9680  0.3214
 1544TIP3    H226192   0.817   4.420   7.604 -0.1836  1.8387  0.0873
 1545TIP3   OH226193   4.582   3.207   7.717  0.2683  0.1449  0.0706
 1545TIP3    H126194   4.630   3.233   7.796  0.0181 -0.6207  0.4808
 1545TIP3    H226195   4.532   3.130   7.744  0.5381 -0.3997 -0.9655
 1546TIP3   OH226196   5.796   6.075   5.873 -0.0810  0.0530  0.5307
 1546TIP3    H126197   5.805   6.099   5.966 -0.7515 -2.0277  1.1902
 1546TIP3    H226198   5.725   6.131   5.841 -1.2369 -0.5849  1.8529
 1547TIP3   OH226199   2.095   1.310   1.604 -0.2417  0.1597  0.1078
 1547TIP3    H126200   2.000   1.312   1.604 -0.2379  0.5534 -0.2175
 1547TIP3    H226201   2.121   1.394   1.567  0.2150 -0.4594 -1.0301
 1548TIP3   OH226202   1.189   3.904   1.811 -0.8569 -0.6280  0.6521
 1548TIP3    H126203   1.146   3.819   1.821 -2.9664  0.2773 -0.0058
 1548TIP3    H226204   1.121   3.967   1.835 -0.7228  0.9987 -2.6947
 1549TIP3   OH226205   3.816   1.211   8.026  0.5897 -0.4064 -0.3331
 1549TIP3    H126206   3.853   1.126   8.004  1.6402  0.0717 -0.5067
 1549TIP3    H226207   3.892   1.264   8.052 -0.0591  0.4253 -0.0714
 1550TIP3   OH226208   3.791   1.904   6.456 -0.5536  0.3041  0.6385
 1550TIP3    H126209   3.698   1.922   6.443 -0.6906 -0.4701  0.5005
 1550TIP3    H226210   3.795   1.810   6.474  0.2333  0.2689  0.3113
 1551TIP3   OH226211   6.667   0.029   7.176  0.2828 -0.1090  0.0863
 1551TIP3    H126212   6.690   0.122   7.171 -1.3737  0.2744 -1.0040
 1551TIP3    H226213   6.695  -0.008   7.092 -1.0029 -0.1070 -0.3621
 1552TIP3   OH226214   4.231   6.908   1.445  0.5442  0.0675 -0.6739
 1552TIP3    H126215   4.256   6.977   1.506  0.1169  0.2553 -0.7010
 1552TIP3    H226216   4.135   6.903   1.452  0.6723 -1.6954  0.5855
 1553TIP3   OH226217   2.551   2.867   0.765  0.7306 -0.3482 -0.8946
 1553TIP3    H126218   2.643   2.848   0.748  1.6343  0.3129  2.5267
 1553TIP3    H226219   2.516   2.786   0.803  0.7779  0.2952  0.6033
 1554TIP3   OH226220   2.430   3.443   0.408 -0.7744 -0.8913  0.1072
 1554TIP3    H126221   2.393   3.381   0.471  1.1079 -0.1079  2.1623
 1554TIP3    H226222   2.355   3.489   0.372 -2.0060 -2.1801  0.9053
 1555TIP3   OH226223   5.168   2.669   0.735 -0.4379  0.1032 -0.2316
 1555TIP3    H126224   5.136   2.756   0.713 -1.6518 -0.3268 -0.2479
 1555TIP3    H226225   5.091   2.613   0.731  0.4686 -1.1529 -1.1434
 1556TIP3   OH226226   3.018   1.943   1.632  0.1042 -0.2297 -0.3525
 1556TIP3    H126227   2.980   2.025   1.603  0.5191 -0.5885 -1.9770
 1556TIP3    H226228   3.055   1.963   1.718 -1.4583  0.7697  0.1190
 1557TIP3   OH226229   0.625   1.192   0.836 -0.0219 -0.3606  0.1667
 1557TIP3    H126230   0.548   1.224   0.789  1.7730  1.1305 -1.9656
 1557TIP3    H226231   0.601   1.104   0.864 -2.5354  0.1004 -0.2870
 1558TIP3   OH226232   5.824   4.376   1.189  0.2147 -0.6602  0.0749
 1558TIP3    H126233   5.864   4.394   1.275  0.1798 -4.4125  1.0539
 1558TIP3    H226234   5.894   4.392   1.126  0.8831  0.1420  0.9902
 1559TIP3   OH226235   3.131   6.646   7.474  0.3143 -0.5284  0.2425
 1559TIP3    H126236   3.088   6.573   7.519 -1.1223  0.2473  0.2083
 1559TIP3    H226237   3.076   6.722   7.494  0.8041  0.2199 -1.1044
 1560TIP3   OH226238   6.912   0.849   0.127  0.4799  0.0248 -0.1503
 1560TIP3    H126239   6.877   0.770   0.088 -1.0762  0.4943  0.2289
 1560TIP3    H226240   6.846   0.876   0.191  0.7471  1.8685 -0.5768
 1561TIP3   OH226241   0.090   1.988   0.174  0.0289  0.0631  0.1456
 1561TIP3    H126242   0.037   2.032   0.241  0.2760  0.9044 -0.2043
 1561TIP3    H226243   0.064   1.896   0.181 -0.3002  0.2104  1.0696
 1562TIP3   OH226244   1.219   5.397   8.239  0.4711  0.0644  0.4232
 1562TIP3    H126245   1.292   5.337   8.256  0.2632 -0.8268 -1.5422
 1562TIP3    H226246   1.141   5.343   8.246 -0.0748  1.0240  2.5549
 1563TIP3   OH226247   3.825   4.138   1.197 -0.2321 -0.0801 -0.4272
 1563TIP3    H126248   3.857   4.198   1.264  1.7717  0.0539 -1.4498
 1563TIP3    H226249   3.800   4.059   1.246  2.4623 -0.5046  0.3997
 1564TIP3   OH226250   2.382   1.199   0.319  0.3080  0.1370 -0.1251
 1564TIP3    H126251   2.380   1.292   0.340 -0.4352 -0.3075  2.1226
 1564TIP3    H226252   2.459   1.166   0.367  2.4170  0.0079 -3.3158
 1565TIP3   OH226253   1.111   4.254   2.266 -0.3615 -0.1431 -0.2039
 1565TIP3    H126254   1.105   4.159   2.253 -1.2611 -0.1800  0.3822
 1565TIP3    H226255   1.021   4.282   2.282 -0.2071  0.9296 -1.0704
 1566TIP3   OH226256   2.260   0.340   8.303  0.0552 -0.0789 -0.3806
 1566TIP3    H126257   2.213   0.272   8.352 -1.8271 -0.9870 -3.2330
 1566TIP3    H226258   2.192   0.396   8.268  1.4525  1.6353 -0.4822
 1567TIP3   OH226259   0.696   5.464   1.426 -0.1591 -0.3191 -0.2476
 1567TIP3    H126260   0.614   5.498   1.390 -0.5706  0.6059  1.4512
 1567TIP3    H226261   0.758   5.536   1.416  0.2959 -0.8060 -0.9867
 1568TIP3   OH226262   0.218   0.664   0.996  0.3314 -0.3131  0.0978
 1568TIP3    H126263   0.160   0.660   1.072  1.1854 -2.9445  0.7069
 1568TIP3    H226264   0.159   0.663   0.920 -0.4770 -2.1089  0.7113
 1569TIP3   OH226265   6.774   5.856   8.036 -0.1170 -0.3395 -0.5408
 1569TIP3    H126266   6.759   5.764   8.060 -1.0674  0.0664  0.5402
 1569TIP3    H226267   6.767   5.903   8.119 -1.5854  0.9234 -1.3318
 1570TIP3   OH226268   3.067   1.387   0.197 -0.4878  0.1167 -0.8018
 1570TIP3    H126269   3.150   1.348   0.225 -0.7648 -0.2114 -0.4219
 1570TIP3    H226270   3.003   1.318   0.210 -1.5035  1.5082  2.5551
 1571TIP3   OH226271   5.333   2.194   6.859  0.2537  0.2536 -0.2078
 1571TIP3    H126272   5.307   2.102   6.851  0.0996  0.2982 -0.2011
 1571TIP3    H226273   5.338   2.210   6.953  0.2802  0.2529 -0.2092
 1572TIP3   OH226274   0.963   0.406   0.124 -0.3531  0.1280 -0.0122
 1572TIP3    H126275   0.953   0.338   0.190 -1.3863  0.1715 -0.1090
 1572TIP3    H226276   1.057   0.409   0.107 -0.2779 -1.2121  0.0555
 1573TIP3   OH226277   2.321   5.498   6.341 -0.5255 -0.4986  0.2629
 1573TIP3    H126278   2.304   5.543   6.258 -0.1444 -2.2508 -0.8157
 1573TIP3    H226279   2.234   5.479   6.376 -0.7030  1.4665  1.0139
 1574TIP3   OH226280   6.610   3.705   1.402 -0.4538  0.7827 -0.6403
 1574TIP3    H126281   6.624   3.795   1.433 -0.3499  0.4811  0.2262
 1574TIP3    H226282   6.679   3.690   1.338 -0.0231  1.0823 -0.2555
 1575TIP3   OH226283   4.937   2.196   7.384  0.5787  0.5343  0.3784
 1575TIP3    H126284   4.871   2.133   7.411 -0.7329  1.6241 -0.1627
 1575TIP3    H226285   4.889   2.279   7.375  2.1523  1.5225  0.6625
 1576TIP3   OH226286   1.620   0.621   7.727 -0.8124  0.3244  0.3388
 1576TIP3    H126287   1.587   0.699   7.685  0.0564  0.8637  0.6178
 1576TIP3    H226288   1.712   0.616   7.700 -0.6385 -0.1319  0.9713
 1577TIP3   OH226289   2.199   2.668   0.631  0.5074 -0.3175  0.1720
 1577TIP3    H126290   2.166   2.639   0.547 -0.9246  1.6197 -0.0027
 1577TIP3    H226291   2.128   2.650   0.693 -0.3342  2.2851  0.1068
 1578TIP3   OH226292   2.752   3.282   1.859 -0.2902 -0.0758 -0.2797
 1578TIP3    H126293   2.797   3.331   1.790  0.3441  0.9941  0.8594
 1578TIP3    H226294   2.820   3.261   1.923 -1.0830  0.0107  0.6160
 1579TIP3   OH226295   3.593   5.729   1.025 -0.1302  0.1806 -0.1438
 1579TIP3    H126296   3.559   5.700   0.940 -1.2013 -0.2585  0.4146
 1579TIP3    H226297   3.535   5.800   1.052 -0.3656 -0.2894  0.6292
 1580TIP3   OH226298   5.699   5.476   6.964  0.2063  0.4156 -0.2818
 1580TIP3    H126299   5.751   5.524   7.028  0.0627  1.1154 -0.6822
 1580TIP3    H226300   5.698   5.386   6.997  2.0721  0.2702 -0.5058
 1581TIP3   OH226301   5.948   5.958   0.912 -0.1446  0.2920 -0.5563
 1581TIP3    H126302   5.953   6.051   0.891 -2.7877  0.5087 -0.5359
 1581TIP3    H226303   5.885   5.953   0.984 -0.2191 -1.5395 -0.7076
 1582TIP3   OH226304   6.983   5.015   8.334  0.3145 -0.3364  0.2546
 1582TIP3    H126305   6.917   5.067   8.288 -0.1661 -1.5558 -0.5122
 1582TIP3    H226306   7.061   5.071   8.337 -1.2374  1.8806  2.8575
 1583TIP3   OH226307   5.188   2.791   0.226  0.5623 -0.3043 -0.3460
 1583TIP3    H126308   5.191   2.726   0.156  0.9402  0.0312 -0.6485
 1583TIP3    H226309   5.142   2.747   0.298  0.4267 -0.7504 -0.7011
 1584TIP3   OH226310   5.561   1.804   7.977  0.1321  0.4176  0.0888
 1584TIP3    H126311   5.512   1.886   7.983  1.1160  0.9848  0.6317
 1584TIP3    H226312   5.497   1.741   7.944 -1.0514  1.0516  1.0417
 1585TIP3   OH226313   1.617   5.290   1.854  0.5868 -0.2288  0.2065
 1585TIP3    H126314   1.693   5.255   1.807 -0.0253  0.5876 -1.4441
 1585TIP3    H226315   1.556   5.216   1.860  1.5355 -0.9471  1.7148
 1586TIP3   OH226316   5.942   6.813   7.350  0.1498  0.2607 -0.5321
 1586TIP3    H126317   5.856   6.779   7.373  0.2086  0.0836 -0.5788
 1586TIP3    H226318   5.986   6.741   7.304  1.5206 -0.7761  2.2155
 1587TIP3   OH226319   4.963   4.471   1.531 -0.5105  0.0800  0.0524
 1587TIP3    H126320   4.928   4.392   1.573  0.3579  0.6012  1.8503
 1587TIP3    H226321   5.048   4.486   1.573  0.3189  0.7889 -1.7732
 1588TIP3   OH226322   3.429   5.447   0.912 -0.1340  0.2628  0.3234
 1588TIP3    H126323   3.468   5.517   0.860 -0.6887  0.4137  0.0952
 1588TIP3    H226324   3.503   5.399   0.948  0.2683  1.3630  1.0186
 1589TIP3   OH226325   2.846   0.441   8.023  0.3033 -0.3509  0.5148
 1589TIP3    H126326   2.785   0.502   8.064  0.4905  0.7539 -0.7991
 1589TIP3    H226327   2.914   0.496   7.986  1.6537 -1.5119  1.1829
 1590TIP3   OH226328   2.432   3.834   7.391  0.0672  0.8047 -0.4981
 1590TIP3    H126329   2.387   3.785   7.322 -0.1792 -0.2592  0.3898
 1590TIP3    H226330   2.408   3.925   7.375 -0.0985  0.5612 -1.7230
 1591TIP3   OH226331   5.472   6.287   0.207 -0.2688  0.2029  0.1920
 1591TIP3    H126332   5.485   6.373   0.246  1.2144  0.2782 -0.4009
 1591TIP3    H226333   5.381   6.287   0.178 -0.8864  0.7874  1.9991
 1592TIP3   OH226334   2.669   0.698   7.515  0.1214 -0.3922 -0.0428
 1592TIP3    H126335   2.636   0.675   7.602  1.6569 -0.8170  0.4602
 1592TIP3    H226336   2.701   0.615   7.479  2.5265  0.2764  0.3659
 1593TIP3   OH226337   5.602   6.542   1.206 -0.2728 -0.2502  0.1751
 1593TIP3    H126338   5.591   6.456   1.167  0.3001  0.4652 -1.6876
 1593TIP3    H226339   5.690   6.540   1.245  0.4546 -0.0204 -1.3541
 1594TIP3   OH226340   1.118   0.386   1.833  0.8022  0.1887 -0.1643
 1594TIP3    H126341   1.149   0.476   1.832  0.7528  0.2095 -1.0099
 1594TIP3    H226342   1.068   0.378   1.914 -0.7074  1.4647 -0.8985
 1595TIP3   OH226343   2.694   1.444   7.555  0.1301  0.1957  0.1159
 1595TIP3    H126344   2.786   1.463   7.575  0.0330  1.9719 -0.9320
 1595TIP3    H226345   2.655   1.529   7.537 -1.6263 -0.5715  0.0558
 1596TIP3   OH226346   5.720   1.879   0.190 -0.6462 -0.0784 -0.3653
 1596TIP3    H126347   5.717   1.801   0.135  0.3288 -1.4771  1.4305
 1596TIP3    H226348   5.805   1.919   0.171  0.2393 -1.2523  0.9264
 1597TIP3   OH226349   1.439   6.955   0.193 -0.7102 -0.5859 -0.0989
 1597TIP3    H126350   1.507   6.888   0.198  0.0712  0.0054 -2.0033
 1597TIP3    H226351   1.475   7.030   0.240  0.3540 -0.0035 -1.7549
 1598TIP3   OH226352   1.160   2.007   6.654 -0.4484 -0.3612 -0.1473
 1598TIP3    H126353   1.240   1.956   6.670  0.2453  0.8231  0.3481
 1598TIP3    H226354   1.133   1.982   6.566  0.1977 -1.1376 -0.1447
 1599TIP3   OH226355   0.296   6.951   0.822 -0.2914  0.2238 -0.4786
 1599TIP3    H126356   0.215   6.922   0.862  1.0071 -0.0103  2.1849
 1599TIP3    H226357   0.348   6.871   0.811  1.2808  0.7708  2.1086
 1600TIP3   OH226358   6.291   6.061   0.499  0.8939 -0.0924 -0.4008
 1600TIP3    H126359   6.364   6.120   0.480  2.7713 -2.0177  0.3282
 1600TIP3    H226360   6.285   6.060   0.594 -0.6962  0.6803 -0.4712
 1601TIP3   OH226361   5.424   4.248   1.955 -0.3131 -0.5499 -0.2919
 1601TIP3    H126362   5.430   4.317   2.021  1.9157  0.1190 -1.1005
 1601TIP3    H226363   5.371   4.286   1.885  1.8635  0.9170 -1.2666
 1602TIP3   OH226364   1.201   6.429   1.382 -0.1101 -0.0120  0.4688
 1602TIP3    H126365   1.147   6.430   1.303 -1.5922 -3.4898  1.2452
 1602TIP3    H226366   1.139   6.431   1.454  0.8464 -1.6521  1.4115
 1603TIP3   OH226367   6.533   6.917   1.791 -0.1875 -0.1583 -0.2293
 1603TIP3    H126368   6.526   7.005   1.754  0.3753 -0.3331 -0.7626
 1603TIP3    H226369   6.451   6.874   1.766 -1.6908  1.0029  2.2562
 1604TIP3   OH226370   6.443   5.662   0.863 -0.0771  0.3433 -0.3711
 1604TIP3    H126371   6.415   5.655   0.772 -0.2719 -0.2883 -0.2651
 1604TIP3    H226372   6.366   5.694   0.910  0.0197  0.6576 -0.4263
 1605TIP3   OH226373   2.281   0.652   0.813  0.4412  0.6220  0.6755
 1605TIP3    H126374   2.193   0.682   0.793  0.3145  1.3271  2.1308
 1605TIP3    H226375   2.279   0.558   0.797 -0.2083  0.8278 -0.4909
 1606TIP3   OH226376   1.153   4.096   0.566 -0.4245 -0.2008  0.0588
 1606TIP3    H126377   1.097   4.072   0.493  0.3186 -0.4830 -0.4309
 1606TIP3    H226378   1.201   4.016   0.588 -0.5478 -0.0900  0.7785
 1607TIP3   OH226379   5.727   1.842   8.189 -0.2942 -0.1087 -0.0806
 1607TIP3    H126380   5.753   1.934   8.185  1.1689 -0.4673  0.5196
 1607TIP3    H226381   5.670   1.830   8.113  1.6727  0.6436 -1.7582
 1608TIP3   OH226382   0.973   5.342   7.554  0.3234 -0.2944  0.3448
 1608TIP3    H126383   1.032   5.281   7.598  0.1126 -0.9876 -0.3218
 1608TIP3    H226384   0.905   5.361   7.619  1.1032  0.2835  1.0141
 1609TIP3   OH226385   3.701   4.810   1.628  0.0882 -0.7280  0.1038
 1609TIP3    H126386   3.744   4.833   1.546 -0.9988  1.1236 -0.0212
 1609TIP3    H226387   3.737   4.871   1.692 -0.4623 -0.8799  0.5680
 1610TIP3   OH226388   2.099   6.269   7.336  0.6259 -0.4415 -1.1222
 1610TIP3    H126389   2.089   6.186   7.290 -0.5065 -1.4102  0.7450
 1610TIP3    H226390   2.191   6.270   7.363  0.1371 -2.3652  0.9650
 1611TIP3   OH226391   4.086   4.870   1.249  0.4542 -0.3747 -0.2575
 1611TIP3    H126392   4.063   4.815   1.324 -0.1765 -0.2462 -0.3473
 1611TIP3    H226393   4.067   4.815   1.173 -1.4622  0.3953 -0.3915
 1612TIP3   OH226394   0.817   2.153   7.785  0.5941  0.1375  0.9020
 1612TIP3    H126395   0.857   2.146   7.872  1.3436 -0.1859  0.5416
 1612TIP3    H226396   0.750   2.220   7.795  1.3147  0.7929  1.4932
 1613TIP3   OH226397   4.223   4.749   6.178  0.1109 -0.1251 -0.3603
 1613TIP3    H126398   4.251   4.716   6.264 -2.1260 -0.8193  0.1854
 1613TIP3    H226399   4.176   4.830   6.198  0.0104 -0.0229 -0.9923
 1614TIP3   OH226400   0.212   6.292   7.285  0.7327  0.0338  0.1684
 1614TIP3    H126401   0.233   6.382   7.310 -1.4968  0.5625  0.3546
 1614TIP3    H226402   0.136   6.300   7.228 -0.5130 -1.7918  1.4562
 1615TIP3   OH226403   5.161   1.304   6.836 -0.2755 -0.0822 -0.8119
 1615TIP3    H126404   5.145   1.234   6.899  0.8282  0.3989  0.0255
 1615TIP3    H226405   5.078   1.352   6.832 -0.1176  0.3914  0.9380
 1616TIP3   OH226406   0.759   2.869   7.934 -0.7507 -0.0441  0.4096
 1616TIP3    H126407   0.817   2.827   7.871 -0.5901  1.0039 -0.1453
 1616TIP3    H226408   0.674   2.871   7.891 -1.0058 -0.7648  0.8664
 1617TIP3   OH226409   4.551   1.198   1.011 -1.0435 -0.2152 -0.6933
 1617TIP3    H126410   4.542   1.199   0.915  0.6830 -1.4421 -0.9270
 1617TIP3    H226411   4.610   1.124   1.028 -0.7647  0.4133  1.2717
 1618TIP3   OH226412   0.732   5.090   5.825  0.6021 -0.1199  0.4181
 1618TIP3    H126413   0.720   5.103   5.731  2.3501 -0.0200  0.1687
 1618TIP3    H226414   0.723   4.996   5.838 -0.9176 -0.0011  0.3856
 1619TIP3   OH226415   6.947   6.876   1.948  1.1579 -0.3113  0.2463
 1619TIP3    H126416   6.877   6.917   1.998  0.1487 -1.6635 -0.0059
 1619TIP3    H226417   6.971   6.798   1.999  0.1301 -1.6960 -1.2638
 1620TIP3   OH226418   0.265   1.712   7.277  0.0363  0.2339  0.2485
 1620TIP3    H126419   0.326   1.781   7.304  0.5971 -0.1780  0.0598
 1620TIP3    H226420   0.203   1.704   7.349 -0.2130  1.1402  0.1435
 1621TIP3   OH226421   2.812   0.037   5.775 -0.0417  1.0437 -0.3021
 1621TIP3    H126422   2.899   0.026   5.737 -0.1505  0.2560 -0.3314
 1621TIP3    H226423   2.826   0.094   5.851  0.5475  0.6680 -0.1215
 1622TIP3   OH226424   1.700   4.064   7.561 -0.1024 -0.2495 -0.4439
 1622TIP3    H126425   1.749   4.134   7.603 -1.8170  0.8179 -0.1401
 1622TIP3    H226426   1.726   3.985   7.608  1.4027  0.2465 -0.3905
 1623TIP3   OH226427   0.328   0.091   6.885 -0.7193  0.3792  0.2408
 1623TIP3    H126428   0.273   0.142   6.944 -4.0365 -1.8139 -0.6789
 1623TIP3    H226429   0.357   0.016   6.938 -3.0672 -1.1873 -0.5471
 1624TIP3   OH226430   6.823   3.887   7.416 -0.2837 -0.1541 -0.0804
 1624TIP3    H126431   6.912   3.854   7.420  0.0552  0.8286  1.9629
 1624TIP3    H226432   6.813   3.920   7.327  1.1025 -0.9980 -0.5741
 1625TIP3   OH226433   2.279   6.958   1.783  0.2477 -0.3033  0.5810
 1625TIP3    H126434   2.261   6.895   1.713  2.5440  1.3177 -1.6776
 1625TIP3    H226435   2.193   6.983   1.817 -0.8131 -3.0498  0.1444
 1626TIP3   OH226436   3.781   2.982   6.815 -0.0826 -0.8043 -0.5893
 1626TIP3    H126437   3.835   3.051   6.777  1.9606 -0.8286  2.0234
 1626TIP3    H226438   3.767   2.921   6.743 -0.2149  1.2487 -2.4342
 1627TIP3   OH226439   1.725   3.433   6.896 -0.5684 -0.2497  0.5628
 1627TIP3    H126440   1.694   3.508   6.946 -2.0304  0.3723 -1.1564
 1627TIP3    H226441   1.790   3.469   6.836  1.2421 -1.0006  1.9914
 1628TIP3   OH226442   3.765   5.927   0.896 -0.0054 -0.1623  0.0692
 1628TIP3    H126443   3.692   5.878   0.934 -0.1453 -0.1854 -0.2243
 1628TIP3    H226444   3.760   6.014   0.936  1.7383 -1.0872  2.5150
 1629TIP3   OH226445   2.339   0.708   7.479 -0.8239 -0.1612  0.2099
 1629TIP3    H126446   2.401   0.780   7.480  2.4530 -2.7496  0.9892
 1629TIP3    H226447   2.262   0.742   7.525 -0.3515  3.3978 -1.2914
 1630TIP3   OH226448   2.890   6.128   5.673 -0.0745  0.6944  0.2520
 1630TIP3    H126449   2.888   6.039   5.637  0.2423  1.5669 -2.0793
 1630TIP3    H226450   2.866   6.117   5.765  0.5142 -1.8563  0.1704
 1631TIP3   OH226451   2.231   0.285   7.229  0.0200 -0.1162 -0.2954
 1631TIP3    H126452   2.268   0.366   7.264 -0.6393  0.5688 -1.1231
 1631TIP3    H226453   2.194   0.311   7.144  2.7233 -1.9682 -2.1769
 1632TIP3   OH226454   0.105   5.948   0.438  0.0247 -0.2570 -0.1083
 1632TIP3    H126455   0.136   5.858   0.437  0.7633 -0.0574  1.8682
 1632TIP3    H226456   0.157   5.992   0.370  0.3134 -1.1012 -0.4416
 1633TIP3   OH226457   6.486   2.553   7.292 -0.3592 -0.9000  0.0619
 1633TIP3    H126458   6.558   2.589   7.344  0.2127  0.2739 -1.4591
 1633TIP3    H226459   6.516   2.465   7.267  0.2334 -0.6921  0.0341
 1634TIP3   OH226460   1.884   6.641   6.400 -0.6573  0.4168  0.6453
 1634TIP3    H126461   1.925   6.602   6.477  0.2755 -0.4500 -0.2593
 1634TIP3    H226462   1.894   6.736   6.414 -0.7366  0.2870  1.6956
 1635TIP3   OH226463   1.587   0.337   7.217  0.5161 -0.8947 -0.1688
 1635TIP3    H126464   1.657   0.328   7.282 -0.0525 -2.1793  0.3073
 1635TIP3    H226465   1.551   0.425   7.233  2.4669  0.0951 -0.9348
 1636TIP3   OH226466   5.534   0.019   0.440  0.2242  0.7057 -0.4065
 1636TIP3    H126467   5.583   0.016   0.522  0.6888 -0.5471 -0.7038
 1636TIP3    H226468   5.442   0.019   0.467  0.3719  0.1131  0.1158
 1637TIP3   OH226469   4.821   2.351   7.034  0.1451  0.2527  0.2885
 1637TIP3    H126470   4.779   2.401   7.104  1.2453  0.0068  1.1584
 1637TIP3    H226471   4.803   2.260   7.056 -0.9590  0.2081 -0.7148
 1638TIP3   OH226472   1.356   0.833   7.871  0.2244 -0.3269 -0.1058
 1638TIP3    H126473   1.274   0.794   7.901 -0.1885  1.1177  0.7744
 1638TIP3    H226474   1.422   0.799   7.931  0.0382 -0.4777  0.0139
 1639TIP3   OH226475   2.692   1.105   2.019  0.4660  0.1135 -0.3407
 1639TIP3    H126476   2.641   1.103   2.100  0.3079  0.7368 -0.4248
 1639TIP3    H226477   2.727   1.194   2.014  0.4455  0.0913 -0.9766
 1640TIP3   OH226478   3.655   3.652   6.013  0.2586 -0.1997 -0.1196
 1640TIP3    H126479   3.713   3.677   6.086  0.3321 -1.3920  0.2423
 1640TIP3    H226480   3.695   3.573   5.978 -0.5671 -0.4178 -0.5660
 1641TIP3   OH226481   1.754   4.564   0.255  0.2271  0.5060  0.3726
 1641TIP3    H126482   1.726   4.604   0.337  1.1961 -0.3667  1.1489
 1641TIP3    H226483   1.810   4.491   0.281 -0.8283 -0.8630 -1.0290
 1642TIP3   OH226484   6.723   4.318   8.304 -0.5487  0.2728  0.3693
 1642TIP3    H126485   6.758   4.404   8.281 -0.3288  0.0769 -0.0351
 1642TIP3    H226486   6.767   4.296   8.387 -0.1707  0.3010  0.1795
 1643TIP3   OH226487   5.115   1.723   7.871  0.3264  0.1744  0.2719
 1643TIP3    H126488   5.086   1.644   7.825  1.2672 -1.0786  1.6933
 1643TIP3    H226489   5.158   1.776   7.804 -2.0544  0.4716 -1.1422
 1644TIP3   OH226490   1.858   5.311   0.972  0.4199 -0.2814  0.6633
 1644TIP3    H126491   1.905   5.338   1.051 -0.9349  0.5494  1.2306
 1644TIP3    H226492   1.849   5.391   0.921  1.0182 -0.7554 -0.2136
 1645TIP3   OH226493   3.494   2.700   8.168  0.0393 -0.5262 -0.0869
 1645TIP3    H126494   3.487   2.644   8.090  1.3121  0.1883 -0.7482
 1645TIP3    H226495   3.511   2.787   8.132  0.6565 -0.1899  0.9965
 1646TIP3   OH226496   6.333   5.911   2.431  0.0036  0.6966 -0.1769
 1646TIP3    H126497   6.375   5.893   2.347  3.4222  2.2424  1.0238
 1646TIP3    H226498   6.301   6.000   2.423  0.6780  0.9856  0.2355
 1647TIP3   OH226499   0.376   3.141   1.641 -0.0909 -0.2144  0.3025
 1647TIP3    H126500   0.335   3.218   1.679  0.5743  0.1891  0.2309
 1647TIP3    H226501   0.435   3.110   1.710  0.0799 -0.3041  0.1165
 1648TIP3   OH226502   3.282   6.674   7.942 -0.0151 -0.8129 -0.0333
 1648TIP3    H126503   3.373   6.647   7.929  0.3230  0.6226 -0.7920
 1648TIP3    H226504   3.245   6.676   7.854 -0.6007 -0.7474  0.2072
 1649TIP3   OH226505   4.666   1.590   8.355  0.3434  0.0695 -0.0188
 1649TIP3    H126506   4.579   1.595   8.315 -0.0875  3.3424  1.0019
 1649TIP3    H226507   4.718   1.655   8.308  1.7182 -0.5531  0.5718
 1650TIP3   OH226508   1.775   4.926   8.054  0.5440  0.3826 -0.2185
 1650TIP3    H126509   1.807   4.903   8.141  0.2122  0.5574 -0.0486
 1650TIP3    H226510   1.681   4.909   8.057  0.3672  1.2813 -0.2345
 1651TIP3   OH226511   0.314   2.322   1.270 -0.1294 -0.2566  0.2098
 1651TIP3    H126512   0.272   2.383   1.330  2.3722  0.1571  1.6693
 1651TIP3    H226513   0.346   2.251   1.326  3.3629  0.7363 -0.2974
 1652TIP3   OH226514   3.830   5.697   0.723 -0.5275 -0.3216 -0.0001
 1652TIP3    H126515   3.800   5.770   0.776 -0.1945 -1.6446  2.1349
 1652TIP3    H226516   3.925   5.695   0.735 -0.6020 -1.5021  0.5533
 1653TIP3   OH226517   1.407   6.520   2.234  0.9116  0.5093 -0.2295
 1653TIP3    H126518   1.342   6.450   2.240  2.0496 -0.6449 -0.8572
 1653TIP3    H226519   1.398   6.569   2.316 -0.3970  0.0705 -0.0988
 1654TIP3   OH226520   3.173   5.775   1.906 -0.4614  0.1237 -0.3713
 1654TIP3    H126521   3.087   5.808   1.881 -1.1145  0.5327  2.2061
 1654TIP3    H226522   3.181   5.794   1.999  1.0846 -2.8247  0.2326
 1655TIP3   OH226523   3.007   4.686   0.524  0.1310 -0.7452  0.7350
 1655TIP3    H126524   2.969   4.753   0.580  0.1615 -0.7683  0.7829
 1655TIP3    H226525   3.089   4.661   0.568  0.6655 -0.0406  0.1760
 1656TIP3   OH226526   4.829   3.081   0.234 -0.2705 -0.4586 -0.4220
 1656TIP3    H126527   4.895   3.135   0.278 -2.5684  0.4502  2.2109
 1656TIP3    H226528   4.794   3.137   0.165 -0.0501  0.0081 -0.1580
 1657TIP3   OH226529   4.716   4.721   1.255  0.0286 -0.4539  0.5329
 1657TIP3    H126530   4.660   4.656   1.296 -0.9100  0.0327  0.0800
 1657TIP3    H226531   4.805   4.688   1.267 -0.3762 -1.4462  0.9298
 1658TIP3   OH226532   4.436   2.645   1.949  0.0832  0.5535  0.3227
 1658TIP3    H126533   4.374   2.573   1.957  1.4700 -0.7256  0.0476
 1658TIP3    H226534   4.390   2.712   1.898  0.0879 -1.8002 -3.0861
 1659TIP3   OH226535   3.011   6.571   7.222  0.1793 -0.0078 -0.1217
 1659TIP3    H126536   3.071   6.599   7.291 -0.9430 -0.0127  0.8888
 1659TIP3    H226537   3.057   6.500   7.178  0.1897 -1.3126  1.8380
 1660TIP3   OH226538   2.810   1.485   7.085  0.0516  0.0579  0.5147
 1660TIP3    H126539   2.794   1.523   7.171  0.7055  1.0862  0.2051
 1660TIP3    H226540   2.807   1.560   7.025  1.5887 -0.3123 -0.0820
 1661TIP3   OH226541   4.594   2.697   8.249 -0.5249  0.7054 -0.0364
 1661TIP3    H126542   4.609   2.636   8.176  0.5442  0.6428  0.2274
 1661TIP3    H226543   4.519   2.660   8.296 -0.0158 -0.2996  0.0003
 1662TIP3   OH226544   2.471   6.840   7.258 -0.3263 -0.2146 -0.6323
 1662TIP3    H126545   2.540   6.838   7.323 -1.1626 -0.0371  0.2841
 1662TIP3    H226546   2.416   6.914   7.283 -1.4128 -0.9574 -0.7449
 1663TIP3   OH226547   4.485   3.103   8.167  0.3351  0.8161 -0.4889
 1663TIP3    H126548   4.404   3.151   8.149 -0.4412  1.1530  3.1343
 1663TIP3    H226549   4.456   3.013   8.184  0.5268  1.1097  1.6408
 1664TIP3   OH226550   3.455   0.055   7.289 -0.1542 -0.2925  0.1327
 1664TIP3    H126551   3.512   0.044   7.365  0.6732  1.2193 -0.2277
 1664TIP3    H226552   3.505   0.110   7.229 -0.5131 -1.9384 -1.8133
 1665TIP3   OH226553   6.414   2.825   1.461  0.0501 -0.0566 -0.3613
 1665TIP3    H126554   6.342   2.765   1.479 -0.6164  0.7013 -0.4838
 1665TIP3    H226555   6.491   2.782   1.499 -0.4056 -1.0066 -0.4803
 1666TIP3   OH226556   4.733   5.719   1.268 -0.4365  0.3692 -0.9321
 1666TIP3    H126557   4.681   5.754   1.340 -0.5056 -0.5299 -0.5395
 1666TIP3    H226558   4.794   5.658   1.309  0.7133  1.1401 -1.4300
 1667TIP3   OH226559   5.491   2.790   1.047  0.3407 -0.6376 -0.2330
 1667TIP3    H126560   5.453   2.752   1.126  0.8758  2.7699  1.8835
 1667TIP3    H226561   5.417   2.832   1.003  0.5900  0.8035  0.6449
 1668TIP3   OH226562   1.714   5.870   0.563 -0.3477  0.1540  0.2375
 1668TIP3    H126563   1.792   5.838   0.518 -1.4473 -0.3748 -1.3786
 1668TIP3    H226564   1.712   5.820   0.645  2.0374  1.5926  1.2953
 1669TIP3   OH226565   2.336   0.588   1.948 -0.3586  0.0991  0.0941
 1669TIP3    H126566   2.321   0.661   2.008 -0.0763 -0.0067  0.2959
 1669TIP3    H226567   2.297   0.513   1.991 -2.4032  0.4641 -0.9889
 1670TIP3   OH226568   0.473   5.813   6.944 -0.4334  0.5781 -0.5760
 1670TIP3    H126569   0.533   5.817   7.019 -0.7904  2.0274 -0.3367
 1670TIP3    H226570   0.479   5.723   6.913  1.9555  0.7051 -0.6503
 1671TIP3   OH226571   1.392   2.598   0.025 -0.6310 -0.0881  0.1621
 1671TIP3    H126572   1.404   2.687  -0.008 -0.1915 -0.2667 -0.1659
 1671TIP3    H226573   1.327   2.559  -0.034 -3.5140  1.0813  2.3076
 1672TIP3   OH226574   1.908   1.763   7.067  0.2167  0.3126  0.1320
 1672TIP3    H126575   1.877   1.675   7.088 -0.3242  0.3237 -0.5791
 1672TIP3    H226576   1.835   1.803   7.021  0.8786  0.7423 -0.5607
 1673TIP3   OH226577   5.012   4.119   7.435  0.1596 -0.0789 -0.0295
 1673TIP3    H126578   4.934   4.065   7.424  0.1560 -0.4552  1.6747
 1673TIP3    H226579   5.059   4.080   7.508  2.3868 -0.3460 -1.4882
 1674TIP3   OH226580   4.469   1.583   6.944  0.2948  0.0632  0.7389
 1674TIP3    H126581   4.531   1.539   7.002  0.5935  1.1726  1.2690
 1674TIP3    H226582   4.385   1.577   6.989  0.4436  0.5434  1.0762
 1675TIP3   OH226583   4.875   6.487   0.740  0.2349  0.2110 -0.4720
 1675TIP3    H126584   4.846   6.426   0.672 -0.5682 -1.4303  1.2172
 1675TIP3    H226585   4.795   6.533   0.766  0.5108  0.7363 -0.5378
 1676TIP3   OH226586   1.719   1.903   6.929  0.4620  0.3766 -0.2511
 1676TIP3    H126587   1.772   1.979   6.907  2.8200 -1.5381 -1.5917
 1676TIP3    H226588   1.670   1.884   6.849  1.4627 -0.7018 -0.6263
 1677TIP3   OH226589   5.884   2.411   7.516  0.0391 -0.2105 -0.7906
 1677TIP3    H126590   5.864   2.354   7.441  0.4184 -1.2574 -0.1165
 1677TIP3    H226591   5.823   2.382   7.584  1.3963 -1.0212  0.1204
 1678TIP3   OH226592   0.701   3.750   0.072  0.8693 -0.2642  0.2503
 1678TIP3    H126593   0.724   3.759   0.165  2.3522  1.1882 -0.2149
 1678TIP3    H226594   0.706   3.656   0.055 -1.3950 -0.8181  2.0721
 1679TIP3   OH226595   6.690   0.178   6.795  0.4399  0.1104 -0.1137
 1679TIP3    H126596   6.661   0.094   6.759  0.3595 -0.2546  0.7912
 1679TIP3    H226597   6.610   0.229   6.803  0.4170  0.0791 -0.1393
 1680TIP3   OH226598   3.793   3.905   0.972 -0.5738 -0.5181  0.2811
 1680TIP3    H126599   3.871   3.848   0.975 -1.0106 -1.1231  0.4523
 1680TIP3    H226600   3.802   3.962   1.049  0.8286  0.9672 -0.9109
 1681TIP3   OH226601   5.418   2.496   7.420  0.0381  0.4437 -0.2411
 1681TIP3    H126602   5.353   2.461   7.481  0.8419  0.5516  0.7121
 1681TIP3    H226603   5.472   2.421   7.396 -1.6527 -0.1109 -2.7174
 1682TIP3   OH226604   0.371   4.968   7.813 -0.1345 -0.2258  0.3166
 1682TIP3    H126605   0.321   5.008   7.883 -1.9225  0.4244 -1.2505
 1682TIP3    H226606   0.455   5.014   7.814 -0.6894  0.8042  1.0639
 1683TIP3   OH226607   0.078   5.137   6.960  0.1407 -0.2598 -0.0788
 1683TIP3    H126608   0.107   5.225   6.939  0.3048 -0.2561  0.1722
 1683TIP3    H226609   0.046   5.142   7.049  1.0975 -0.6796  0.3022
 1684TIP3   OH226610   1.026   5.596   0.757  0.0661  0.4473 -0.0203
 1684TIP3    H126611   1.115   5.573   0.780 -0.4187 -1.0741  0.4537
 1684TIP3    H226612   1.026   5.692   0.749  1.2405  0.6528  2.0572
 1685TIP3   OH226613   6.662   0.708   7.023  0.1502  0.2925  0.7285
 1685TIP3    H126614   6.651   0.781   7.084 -0.0633 -1.0502  2.3772
 1685TIP3    H226615   6.751   0.676   7.039 -0.0730 -0.3698  0.6709
 1686TIP3   OH226616   6.229   4.060   0.018 -0.4587  0.3108  0.2385
 1686TIP3    H126617   6.214   4.154   0.012 -1.6379  0.0158 -2.3116
 1686TIP3    H226618   6.322   4.049  -0.002 -0.0781  0.9497  1.5101
 1687TIP3   OH226619   6.069   5.242   6.000 -0.0771 -0.3476  0.7003
 1687TIP3    H126620   6.029   5.316   6.047  0.4193  0.1381  0.3809
 1687TIP3    H226621   6.124   5.199   6.067  0.9136  0.5599  0.5060
 1688TIP3   OH226622   3.674   2.590   1.541 -0.0868 -0.7722 -0.2383
 1688TIP3    H126623   3.610   2.651   1.577  1.4972  0.3767  0.7678
 1688TIP3    H226624   3.703   2.631   1.459 -0.0867 -0.9221 -0.3143
 1689TIP3   OH226625   4.048   4.687   1.460 -0.0980 -0.2931 -0.1635
 1689TIP3    H126626   4.066   4.623   1.529  0.3784  0.8984  0.8680
 1689TIP3    H226627   3.960   4.665   1.429  0.2722 -1.7772 -0.2387
 1690TIP3   OH226628   6.728   3.760   6.685 -0.1439 -0.4363 -0.0272
 1690TIP3    H126629   6.669   3.819   6.731  1.7525  1.8710 -0.3730
 1690TIP3    H226630   6.775   3.816   6.623  0.3772 -2.6809 -1.8245
 1691TIP3   OH226631   5.927   3.156   7.850  0.1487 -0.2686  0.2293
 1691TIP3    H126632   6.008   3.107   7.834  0.1297 -0.1028 -0.4018
 1691TIP3    H226633   5.955   3.232   7.901  0.2732 -0.6155  0.6772
 1692TIP3   OH226634   0.701   1.184   6.189 -0.4761  0.1006  0.1658
 1692TIP3    H126635   0.729   1.116   6.251 -0.0466  0.5415  0.4655
 1692TIP3    H226636   0.761   1.257   6.206  0.2227 -0.0750 -1.3552
 1693TIP3   OH226637   0.892   1.376   6.211  0.1853 -0.1152 -0.3854
 1693TIP3    H126638   0.985   1.380   6.233 -0.1031 -0.0635  0.9095
 1693TIP3    H226639   0.859   1.465   6.230 -0.3637 -0.4674  0.4055
 1694TIP3   OH226640   5.300   1.057   7.896 -0.0091 -0.1991  0.0682
 1694TIP3    H126641   5.348   1.041   7.977  0.2642 -0.2075 -0.0938
 1694TIP3    H226642   5.313   0.978   7.844 -0.5888 -0.3926  0.2140
 1695TIP3   OH226643   5.190   4.137   7.233 -0.0234  0.2474  0.0919
 1695TIP3    H126644   5.129   4.133   7.307  0.4649 -0.2411  0.4755
 1695TIP3    H226645   5.174   4.223   7.193  0.9827  1.3346  1.8871
 1696TIP3   OH226646   1.051   4.719   0.536 -0.0551 -0.3518  0.2726
 1696TIP3    H126647   1.110   4.648   0.513 -1.1427 -1.4783  0.7999
 1696TIP3    H226648   1.036   4.766   0.454  1.6298  0.0521  0.1548
 1697TIP3   OH226649   0.893   3.939   8.363 -0.0724 -0.2513 -0.2189
 1697TIP3    H126650   0.821   3.882   8.390 -0.9279  0.3814 -1.0681
 1697TIP3    H226651   0.855   3.994   8.294  1.1523  0.2969 -0.4841
 1698TIP3   OH226652   1.580   2.340   1.491  0.2011  0.2881 -0.3107
 1698TIP3    H126653   1.485   2.333   1.479  0.2379  0.6984 -0.8762
 1698TIP3    H226654   1.610   2.249   1.495 -0.0346  0.1285 -1.6552
 1699TIP3   OH226655   4.754   2.222   0.104 -0.6843 -0.0686  0.3490
 1699TIP3    H126656   4.737   2.143   0.154 -0.2841 -0.0290  0.5555
 1699TIP3    H226657   4.840   2.206   0.063  0.4427  1.1065  2.1274
 1700TIP3   OH226658   2.102   4.706   7.826  0.6187  0.3347 -0.6751
 1700TIP3    H126659   2.161   4.706   7.751  0.5098  2.2622 -0.8103
 1700TIP3    H226660   2.140   4.770   7.886  0.5442 -0.9572  0.8227
 1701TIP3   OH226661   2.606   0.327   7.896 -0.4281  0.0876  0.2794
 1701TIP3    H126662   2.657   0.304   7.818  0.1381  0.8621  0.4115
 1701TIP3    H226663   2.662   0.389   7.943 -1.3712  0.7158  0.5804
 1702TIP3   OH226664   5.430   6.357   7.751  0.3105 -0.2249 -0.5282
 1702TIP3    H126665   5.356   6.390   7.801  0.7380 -0.8173  0.5182
 1702TIP3    H226666   5.390   6.308   7.679 -0.3429 -1.7512  0.8298
 1703TIP3   OH226667   4.824   4.870   6.398  0.0044 -0.0369 -0.8755
 1703TIP3    H126668   4.905   4.912   6.428  1.7808 -4.0080  0.5123
 1703TIP3    H226669   4.849   4.827   6.316 -0.7200 -1.1096 -0.5490
 1704TIP3   OH226670   2.624   4.024   0.754 -0.1711 -1.2243 -0.1622
 1704TIP3    H126671   2.620   3.931   0.778  1.5433 -0.8084  2.0391
 1704TIP3    H226672   2.715   4.049   0.769 -0.6693  0.9108 -0.3740
 1705TIP3   OH226673   6.742   3.628   6.933  0.0060  0.6353 -0.2353
 1705TIP3    H126674   6.764   3.675   6.852  1.3103  0.3718 -0.0438
 1705TIP3    H226675   6.812   3.564   6.944 -2.1801 -2.0666 -0.9836
 1706TIP3   OH226676   1.065   2.913   6.872  0.0085 -0.7820 -0.5583
 1706TIP3    H126677   1.009   2.876   6.941 -0.4194  0.8649  0.0201
 1706TIP3    H226678   1.036   2.869   6.792 -0.6133 -1.5373  0.0688
 1707TIP3   OH226679   6.474   6.099   6.886 -0.2285  0.7911 -0.5484
 1707TIP3    H126680   6.473   6.016   6.934 -1.0963  0.3348 -1.3178
 1707TIP3    H226681   6.562   6.133   6.898  0.8364 -1.2834 -1.9628
 1708TIP3   OH226682   1.021   2.133   1.441 -0.4448 -0.2491 -0.1618
 1708TIP3    H126683   1.098   2.078   1.431 -0.7880 -0.5139 -1.5903
 1708TIP3    H226684   1.026   2.196   1.369 -0.9067  0.5659  0.4883
 1709TIP3   OH226685   0.061   2.666   7.254  0.1209 -0.2272  0.3780
 1709TIP3    H126686   0.054   2.704   7.167 -0.3244 -1.4828 -0.1631
 1709TIP3    H226687   0.015   2.582   7.247  1.7126 -1.2325  1.2942
 1710TIP3   OH226688   6.098   4.860   6.189 -0.0863  0.0969 -0.4182
 1710TIP3    H126689   6.031   4.884   6.125 -0.9099 -1.5971 -0.2500
 1710TIP3    H226690   6.049   4.822   6.262  0.9651  0.2826  0.4191
 1711TIP3   OH226691   6.764   6.189   7.355  0.4170  0.3099 -0.1469
 1711TIP3    H126692   6.825   6.184   7.281 -0.5073 -1.2458 -0.8713
 1711TIP3    H226693   6.679   6.166   7.317 -0.1458 -0.1422  1.3244
 1712TIP3   OH226694   4.764   5.264   6.597 -0.9988  0.7467 -0.1632
 1712TIP3    H126695   4.695   5.232   6.539 -1.0144  1.6127 -0.6409
 1712TIP3    H226696   4.717   5.294   6.675 -0.9663 -0.5399  0.3743
 1713TIP3   OH226697   5.062   4.716   8.245 -0.5294  0.1494 -0.5232
 1713TIP3    H126698   5.049   4.770   8.167 -0.0499 -1.2437 -1.6142
 1713TIP3    H226699   5.147   4.744   8.279 -0.5779  0.5149 -0.6908
 1714TIP3   OH226700   5.773   3.012   7.282  0.1306 -0.4055  0.4887
 1714TIP3    H126701   5.701   2.957   7.313 -0.4484  0.6982  1.1372
 1714TIP3    H226702   5.774   3.087   7.341  2.5506 -0.9187  1.2388
 1715TIP3   OH226703   6.750   0.405   0.399  0.2323 -0.1653 -0.0773
 1715TIP3    H126704   6.678   0.465   0.379 -0.6294 -0.4389  1.9083
 1715TIP3    H226705   6.774   0.426   0.489  0.4982 -2.1999  0.3728
 1716TIP3   OH226706   2.377   4.133   2.170 -0.2743  0.6600  0.1259
 1716TIP3    H126707   2.329   4.058   2.204  0.1746  1.3341  2.3807
 1716TIP3    H226708   2.444   4.095   2.113 -0.0618 -0.6618  1.2031
 1717TIP3   OH226709   5.370   4.131   8.219 -0.8109  0.0290  0.4829
 1717TIP3    H126710   5.362   4.096   8.308  0.1837 -2.7196 -0.3892
 1717TIP3    H226711   5.347   4.058   8.162 -0.1781  1.3128 -1.5443
 1718TIP3   OH226712   5.003   3.810   1.696  0.1683  0.0195  0.4986
 1718TIP3    H126713   5.051   3.805   1.779  1.1501  1.1723  0.0325
 1718TIP3    H226714   5.018   3.725   1.655 -0.4201 -0.6111  1.5275
 1719TIP3   OH226715   5.334   0.135   1.263  0.0532  0.3024 -0.0884
 1719TIP3    H126716   5.318   0.104   1.352  0.7854 -0.2475 -0.1390
 1719TIP3    H226717   5.409   0.084   1.233  0.9078  1.6779 -0.4022
 1720TIP3   OH226718   4.354   5.334   7.707  0.1905 -0.0189 -0.1136
 1720TIP3    H126719   4.367   5.247   7.743 -0.3373 -0.6253 -1.3406
 1720TIP3    H226720   4.291   5.375   7.766 -1.4198 -1.3407 -0.8482
 1721TIP3   OH226721   1.832   6.308   7.580 -0.5098 -0.3092 -0.2060
 1721TIP3    H126722   1.779   6.379   7.614 -0.4868 -0.5582  0.3700
 1721TIP3    H226723   1.912   6.350   7.548  0.4666 -0.2698  2.1199
 1722TIP3   OH226724   3.719   0.314   1.424  0.4271 -0.6831  0.4185
 1722TIP3    H126725   3.678   0.380   1.479 -2.0496 -1.7807  0.0529
 1722TIP3    H226726   3.696   0.231   1.465 -1.6803 -1.5586 -2.2207
 1723TIP3   OH226727   1.227   6.700   0.210  0.1809  0.0384  0.2333
 1723TIP3    H126728   1.238   6.773   0.150 -0.7295  0.4068  0.4895
 1723TIP3    H226729   1.135   6.706   0.237  0.0585 -1.2942  0.1400
 1724TIP3   OH226730   1.109   6.139   6.722  0.0019 -0.1218 -0.6669
 1724TIP3    H126731   1.119   6.050   6.755 -2.2692 -0.2930 -0.3086
 1724TIP3    H226732   1.188   6.153   6.669  0.1383 -2.5626 -1.2501
 1725TIP3   OH226733   0.734   0.089   6.347 -0.3876 -0.1861 -0.1915
 1725TIP3    H126734   0.787   0.167   6.367 -0.6946 -0.3952  1.5968
 1725TIP3    H226735   0.724   0.091   6.252  0.6227  1.3017 -0.3047
 1726TIP3   OH226736   5.072   6.701   0.814 -0.1058 -0.4330  0.4938
 1726TIP3    H126737   5.140   6.651   0.858 -1.3344 -2.2075  0.4922
 1726TIP3    H226738   5.003   6.637   0.795 -0.6661  0.7434 -1.8601
 1727TIP3   OH226739   5.962   4.156   8.070 -0.1402 -0.3258  0.7398
 1727TIP3    H126740   5.933   4.147   8.160  1.1225 -2.8208  0.9832
 1727TIP3    H226741   6.007   4.074   8.051  0.8878  0.7043 -1.7050
 1728TIP3   OH226742   1.761   6.485   0.176  1.2145 -0.5494 -0.0844
 1728TIP3    H126743   1.749   6.443   0.091  0.8515 -1.5100  0.4216
 1728TIP3    H226744   1.778   6.413   0.236  0.8290  0.0503  0.7712
 1729TIP3   OH226745   2.111   4.152   1.083  0.8877 -0.6683  0.1121
 1729TIP3    H126746   2.173   4.091   1.045  0.0599 -0.6895 -1.2730
 1729TIP3    H226747   2.156   4.236   1.083  2.1778 -1.2633  2.3839
 1730TIP3   OH226748   5.813   1.644   7.950  0.0498 -0.2577  0.0371
 1730TIP3    H126749   5.754   1.569   7.952  0.6850 -0.7885 -0.4445
 1730TIP3    H226750   5.758   1.718   7.928 -0.2022 -0.9901 -2.0008
 1731TIP3   OH226751   1.422   0.059   0.717 -0.3048 -0.1582 -0.1427
 1731TIP3    H126752   1.337   0.061   0.673  0.2757 -0.9781 -1.3604
 1731TIP3    H226753   1.482   0.100   0.654  0.4875 -1.0690  0.0040
 1732TIP3   OH226754   5.121   0.379   7.617 -0.6715  0.3845  0.5604
 1732TIP3    H126755   5.136   0.354   7.525  1.7368 -0.3798  1.0924
 1732TIP3    H226756   5.093   0.470   7.612 -4.3604 -0.6345 -1.1013
 1733TIP3   OH226757   2.422   4.037   0.376 -0.5774 -0.0675 -0.0231
 1733TIP3    H126758   2.374   3.955   0.360 -3.5407  1.6307 -0.5138
 1733TIP3    H226759   2.457   4.061   0.291  0.7857 -1.0494  0.2305
 1734TIP3   OH226760   1.562   5.350   0.052 -0.3574 -0.2247 -1.3036
 1734TIP3    H126761   1.562   5.393  -0.033 -1.3996 -0.6199 -1.5186
 1734TIP3    H226762   1.492   5.284   0.046  1.8975 -2.7560 -1.3759
 1735TIP3   OH226763   3.354   6.840   7.439  0.0920  0.2164  0.1478
 1735TIP3    H126764   3.388   6.923   7.404  1.5025 -0.2168  0.4313
 1735TIP3    H226765   3.266   6.834   7.402  0.7846  0.7304 -1.7661
 1736TIP3   OH226766   5.518   0.451   6.425 -0.3608  0.0731 -0.3482
 1736TIP3    H126767   5.612   0.460   6.411 -0.0582 -2.1016 -0.1274
 1736TIP3    H226768   5.480   0.459   6.337  0.3829 -2.0405 -0.9237
 1737TIP3   OH226769   2.108   3.358   2.049  0.6018  0.0442  0.5748
 1737TIP3    H126770   2.125   3.421   1.980  1.2361  0.0045  0.6868
 1737TIP3    H226771   2.017   3.372   2.073 -0.0398 -0.8441 -1.1861
 1738TIP3   OH226772   5.389   6.603   0.612  0.1658 -0.5712  0.3245
 1738TIP3    H126773   5.430   6.647   0.686 -0.7883  1.8301 -0.4756
 1738TIP3    H226774   5.451   6.613   0.540  0.2423 -1.1858  0.2977
 1739TIP3   OH226775   4.594   1.983   1.162 -0.0152  0.0491 -0.2084
 1739TIP3    H126776   4.506   2.014   1.184  0.5653  0.7746  1.2601
 1739TIP3    H226777   4.584   1.890   1.145 -0.9980  0.0433  0.3654
 1740TIP3   OH226778   3.988   6.815   1.151 -0.6653 -0.0801  0.0926
 1740TIP3    H126779   3.965   6.744   1.211 -0.5024  0.3114  0.6372
 1740TIP3    H226780   4.083   6.811   1.144 -0.8336 -1.5177 -1.9281
 1741TIP3   OH226781   3.599   1.310   7.894  0.4261  0.1380 -0.2324
 1741TIP3    H126782   3.639   1.396   7.908  0.7129  0.6656 -3.5259
 1741TIP3    H226783   3.659   1.248   7.935  1.3469  1.3502  0.2979
 1742TIP3   OH226784   2.482   4.461   0.461 -0.2667  0.8942  0.2775
 1742TIP3    H126785   2.388   4.453   0.445  0.0473 -0.9264 -0.9913
 1742TIP3    H226786   2.493   4.430   0.551 -0.8755  1.0403  0.4085
 1743TIP3   OH226787   4.067   0.211   6.747 -0.2423  0.1460  0.0057
 1743TIP3    H126788   4.153   0.230   6.784 -0.0230 -2.1189  0.7613
 1743TIP3    H226789   4.065   0.116   6.735 -1.4771  0.4118 -2.9538
 1744TIP3   OH226790   5.498   2.888   1.659  0.0713  0.2292  0.3633
 1744TIP3    H126791   5.481   2.939   1.580  0.1817  2.0776  1.4947
 1744TIP3    H226792   5.412   2.860   1.689 -0.0908  0.7709  0.3995
 1745TIP3   OH226793   5.182   4.532   1.154 -0.4416 -0.2992  0.2581
 1745TIP3    H126794   5.249   4.585   1.196 -2.0525  1.6496  0.5177
 1745TIP3    H226795   5.197   4.543   1.060  0.8571 -1.6236  0.2720
 1746TIP3   OH226796   5.912   4.816   6.401 -0.1919 -0.2701 -0.6937
 1746TIP3    H126797   5.864   4.734   6.388 -1.0226 -0.0302  0.5840
 1746TIP3    H226798   5.932   4.817   6.495 -1.3516  1.5835 -0.4180
 1747TIP3   OH226799   4.557   4.311   6.974 -0.4601 -0.0113  0.4221
 1747TIP3    H126800   4.580   4.285   7.063 -0.8453  1.3341  0.9388
 1747TIP3    H226801   4.527   4.230   6.932 -0.5270 -0.6137  1.5858
 1748TIP3   OH226802   0.729   2.996   0.476 -0.3240  0.6573  0.1512
 1748TIP3    H126803   0.661   3.061   0.456 -0.5589 -0.2416 -2.2764
 1748TIP3    H226804   0.805   3.049   0.498 -0.9195  1.7616 -0.2986
 1749TIP3   OH226805   0.421   2.102   1.829 -0.2178  0.2205  0.1867
 1749TIP3    H126806   0.383   2.046   1.897  0.9223 -1.8103 -0.7707
 1749TIP3    H226807   0.365   2.087   1.753  0.5825 -0.2918 -0.3104
 1750TIP3   OH226808   5.856   6.195   0.599  0.0182 -0.3218  0.5590
 1750TIP3    H126809   5.902   6.223   0.678  0.3386  1.3683 -0.1772
 1750TIP3    H226810   5.872   6.266   0.536 -0.8861 -1.2512 -0.7625
 1751TIP3   OH226811   1.998   4.459   0.996 -0.4026  0.4209 -0.2667
 1751TIP3    H126812   2.030   4.546   1.020 -0.5901  0.4859 -0.2480
 1751TIP3    H226813   2.048   4.398   1.049 -2.7970  0.6703  2.5331
 1752TIP3   OH226814   0.155   0.332   8.242  0.2761 -0.3451 -0.2456
 1752TIP3    H126815   0.165   0.329   8.147 -0.7952 -0.0546 -0.3858
 1752TIP3    H226816   0.091   0.263   8.261  1.0422 -0.9106  0.3625
 1753TIP3   OH226817   4.567   3.640   0.075  0.6383 -0.1639  0.6864
 1753TIP3    H126818   4.519   3.572   0.122 -0.3945  1.3085  1.8354
 1753TIP3    H226819   4.653   3.600   0.057 -0.1993 -2.0306  0.5858
 1754TIP3   OH226820   4.345   5.416   1.167  0.2701  0.0225 -0.3519
 1754TIP3    H126821   4.271   5.469   1.195  1.7087  1.6189  0.6361
 1754TIP3    H226822   4.338   5.335   1.217 -1.8314 -0.6946 -1.7006
 1755TIP3   OH226823   5.317   2.564   0.549  0.0614  0.2526 -0.0563
 1755TIP3    H126824   5.388   2.628   0.541 -1.3146  1.6806 -1.8905
 1755TIP3    H226825   5.253   2.606   0.606  0.4508 -0.8217  1.2056
 1756TIP3   OH226826   5.085   1.731   0.460  0.3334 -0.3317  0.5177
 1756TIP3    H126827   4.997   1.737   0.423  0.5690 -0.9922 -0.1667
 1756TIP3    H226828   5.071   1.712   0.553 -0.2378 -1.5146  0.1958
 1757TIP3   OH226829   1.073   0.611   0.887 -0.3854 -0.1472  0.5475
 1757TIP3    H126830   1.124   0.565   0.822 -1.2137 -0.4355  0.0873
 1757TIP3    H226831   0.999   0.553   0.906 -1.6073  1.0718 -0.2537
 1758TIP3   OH226832   6.297   6.906   0.874 -0.5960  0.0998  0.4166
 1758TIP3    H126833   6.318   6.879   0.963 -0.2789 -0.4042  0.1950
 1758TIP3    H226834   6.359   6.976   0.854 -0.4038 -0.0605  0.4514
 1759TIP3   OH226835   0.265   1.066   6.133 -0.1003 -0.5570 -0.1340
 1759TIP3    H126836   0.245   1.141   6.076 -0.6395 -1.1382 -0.7338
 1759TIP3    H226837   0.182   1.046   6.176 -0.1381 -1.2235 -0.4946
 1760TIP3   OH226838   4.137   6.112   1.235 -0.5439  0.0968 -0.4965
 1760TIP3    H126839   4.187   6.047   1.185 -1.6677 -1.8605  0.7800
 1760TIP3    H226840   4.201   6.181   1.255  1.9182 -2.5214  1.5153
 1761TIP3   OH226841   6.158   1.347   1.886  0.0254 -0.5808  0.3720
 1761TIP3    H126842   6.158   1.374   1.978 -1.4837 -1.4874  0.6695
 1761TIP3    H226843   6.095   1.275   1.882  0.3773 -0.8375 -1.3039
 1762TIP3   OH226844   6.697   3.286   8.154  0.4057  0.1077 -0.0305
 1762TIP3    H126845   6.776   3.327   8.119 -0.7733  1.2942 -1.4336
 1762TIP3    H226846   6.654   3.248   8.078  0.4517 -2.0846  0.9591
 1763TIP3   OH226847   5.108   0.523   6.592 -0.0815 -0.3178 -0.3721
 1763TIP3    H126848   5.201   0.544   6.590 -0.4257  1.5514  0.3693
 1763TIP3    H226849   5.084   0.508   6.501  0.3571  2.3390 -1.0045
 1764TIP3   OH226850   6.210   5.050   0.080  0.1730 -0.1384  0.0362
 1764TIP3    H126851   6.150   4.984   0.047  0.7446 -0.7451  0.1963
 1764TIP3    H226852   6.159   5.131   0.078 -0.7961 -0.7088  0.5655
 1765TIP3   OH226853   6.738   1.117   2.067 -0.3623  0.0339  0.3608
 1765TIP3    H126854   6.828   1.106   2.037 -0.7875  0.0241 -1.0027
 1765TIP3    H226855   6.685   1.083   1.995 -1.5457  3.4531 -0.5685
 1766TIP3   OH226856   3.665   4.065   7.388 -0.0507 -0.2577 -0.1615
 1766TIP3    H126857   3.699   4.146   7.352 -0.7099 -0.5951 -1.6178
 1766TIP3    H226858   3.722   3.996   7.353 -1.1696 -0.6639 -1.2787
 1767TIP3   OH226859   0.388   0.874   6.386 -0.2901  0.7881  0.4839
 1767TIP3    H126860   0.415   0.902   6.474 -1.3266  1.2371  0.6717
 1767TIP3    H226861   0.303   0.916   6.372 -1.3258 -1.2153  0.2667
 1768TIP3   OH226862   6.899   4.467   0.595  0.5019 -0.1982 -0.0016
 1768TIP3    H126863   6.942   4.522   0.660 -0.9894  0.6180  0.3331
 1768TIP3    H226864   6.939   4.493   0.511 -0.0475  1.3109  0.1666
 1769TIP3   OH226865   2.648   0.394   7.403 -0.4445  0.6918 -0.3220
 1769TIP3    H126866   2.628   0.458   7.334  1.5656  0.8484 -0.8033
 1769TIP3    H226867   2.725   0.348   7.372  0.9277  1.1945  2.0951
 1770TIP3   OH226868   5.637   6.523   1.711 -0.2446 -0.0322  0.0724
 1770TIP3    H126869   5.608   6.433   1.696 -1.0350  0.0953  0.7536
 1770TIP3    H226870   5.557   6.574   1.710 -0.2358  0.2153  2.8990
 1771TIP3   OH226871   4.389   6.792   0.162  0.4900  0.1625  0.1641
 1771TIP3    H126872   4.430   6.720   0.114 -0.4946  0.8964 -1.9352
 1771TIP3    H226873   4.309   6.754   0.198  0.0451  0.1236 -0.8177
 1772TIP3   OH226874   2.812   4.740   7.344  0.2952  0.0417 -0.1232
 1772TIP3    H126875   2.865   4.690   7.406  1.4602  3.0149  1.5185
 1772TIP3    H226876   2.868   4.750   7.267  0.5836 -0.0234  0.0786
 1773TIP3   OH226877   0.383   4.390   6.553 -0.0825  0.3950 -0.4298
 1773TIP3    H126878   0.355   4.305   6.519  1.8775 -0.2156 -0.7019
 1773TIP3    H226879   0.364   4.452   6.483 -0.2683 -0.0676 -0.7911
 1774TIP3   OH226880   0.199   0.364   6.865  0.5566  0.2501  0.1703
 1774TIP3    H126881   0.221   0.456   6.874  0.9666  0.0597  1.2808
 1774TIP3    H226882   0.245   0.336   6.786  0.8771  0.8660  0.1321
 1775TIP3   OH226883   4.126   3.476   8.058  0.2936 -0.2479  0.3343
 1775TIP3    H126884   4.202   3.535   8.066  0.8154 -0.9373  0.5279
 1775TIP3    H226885   4.163   3.388   8.062 -0.5764 -0.6010  1.0517
 1776TIP3   OH226886   1.712   1.209   0.159 -0.3940  0.4124  0.2503
 1776TIP3    H126887   1.639   1.184   0.215 -0.1820  0.8972  0.7507
 1776TIP3    H226888   1.677   1.202   0.070 -1.3870  1.6651  0.5113
 1777TIP3   OH226889   6.959   4.213   7.349 -0.0492 -0.4205 -0.0570
 1777TIP3    H126890   6.892   4.256   7.295  1.4806 -0.3358 -2.0029
 1777TIP3    H226891   6.950   4.253   7.435 -2.4195 -0.3594 -0.2751
 1778TIP3   OH226892   2.550   6.358   7.857  0.1520  0.1459  0.1876
 1778TIP3    H126893   2.551   6.320   7.945  2.1134  1.7293  0.9299
 1778TIP3    H226894   2.596   6.294   7.803 -1.8697 -1.2684  0.0609
 1779TIP3   OH226895   6.037   5.123   6.279 -0.0945 -0.7634 -0.5782
 1779TIP3    H126896   5.961   5.143   6.224  0.8650  1.0779 -1.3338
 1779TIP3    H226897   6.003   5.124   6.368 -0.6653  2.0716 -0.7230
 1780TIP3   OH226898   6.239   3.687   7.272  0.0619  0.2761 -0.1778
 1780TIP3    H126899   6.333   3.687   7.291  0.0527  0.3219 -0.1343
 1780TIP3    H226900   6.227   3.756   7.207  0.1027  0.0754 -0.4015
 1781TIP3   OH226901   6.256   1.055   7.817 -0.4261 -0.3284  0.1949
 1781TIP3    H126902   6.334   1.029   7.769  0.9491  2.0457  0.9958
 1781TIP3    H226903   6.287   1.077   7.904 -1.6706  2.1039  0.1154
 1782TIP3   OH226904   0.040   3.230   0.163 -0.2793 -0.0987 -0.4651
 1782TIP3    H126905   0.034   3.158   0.226 -0.6205  1.0059  0.8046
 1782TIP3    H226906  -0.009   3.199   0.086 -0.4262 -1.2144  0.0637
 1783TIP3   OH226907   5.595   1.787   7.679 -0.3929  0.1468 -0.3035
 1783TIP3    H126908   5.637   1.854   7.733  2.1646 -1.0648 -0.6860
 1783TIP3    H226909   5.533   1.744   7.738  1.5495 -0.4395  1.4127
 1784TIP3   OH226910   2.748   2.072   0.263  0.0391 -0.3016  0.2820
 1784TIP3    H126911   2.761   2.153   0.312  0.4854 -0.3857  0.3086
 1784TIP3    H226912   2.830   2.061   0.213  1.0356 -2.0349  2.1489
 1785TIP3   OH226913   1.404   2.313   0.384 -0.2228  0.3795 -0.1516
 1785TIP3    H126914   1.388   2.354   0.469 -1.7241  2.5949 -1.3990
 1785TIP3    H226915   1.496   2.335   0.364 -0.4454  1.5803  0.0519
 1786TIP3   OH226916   1.358   4.706   0.196  0.3641 -0.3419  0.5832
 1786TIP3    H126917   1.352   4.677   0.105  0.3291  0.8612  0.1780
 1786TIP3    H226918   1.273   4.683   0.234  0.2192 -0.4626  0.1903
 1787TIP3   OH226919   1.135   5.712   1.791 -0.7007  0.1691  0.0879
 1787TIP3    H126920   1.080   5.750   1.722 -0.8634  1.3782  0.8390
 1787TIP3    H226921   1.105   5.755   1.871 -0.8850 -1.6004  1.0180
 1788TIP3   OH226922   5.193   6.147   7.169 -0.8451  0.1463  0.1155
 1788TIP3    H126923   5.120   6.116   7.115  0.5679 -0.7009 -1.4107
 1788TIP3    H226924   5.248   6.197   7.108  1.5600 -2.0476  0.3295
 1789TIP3   OH226925   3.939   2.804   1.597 -0.3025 -0.0054 -0.3916
 1789TIP3    H126926   3.988   2.859   1.658 -0.2030 -0.8215  0.2800
 1789TIP3    H226927   3.915   2.727   1.648  1.0475 -1.4024 -1.7399
 1790TIP3   OH226928   3.637   0.447   0.544 -0.3431  0.4866 -0.4424
 1790TIP3    H126929   3.550   0.434   0.508 -0.4980  0.0165  0.0862
 1790TIP3    H226930   3.692   0.465   0.468 -1.0192  1.4887 -0.7191
 1791TIP3   OH226931   3.855   6.749   7.967  0.6566 -0.3348 -0.0764
 1791TIP3    H126932   3.832   6.743   7.874  2.1112 -2.3138 -0.3893
 1791TIP3    H226933   3.808   6.826   7.999 -1.0654 -0.4745 -2.0853
 1792TIP3   OH226934   6.262   5.849   1.088  0.4745 -0.3789  0.2260
 1792TIP3    H126935   6.235   5.840   0.996 -1.1822  0.4682  0.5877
 1792TIP3    H226936   6.181   5.836   1.138  0.9756  0.9785  1.4646
 1793TIP3   OH226937   1.791   3.240   0.451  0.0899 -0.0871  0.9968
 1793TIP3    H126938   1.815   3.302   0.520  1.2564 -1.1875  1.6226
 1793TIP3    H226939   1.859   3.172   0.454 -0.0584 -0.3882 -0.9753
 1794TIP3   OH226940   0.539   0.253   0.730 -0.1297 -0.6297 -0.0703
 1794TIP3    H126941   0.608   0.303   0.687  0.3039 -1.3295 -0.2016
 1794TIP3    H226942   0.579   0.221   0.811 -0.6688 -0.0607  0.4386
 1795TIP3   OH226943   4.969   1.157   0.930  0.4939  0.2106 -0.1812
 1795TIP3    H126944   5.061   1.172   0.952  0.8919 -0.0309 -1.6139
 1795TIP3    H226945   4.972   1.109   0.847 -0.9369  0.5244 -0.4300
 1796TIP3   OH226946   1.031   1.307   0.151 -0.3988 -0.2224 -0.3453
 1796TIP3    H126947   0.954   1.360   0.130 -0.6423 -0.4631 -0.0630
 1796TIP3    H226948   1.044   1.251   0.075  0.4314  0.9012 -1.0600
 1797TIP3   OH226949   6.857   3.785   0.334  0.0076 -0.1024  0.2151
 1797TIP3    H126950   6.803   3.776   0.413 -0.2963  0.3270  0.0614
 1797TIP3    H226951   6.855   3.878   0.315  1.2760  0.0074  0.5284
 1798TIP3   OH226952   4.434   5.835   0.823 -0.3280 -0.3359  0.0370
 1798TIP3    H126953   4.506   5.817   0.883  0.6319 -0.5194 -1.1456
 1798TIP3    H226954   4.361   5.784   0.857  0.3604 -0.8844  0.7249
 1799TIP3   OH226955   3.360   0.492   6.855  0.1342  0.3137  0.3761
 1799TIP3    H126956   3.414   0.452   6.787 -0.6003  0.4986 -0.3233
 1799TIP3    H226957   3.396   0.458   6.937  0.6741 -0.3463 -0.1266
 1800TIP3   OH226958   6.605   3.747   8.030 -0.2391  0.3040  0.0001
 1800TIP3    H126959   6.600   3.717   7.939  0.0442  2.0226 -0.6268
 1800TIP3    H226960   6.698   3.761   8.046 -0.2722 -0.1504  0.6207
 1801TIP3   OH226961   1.702   5.703   2.321  0.1668  0.2634 -0.4308
 1801TIP3    H126962   1.787   5.747   2.326  0.5445 -0.5566  0.8497
 1801TIP3    H226963   1.688   5.669   2.409 -0.4430 -1.5369 -1.1750
 1802TIP3   OH226964   6.685   4.946   0.263  0.2891  0.2141  0.4547
 1802TIP3    H126965   6.624   4.954   0.189  1.0501  1.5036 -0.0555
 1802TIP3    H226966   6.722   4.858   0.253  2.3076  1.2293 -2.2904
 1803TIP3   OH226967   6.064   4.139   0.986  0.1816  0.3910 -0.1361
 1803TIP3    H126968   6.104   4.060   0.948 -0.5126 -0.5008  0.9222
 1803TIP3    H226969   5.970   4.128   0.971  0.2044  2.1515 -2.0166
 1804TIP3   OH226970   4.672   0.627   7.472 -0.3135  0.4394  0.2948
 1804TIP3    H126971   4.653   0.720   7.457  0.5116  1.1281  2.9341
 1804TIP3    H226972   4.589   0.591   7.505 -0.5136  0.3130 -0.3281
 1805TIP3   OH226973   1.057   2.063   7.466 -0.7745 -0.1794  0.2013
 1805TIP3    H126974   1.040   2.023   7.551 -0.7709 -1.1771 -0.2578
 1805TIP3    H226975   1.035   2.155   7.478 -0.1060 -0.1660  1.4789
 1806TIP3   OH226976   5.486   0.215   0.188  0.0290  0.0158 -0.4260
 1806TIP3    H126977   5.497   0.121   0.178  0.8503  0.1299 -0.6628
 1806TIP3    H226978   5.393   0.231   0.167 -0.1290 -0.7407 -0.3182
 1807TIP3   OH226979   0.614   0.565   6.894  0.0091  0.3492 -0.6426
 1807TIP3    H126980   0.585   0.654   6.873 -0.5849  0.2616 -0.2391
 1807TIP3    H226981   0.624   0.522   6.810 -0.2504  0.6299 -0.8191
 1808TIP3   OH226982   4.017   4.158   6.320  0.2975 -0.1898  0.3281
 1808TIP3    H126983   4.084   4.113   6.269  0.9546 -0.1919  1.1703
 1808TIP3    H226984   4.030   4.251   6.301 -0.3326 -0.2663 -0.5369
 1809TIP3   OH226985   6.795   5.715   7.175 -0.3758 -0.4186 -0.3519
 1809TIP3    H126986   6.802   5.640   7.116 -0.2961 -0.1867 -0.6404
 1809TIP3    H226987   6.864   5.775   7.146 -0.2192 -0.3771  0.0893
 1810TIP3   OH226988   6.549   0.661   7.505  1.1125 -0.0033  0.2234
 1810TIP3    H126989   6.480   0.609   7.546  0.8398 -0.7566 -1.1342
 1810TIP3    H226990   6.551   0.631   7.414  0.9050  2.4135 -0.6539
 1811TIP3   OH226991   5.114   3.379   7.844 -0.5402 -0.3192 -0.0945
 1811TIP3    H126992   5.061   3.311   7.885 -0.8562 -0.4703 -0.7449
 1811TIP3    H226993   5.077   3.389   7.756 -1.0518  1.2645  0.2515
 1812TIP3   OH226994   2.803   4.400   2.337  0.3291 -0.2831 -0.0740
 1812TIP3    H126995   2.796   4.488   2.374  1.8444 -0.1730  0.0061
 1812TIP3    H226996   2.748   4.403   2.259  1.4400  1.1798 -0.8571
 1813TIP3   OH226997   5.330   3.814   1.736 -0.0510 -0.0409  0.3202
 1813TIP3    H126998   5.417   3.826   1.698  0.3245 -1.5068  0.6609
 1813TIP3    H226999   5.323   3.882   1.803  0.4910  0.6031 -0.2626
 1814TIP3   OH227000   2.381   6.979   6.636  0.9372  0.0126 -0.3293
 1814TIP3    H127001   2.353   6.889   6.621  1.2466 -0.3160  0.9808
 1814TIP3    H227002   2.455   6.991   6.576  1.5141 -0.9395  0.1629
 1815TIP3   OH227003   4.157   1.545   7.671 -0.1331  0.1148  0.5513
 1815TIP3    H127004   4.077   1.497   7.651  1.0344 -1.4338 -0.6540
 1815TIP3    H227005   4.202   1.554   7.586  1.7319 -0.5397  1.4037
 1816TIP3   OH227006   5.153   1.910   7.127 -0.0821  0.2562  0.4313
 1816TIP3    H127007   5.183   1.995   7.097  0.1980  0.3387  0.9473
 1816TIP3    H227008   5.179   1.850   7.057 -1.2917  0.7460 -0.4829
 1817TIP3   OH227009   6.574   4.164   7.256  0.5266  0.2598  0.3345
 1817TIP3    H127010   6.502   4.131   7.310 -1.1987  0.9772 -1.3989
 1817TIP3    H227011   6.610   4.086   7.213  0.1735  0.0018  0.5053
 1818TIP3   OH227012   2.144   5.924   7.984  0.0361 -0.2055 -0.0409
 1818TIP3    H127013   2.101   6.008   8.005 -1.1281 -0.9817  0.8058
 1818TIP3    H227014   2.087   5.858   8.024  0.4717 -1.4702 -1.4465
 1819TIP3   OH227015   4.935   1.109   0.184 -0.2948  0.2791 -0.0794
 1819TIP3    H127016   4.886   1.144   0.109 -0.6915  0.7543  0.3910
 1819TIP3    H227017   5.021   1.089   0.148 -0.7037 -0.2021 -0.8318
 1820TIP3   OH227018   0.677   1.461   6.561  0.0897 -0.0843 -0.1601
 1820TIP3    H127019   0.616   1.452   6.635 -1.0529 -1.8100 -1.2393
 1820TIP3    H227020   0.661   1.550   6.528  0.0740  0.4318  1.1834
 1821TIP3   OH227021   3.747   3.965   7.115 -0.1300 -0.3818 -0.2882
 1821TIP3    H127022   3.652   3.958   7.128 -0.0325  1.1625  1.8942
 1821TIP3    H227023   3.784   3.901   7.176  0.2359  0.4494  0.3842
 1822TIP3   OH227024   4.206   1.140   7.731 -0.0885  0.0427  0.3263
 1822TIP3    H127025   4.260   1.165   7.657 -1.1629 -0.5397 -0.6809
 1822TIP3    H227026   4.117   1.164   7.705 -0.6655 -1.4945  0.8108
 1823TIP3   OH227027   6.508   1.685   5.945 -0.4360  0.1717  0.5291
 1823TIP3    H127028   6.481   1.649   6.029  2.0815  0.9288  1.7804
 1823TIP3    H227029   6.525   1.777   5.962  1.0248  0.1435 -0.5414
 1824TIP3   OH227030   1.351   1.526   7.521  0.5147 -0.5978  0.3285
 1824TIP3    H127031   1.385   1.548   7.434 -0.3714  0.0821  0.1369
 1824TIP3    H227032   1.304   1.444   7.509 -0.0307 -0.2493  0.0503
 1825TIP3   OH227033   6.532   1.101   0.889 -0.0388  0.4192  0.0944
 1825TIP3    H127034   6.450   1.068   0.926 -0.4707  2.0965  0.7331
 1825TIP3    H227035   6.546   1.185   0.933  0.7822  1.2963 -1.7239
 1826TIP3   OH227036   5.402   6.053   7.539 -0.3060 -0.6513 -0.1224
 1826TIP3    H127037   5.336   6.003   7.490 -0.7034  0.1540 -0.4378
 1826TIP3    H227038   5.486   6.023   7.505 -0.5445 -1.0141 -0.3896
 1827TIP3   OH227039   3.866   3.869   1.263 -0.5266 -0.0423  0.0698
 1827TIP3    H127040   3.786   3.838   1.307 -0.7164  0.6252  0.2016
 1827TIP3    H227041   3.914   3.916   1.331  0.0230 -0.5014  0.0083
 1828TIP3   OH227042   5.010   5.289   0.826 -0.5208 -0.2174  0.1059
 1828TIP3    H127043   5.043   5.200   0.837 -0.9884 -0.1089  3.4771
 1828TIP3    H227044   4.957   5.286   0.746  0.8090 -2.4960 -0.7667
 1829TIP3   OH227045   1.804   4.479   2.106  0.1846 -0.3695  0.1031
 1829TIP3    H127046   1.805   4.539   2.031 -0.1605 -2.3279 -1.5481
 1829TIP3    H227047   1.714   4.446   2.109 -0.3443  0.9818  2.5688
 1830TIP3   OH227048   4.422   2.826   7.401 -0.2421  0.2664 -0.0402
 1830TIP3    H127049   4.365   2.753   7.376  0.2206 -0.6378  1.4143
 1830TIP3    H227050   4.379   2.903   7.365 -1.2632 -0.6180 -0.7923
 1831TIP3   OH227051   4.114   2.863   7.845  0.7707  0.2907 -0.6334
 1831TIP3    H127052   4.126   2.875   7.751 -2.3971  0.7915 -1.0870
 1831TIP3    H227053   4.086   2.949   7.877 -0.3722 -0.3986  0.3164
 1832TIP3   OH227054   0.591   5.459   0.183  0.6155  0.2221 -0.2270
 1832TIP3    H127055   0.564   5.490   0.096  1.7366 -0.4874 -0.8625
 1832TIP3    H227056   0.676   5.417   0.167  0.9022  0.2027  1.2460
 1833TIP3   OH227057   1.975   6.802   7.698 -0.3837 -0.2116  0.5208
 1833TIP3    H127058   2.026   6.721   7.687  0.3136  0.3479 -0.6485
 1833TIP3    H227059   1.922   6.807   7.618  1.0299  1.4426 -0.3860
 1834TIP3   OH227060   5.393   0.483   8.327 -0.1638 -0.1850 -0.0315
 1834TIP3    H127061   5.315   0.527   8.360  0.2346 -0.2514  1.0665
 1834TIP3    H227062   5.387   0.488   8.232 -0.5615  1.4493  0.0622
 1835TIP3   OH227063   2.395   3.514   8.162  0.1572  0.3098  0.4825
 1835TIP3    H127064   2.392   3.423   8.131 -1.0145  0.3960  0.3061
 1835TIP3    H227065   2.314   3.525   8.212  0.9720  0.8392  1.7300
 1836TIP3   OH227066   1.914   4.342   0.314  0.1802  0.0434  0.0830
 1836TIP3    H127067   1.913   4.319   0.221 -0.9575  0.6057 -0.0574
 1836TIP3    H227068   2.000   4.313   0.345  0.6429  0.0168 -1.1808
 1837TIP3   OH227069   2.001   5.245   8.280 -0.1561  0.0729  0.3736
 1837TIP3    H127070   2.035   5.216   8.195 -0.0470  3.5947 -0.9927
 1837TIP3    H227071   1.906   5.235   8.273 -0.1285  0.1214 -0.1176
 1838TIP3   OH227072   4.979   1.194   7.307  0.5040 -0.2359 -0.0826
 1838TIP3    H127073   4.989   1.259   7.376 -0.1865 -0.7569  0.5217
 1838TIP3    H227074   5.007   1.240   7.227 -1.0436  1.2096  0.1327
 1839TIP3   OH227075   0.206   2.972   6.791 -0.2469 -0.1912 -0.1116
 1839TIP3    H127076   0.277   2.938   6.846  1.6792  2.2247 -0.9383
 1839TIP3    H227077   0.239   2.963   6.702 -1.1388  0.6159 -0.5348
 1840TIP3   OH227078   3.343   6.323   1.863 -0.0005  0.1882 -0.0403
 1840TIP3    H127079   3.376   6.373   1.937  1.3384  0.9817 -1.1202
 1840TIP3    H227080   3.353   6.231   1.889  0.7433  0.4476  0.6330
 1841TIP3   OH227081   0.357   2.185   7.103 -0.2029  0.4757 -0.4312
 1841TIP3    H127082   0.286   2.228   7.055 -2.6183 -1.4358  1.2047
 1841TIP3    H227083   0.318   2.163   7.188  2.5194 -0.2719  0.7082
 1842TIP3   OH227084   2.116   6.530   0.372  0.0144 -0.3602 -0.1538
 1842TIP3    H127085   2.084   6.440   0.367  2.3100 -1.1988 -1.1851
 1842TIP3    H227086   2.037   6.584   0.364 -1.2191 -2.2636 -1.9095
 1843TIP3   OH227087   2.857   0.485   0.227  0.1444  0.6110 -0.6906
 1843TIP3    H127088   2.917   0.476   0.301 -0.4697  1.6898 -0.0436
 1843TIP3    H227089   2.914   0.487   0.150  0.7722 -0.7741 -0.2879
 1844TIP3   OH227090   2.763   6.882   6.679 -0.0098  0.6561  0.0771
 1844TIP3    H127091   2.691   6.824   6.701  0.1140  0.5603  0.2354
 1844TIP3    H227092   2.783   6.928   6.761  1.7630 -1.1410  0.7235
 1845TIP3   OH227093   2.377   6.122   7.445  0.5693 -0.3627 -0.1203
 1845TIP3    H127094   2.387   6.217   7.440 -0.5428 -0.1884  0.5712
 1845TIP3    H227095   2.350   6.105   7.536 -3.5691 -0.8340 -1.2034
 1846TIP3   OH227096   6.549   3.138   8.324 -0.3305 -0.9289  0.6186
 1846TIP3    H127097   6.602   3.195   8.268 -2.0966 -0.9972 -1.2696
 1846TIP3    H227098   6.460   3.170   8.312 -0.8711 -1.4385  2.9084
 1847TIP3   OH227099   0.643   0.534   1.274 -0.3877 -0.3220  0.4041
 1847TIP3    H127100   0.600   0.498   1.352  0.1154  0.4624  1.0497
 1847TIP3    H227101   0.577   0.526   1.205 -1.3651  0.2902  1.2415
 1848TIP3   OH227102   5.795   3.681   0.274 -0.5783  0.3869  0.1695
 1848TIP3    H127103   5.890   3.688   0.282 -0.5218  0.4775 -0.5497
 1848TIP3    H227104   5.768   3.640   0.356  0.3751 -2.2635 -0.7261
 1849TIP3   OH227105   5.370   2.244   7.141 -0.1284  0.0466 -0.1831
 1849TIP3    H127106   5.438   2.228   7.207 -0.6927  1.9214  0.9179
 1849TIP3    H227107   5.287   2.235   7.189 -0.5692  0.8890 -0.7498
 1850TIP3   OH227108   6.726   4.464   1.330  0.2394 -0.2256 -0.1987
 1850TIP3    H127109   6.763   4.438   1.246  0.0489 -0.8582 -0.0889
 1850TIP3    H227110   6.642   4.505   1.307  0.1146 -0.5382 -0.3073
 1851TIP3   OH227111   6.012   1.681   7.592  0.1828 -0.0969  0.1350
 1851TIP3    H127112   6.025   1.586   7.584 -0.3411 -0.2832  1.2709
 1851TIP3    H227113   5.938   1.700   7.535 -1.4471 -0.8471  1.8873
 1852TIP3   OH227114   5.448   3.735   7.772  0.4990  0.1456  0.1312
 1852TIP3    H127115   5.505   3.754   7.846  0.3890  0.9868  0.0079
 1852TIP3    H227116   5.494   3.770   7.696  0.3074 -0.1280 -0.1137
 1853TIP3   OH227117   2.168   3.261   7.521  0.7674  0.5476  0.5725
 1853TIP3    H127118   2.190   3.261   7.428  2.0040 -1.3664  0.8020
 1853TIP3    H227119   2.087   3.209   7.526  0.6526  0.7240  0.5711
 1854TIP3   OH227120   1.446   0.368   1.682 -0.4198 -0.2775  0.2196
 1854TIP3    H127121   1.358   0.334   1.702  0.0278 -0.5695  1.7413
 1854TIP3    H227122   1.492   0.368   1.765  0.5757  1.2762 -0.2969
 1855TIP3   OH227123   4.212   6.182   6.802 -0.3524  0.5633  0.0114
 1855TIP3    H127124   4.171   6.197   6.887 -2.0865  0.6135 -0.8075
 1855TIP3    H227125   4.166   6.241   6.742  0.1221 -0.2373 -1.1745
 1856TIP3   OH227126   2.602   3.672   8.214  0.2577  0.4577  0.3508
 1856TIP3    H127127   2.535   3.630   8.160 -0.0986  1.7076 -0.2120
 1856TIP3    H227128   2.672   3.606   8.220  0.1098  0.1105 -1.2655
 1857TIP3   OH227129   1.372   3.513   0.296  0.0852 -0.2371 -0.1578
 1857TIP3    H127130   1.426   3.527   0.375  1.3257  0.0623 -1.0264
 1857TIP3    H227131   1.382   3.420   0.277  0.9245 -0.0399 -0.7377
 1858TIP3   OH227132   5.504   2.033   7.350  0.0598 -0.1992 -0.1944
 1858TIP3    H127133   5.432   1.971   7.350 -1.0038  0.9263 -1.9243
 1858TIP3    H227134   5.573   1.990   7.299 -0.5079 -0.1475 -1.0187
 1859TIP3   OH227135   1.049   2.482   0.090 -0.0898 -0.0338  0.5957
 1859TIP3    H127136   0.992   2.531   0.149  0.8867 -0.3202  1.8213
 1859TIP3    H227137   1.100   2.426   0.148 -0.2388 -1.5347 -0.6619
 1860TIP3   OH227138   4.564   6.911   1.577 -0.3161  0.0962  0.0138
 1860TIP3    H127139   4.481   6.894   1.532  0.6779 -1.3543 -1.3719
 1860TIP3    H227140   4.538   6.947   1.662 -2.3887 -1.1835  0.0002
 1861TIP3   OH227141   4.927   4.600   6.509 -0.6176 -0.1256  0.5070
 1861TIP3    H127142   4.888   4.513   6.508  2.1344 -1.5578  3.2692
 1861TIP3    H227143   4.997   4.597   6.444 -0.9123  0.2665  0.1623
 1862TIP3   OH227144   1.184   1.333   7.784 -0.0777  0.1908  0.3992
 1862TIP3    H127145   1.150   1.250   7.750 -0.4789  1.0761 -1.4720
 1862TIP3    H227146   1.279   1.329   7.767 -0.4855  1.5125 -3.1711
 1863TIP3   OH227147   6.574   4.313   7.028 -0.3436  0.1306 -0.4267
 1863TIP3    H127148   6.548   4.255   7.100 -0.6322  2.8859  1.8431
 1863TIP3    H227149   6.662   4.342   7.052 -0.1429  0.5222 -1.5863
 1864TIP3   OH227150   6.482   3.302   0.652 -0.0125  0.6591 -0.0503
 1864TIP3    H127151   6.509   3.353   0.576  1.1597 -0.3144 -0.3167
 1864TIP3    H227152   6.452   3.218   0.616  0.1068  0.3657  0.5133
 1865TIP3   OH227153   1.460   1.527   7.771  0.1113  0.1807  0.0143
 1865TIP3    H127154   1.482   1.435   7.788  0.6453  0.5337  1.3668
 1865TIP3    H227155   1.394   1.524   7.701 -1.6145 -1.3759  1.5966
 1866TIP3   OH227156   6.699   0.050   7.843  0.0348 -0.5764  0.6371
 1866TIP3    H127157   6.773   0.028   7.787 -0.4765 -0.6294 -0.0315
 1866TIP3    H227158   6.723   0.017   7.929  0.6864 -0.7990  0.3745
 1867TIP3   OH227159   4.583   1.287   0.097  0.1280 -0.4096 -0.0413
 1867TIP3    H127160   4.545   1.228   0.031  0.7149 -0.0499 -0.7142
 1867TIP3    H227161   4.641   1.344   0.047  0.0946  0.2915  0.7061
 1868TIP3   OH227162   0.862   5.331   7.917 -0.2974  0.7315  0.2418
 1868TIP3    H127163   0.849   5.398   7.983  0.9530  1.5227 -0.2794
 1868TIP3    H227164   0.814   5.363   7.840  0.0607  0.8988  0.0847
 1869TIP3   OH227165   1.776   5.042   2.128  0.2486  0.0540 -0.2625
 1869TIP3    H127166   1.823   4.972   2.174  1.0409  0.3468 -0.6003
 1869TIP3    H227167   1.816   5.123   2.161 -0.5810  0.3464  0.0410
 1870TIP3   OH227168   4.414   1.738   6.187  0.2858 -0.5065  0.3053
 1870TIP3    H127169   4.505   1.709   6.185  0.3435 -0.2991 -1.4253
 1870TIP3    H227170   4.418   1.833   6.183 -0.0103 -0.3898  1.8303
 1871TIP3   OH227171   2.590   6.473   7.222  0.6225  0.1527  0.0721
 1871TIP3    H127172   2.649   6.500   7.293  0.1674 -0.9417  0.8937
 1871TIP3    H227173   2.633   6.398   7.182  0.5917  0.4063 -0.4477
 1872TIP3   OH227174   3.301   4.893   7.949 -0.4619  0.2861 -0.1840
 1872TIP3    H127175   3.250   4.953   7.895 -1.1674 -0.8164 -0.7861
 1872TIP3    H227176   3.386   4.888   7.905 -0.9526 -0.4236 -1.0947
 1873TIP3   OH227177   5.024   0.116   2.191 -0.1815 -0.6209 -0.1969
 1873TIP3    H127178   5.050   0.117   2.283 -3.2423 -0.1621  0.7748
 1873TIP3    H227179   4.937   0.076   2.191  0.4884 -2.3743 -3.1717
 1874TIP3   OH227180   5.390   2.607   1.441  0.6359 -0.1442 -0.3765
 1874TIP3    H127181   5.325   2.594   1.372  0.5104  1.1667 -0.5268
 1874TIP3    H227182   5.371   2.538   1.505 -1.8325  1.0184  0.2849
 1875TIP3   OH227183   0.664   4.404   0.465  0.2647  0.4332 -0.2522
 1875TIP3    H127184   0.609   4.363   0.399  0.0028  1.1300 -0.4788
 1875TIP3    H227185   0.709   4.331   0.508 -1.4472 -0.2247  0.5032
 1876TIP3   OH227186   1.536   1.104   0.391  0.1017 -0.5453  0.1318
 1876TIP3    H127187   1.486   1.059   0.459 -1.0769 -1.6741 -1.4284
 1876TIP3    H227188   1.628   1.088   0.414 -0.2593 -0.4915  1.6974
 1877TIP3   OH227189   5.657   4.693   6.564  0.5067 -0.1018 -0.1949
 1877TIP3    H127190   5.722   4.642   6.515 -3.4503 -4.6669 -1.5671
 1877TIP3    H227191   5.607   4.739   6.496 -0.2693 -0.1675  0.3201
 1878TIP3   OH227192   5.772   3.983   6.512  0.0732 -0.0509 -0.2632
 1878TIP3    H127193   5.744   3.893   6.530 -0.5088 -0.2043 -1.8567
 1878TIP3    H227194   5.863   3.974   6.483  0.9380  0.1775  2.0945
 1879TIP3   OH227195   2.990   3.050   2.531  0.6968  0.3642  0.4790
 1879TIP3    H127196   3.019   2.969   2.489 -0.1971 -0.2081  0.9647
 1879TIP3    H227197   3.072   3.095   2.554  1.1975 -0.2022 -0.1435
 1880TIP3   OH227198   1.330   0.068   6.785  0.2649  0.0148 -0.2870
 1880TIP3    H127199   1.260   0.126   6.815 -0.0660 -0.6549  0.2705
 1880TIP3    H227200   1.378   0.119   6.720 -2.0251 -0.1936 -2.3188
 1881TIP3   OH227201   6.929   3.062   0.346 -0.0076 -0.4061 -0.4194
 1881TIP3    H127202   6.958   2.990   0.401 -1.3365 -0.9393 -0.3790
 1881TIP3    H227203   6.833   3.059   0.351 -0.0941  1.4036 -0.3574
 1882TIP3   OH227204   5.520   2.263   1.432 -0.8610  0.0730 -0.4666
 1882TIP3    H127205   5.509   2.169   1.415 -0.7118  0.0367 -0.3697
 1882TIP3    H227206   5.609   2.282   1.403 -0.4943 -0.0540  0.5339
 1883TIP3   OH227207   4.823   1.737   0.388  0.0869 -0.0596  0.0452
 1883TIP3    H127208   4.778   1.661   0.352 -1.8189  0.9094  0.2939
 1883TIP3    H227209   4.783   1.812   0.345  2.6310  0.8158 -0.9649
 1884TIP3   OH227210   4.019   5.184   7.271 -1.0397 -0.1641 -0.5506
 1884TIP3    H127211   4.068   5.122   7.216  2.0735  2.2427 -0.7889
 1884TIP3    H227212   3.948   5.215   7.214 -0.0466 -0.3861 -1.9671
 1885TIP3   OH227213   2.311   0.994   7.187 -0.3943  0.4016 -0.0863
 1885TIP3    H127214   2.235   0.996   7.245 -0.7338  3.1842 -0.4700
 1885TIP3    H227215   2.301   1.072   7.132  2.1450  0.2194 -0.9519
 1886TIP3   OH227216   3.403   4.886   7.312  0.5153  0.6772 -0.1450
 1886TIP3    H127217   3.459   4.961   7.335  1.2431  0.0558  0.1868
 1886TIP3    H227218   3.341   4.920   7.249  1.3352  1.3822 -0.5916
 1887TIP3   OH227219   6.268   2.275   7.914  0.2073  0.1960  0.1940
 1887TIP3    H127220   6.279   2.357   7.961 -1.3821  0.2080  0.6028
 1887TIP3    H227221   6.284   2.296   7.823 -2.2517  1.4855 -0.0146
 1888TIP3   OH227222   1.715   6.531   7.683 -0.3327 -0.1626 -0.4262
 1888TIP3    H127223   1.667   6.524   7.765  0.5114  0.3181  0.1275
 1888TIP3    H227224   1.694   6.618   7.650 -0.1893 -0.1197 -0.4049
 1889TIP3   OH227225   3.197   2.336   7.465  0.2706 -0.1883 -0.2037
 1889TIP3    H127226   3.280   2.308   7.503  0.3114  1.7884  1.2596
 1889TIP3    H227227   3.131   2.284   7.511  0.6180 -1.3589 -0.9780
 1890TIP3   OH227228   5.498   3.391   7.028 -0.2906  0.8629 -0.0239
 1890TIP3    H127229   5.448   3.329   6.975  0.6313 -0.7341  0.8975
 1890TIP3    H227230   5.443   3.470   7.030 -1.8159 -0.1268 -0.7085
 1891TIP3   OH227231   3.169   3.539   6.182  0.0489 -0.8263  0.0224
 1891TIP3    H127232   3.113   3.533   6.105 -0.2901 -1.7426  0.3231
 1891TIP3    H227233   3.212   3.453   6.188  0.5923 -0.5320  0.4590
 1892TIP3   OH227234   5.945   5.612   6.882  0.2312 -0.7636 -0.1890
 1892TIP3    H127235   5.892   5.541   6.844  0.2877 -0.7451 -0.3021
 1892TIP3    H227236   5.896   5.639   6.960 -1.2877  1.0128 -1.6665
 1893TIP3   OH227237   1.005   2.220   6.733 -0.4496  0.4883 -0.3832
 1893TIP3    H127238   0.914   2.206   6.762 -0.1394 -2.2250 -0.5589
 1893TIP3    H227239   1.031   2.137   6.694  2.3360  1.0190  0.1863
 1894TIP3   OH227240   2.248   4.475   0.249 -0.5406  0.1072  0.2730
 1894TIP3    H127241   2.250   4.398   0.305 -1.1841 -0.6447 -0.7098
 1894TIP3    H227242   2.181   4.531   0.288 -1.2800 -0.5949  0.0415
 1895TIP3   OH227243   2.529   1.885   7.085 -0.5145 -0.0824  0.0878
 1895TIP3    H127244   2.498   1.886   7.175 -0.1048 -1.9483  0.2881
 1895TIP3    H227245   2.478   1.816   7.043 -0.3626  0.4443 -0.9984
 1896TIP3   OH227246   6.393   0.008   7.344  0.1808 -0.0308  0.1587
 1896TIP3    H127247   6.486   0.000   7.365  0.5199 -1.4703 -1.6356
 1896TIP3    H227248   6.348  -0.030   7.420  1.1648 -1.4917  0.0511
 1897TIP3   OH227249   0.226   5.415   1.422  0.8722 -0.2523  0.0151
 1897TIP3    H127250   0.208   5.504   1.452  0.7830 -0.4367  0.5264
 1897TIP3    H227251   0.154   5.394   1.362  0.5196 -0.2293  0.4287
 1898TIP3   OH227252   0.096   3.638   0.887 -0.3241  0.2483  0.2925
 1898TIP3    H127253   0.020   3.636   0.829  0.4604 -0.3121 -0.7553
 1898TIP3    H227254   0.150   3.564   0.859 -0.2099 -0.4240  2.1685
 1899TIP3   OH227255   6.641   1.967   0.420 -0.4044 -0.5437  0.3592
 1899TIP3    H127256   6.665   1.898   0.483  0.8859  1.7431  2.5593
 1899TIP3    H227257   6.721   1.982   0.370 -0.6641 -0.5952 -0.0722
 1900TIP3   OH227258   3.745   4.552   1.720 -0.2390  0.3503  0.1503
 1900TIP3    H127259   3.705   4.639   1.712  0.1539  0.5131 -0.0386
 1900TIP3    H227260   3.770   4.529   1.631  0.5664  0.4745  0.3399
 1901TIP3   OH227261   2.252   1.678   1.202  0.0135 -0.1617 -0.1304
 1901TIP3    H127262   2.278   1.708   1.289 -0.3085 -1.3506  0.3892
 1901TIP3    H227263   2.158   1.667   1.206 -0.1674  0.8486 -0.9906
 1902TIP3   OH227264   6.150   0.900   8.189 -0.0193  0.3702 -0.2652
 1902TIP3    H127265   6.129   0.816   8.147  0.0819  0.4614 -0.5013
 1902TIP3    H227266   6.067   0.947   8.189  0.0108  0.4224 -0.4845
 1903TIP3   OH227267   6.564   5.960   1.331  0.1276  0.6227 -0.3882
 1903TIP3    H127268   6.613   5.923   1.258 -0.2153 -0.1373 -0.2467
 1903TIP3    H227269   6.621   6.027   1.368  0.1255  1.3191 -1.6238
 1904TIP3   OH227270   2.276   6.786   0.854 -0.0741 -0.7226  0.0798
 1904TIP3    H127271   2.238   6.867   0.819  0.0448 -1.4893 -1.9494
 1904TIP3    H227272   2.241   6.717   0.798  1.1046 -1.9076  0.7467
 1905TIP3   OH227273   1.475   4.028   8.263  0.1446  0.6332 -0.9712
 1905TIP3    H127274   1.434   4.046   8.348 -0.3159  0.3587 -1.1334
 1905TIP3    H227275   1.543   3.964   8.283  1.6553  2.3193 -0.4217
 1906TIP3   OH227276   3.241   2.726   0.989 -0.2551 -0.3391  0.3939
 1906TIP3    H127277   3.148   2.703   0.994 -0.6098  1.1200  1.2229
 1906TIP3    H227278   3.262   2.760   1.076  1.0522 -0.5969  0.1964
 1907TIP3   OH227279   0.095   6.643   8.146  0.5019 -0.9631  0.3871
 1907TIP3    H127280   0.019   6.627   8.202 -0.5969 -2.5618 -1.4475
 1907TIP3    H227281   0.073   6.724   8.099  0.6019 -0.6332  0.9012
 1908TIP3   OH227282   4.089   1.403   0.732  0.1982  0.1200  0.1750
 1908TIP3    H127283   4.145   1.478   0.710 -0.2209  0.6234  0.7980
 1908TIP3    H227284   4.147   1.345   0.782  0.0440  0.8735  1.2561
 1909TIP3   OH227285   3.647   6.495   0.248  0.2155 -0.2181  0.0865
 1909TIP3    H127286   3.668   6.406   0.274  0.2393 -0.0372  0.6905
 1909TIP3    H227287   3.694   6.508   0.166 -1.1888 -1.3622 -0.9518
 1910TIP3   OH227288   0.321   1.116   7.456  0.1734 -0.0351  0.6828
 1910TIP3    H127289   0.288   1.051   7.394 -0.7436 -0.5221  1.6408
 1910TIP3    H227290   0.245   1.137   7.511  0.6177  1.3656  0.8091
 1911TIP3   OH227291   5.627   1.300   6.323 -0.3179 -0.0939 -0.5363
 1911TIP3    H127292   5.692   1.257   6.379 -2.0765  0.4337  2.1315
 1911TIP3    H227293   5.548   1.247   6.333 -0.7668  0.1716 -2.4120
 1912TIP3   OH227294   6.930   3.386   7.374 -0.0256  0.1656  0.0047
 1912TIP3    H127295   6.890   3.425   7.452  0.1177  2.1321 -0.8401
 1912TIP3    H227296   7.003   3.444   7.353  0.4992 -0.8501 -1.0736
 1913TIP3   OH227297   4.637   0.193   7.824  0.3678  0.2146 -0.7799
 1913TIP3    H127298   4.608   0.252   7.893  1.6786 -0.0508  0.0352
 1913TIP3    H227299   4.720   0.230   7.793  0.8616 -0.7958 -0.7357
 1914TIP3   OH227300   0.086   2.355   7.656 -0.1867  0.2339 -0.2621
 1914TIP3    H127301   0.154   2.409   7.696  0.5348  1.4460 -2.9398
 1914TIP3    H227302   0.015   2.416   7.637 -1.1764 -0.6254  0.5448
 1915TIP3   OH227303   4.127   2.748   2.261 -0.0574 -0.5082  0.0103
 1915TIP3    H127304   4.183   2.807   2.212 -0.8686 -0.9474 -1.5041
 1915TIP3    H227305   4.186   2.702   2.320  0.7007  1.2334  0.6816
 1916TIP3   OH227306   4.962   1.476   1.684 -0.0188  0.4799  0.1791
 1916TIP3    H127307   4.892   1.468   1.749  0.9963  1.9098  1.5188
 1916TIP3    H227308   5.035   1.425   1.721  0.7472  1.7420  0.4870
 1917TIP3   OH227309   4.144   5.551   0.067  0.4037  0.1548 -0.0488
 1917TIP3    H127310   4.120   5.473   0.118 -1.5525  1.3525  0.9933
 1917TIP3    H227311   4.120   5.624   0.123  0.4901  1.5321 -1.7340
 1918TIP3   OH227312   3.003   1.814   0.543 -0.2098  0.7811 -0.8884
 1918TIP3    H127313   3.027   1.724   0.564 -0.5056  0.8830 -0.0605
 1918TIP3    H227314   3.079   1.866   0.571 -0.3564  0.8578 -0.6242
 1919TIP3   OH227315   3.377   0.320   8.323 -0.4053  0.2079  0.3977
 1919TIP3    H127316   3.437   0.392   8.305 -0.9336  0.9777  1.6453
 1919TIP3    H227317   3.292   0.350   8.292 -0.4853 -0.1963  0.2128
 1920TIP3   OH227318   4.778   1.799   1.614  0.7183 -0.0163 -0.4498
 1920TIP3    H127319   4.816   1.885   1.594  2.2042 -0.9530 -1.7604
 1920TIP3    H227320   4.826   1.769   1.691  1.2013 -0.2807 -0.8480
 1921TIP3   OH227321   4.416   4.091   1.222  0.4771  0.3419  0.8532
 1921TIP3    H127322   4.499   4.101   1.176  0.0926 -0.0569  0.0480
 1921TIP3    H227323   4.400   4.176   1.263  0.7684  0.7367  0.1485
 1922TIP3   OH227324   2.414   2.314   8.326  0.0511 -0.4917  0.1929
 1922TIP3    H127325   2.360   2.238   8.307  0.9605 -0.7055 -1.8107
 1922TIP3    H227326   2.476   2.284   8.393  0.7770 -1.7330 -0.9911
 1923TIP3   OH227327   3.001   2.644   1.100  0.3001  0.0002 -0.4547
 1923TIP3    H127328   2.985   2.561   1.144  2.2663 -0.5024 -0.6138
 1923TIP3    H227329   2.927   2.699   1.125 -0.2646 -1.3074  0.8661
 1924TIP3   OH227330   1.485   0.547   1.407  0.2672  0.3500  0.2048
 1924TIP3    H127331   1.398   0.512   1.423  0.1770 -0.3029 -1.5701
 1924TIP3    H227332   1.537   0.471   1.380  1.2885  0.8074  0.8068
 1925TIP3   OH227333   3.151   5.348   7.234  0.6978 -0.3656  0.5270
 1925TIP3    H127334   3.239   5.319   7.260  0.6669 -0.2769  0.7309
 1925TIP3    H227335   3.102   5.267   7.220  1.0437 -0.4210 -0.3784
 1926TIP3   OH227336   1.791   5.947   0.141 -0.2109 -0.3574 -0.0112
 1926TIP3    H127337   1.883   5.933   0.118 -0.1946  0.6654 -0.6807
 1926TIP3    H227338   1.790   6.031   0.186 -0.9410  0.1987 -1.0080
 1927TIP3   OH227339   0.342   0.018   5.853  0.3861  0.6523  0.2708
 1927TIP3    H127340   0.288  -0.061   5.852 -0.6765  1.3521 -1.0945
 1927TIP3    H227341   0.291   0.083   5.804  2.2942  1.4513 -0.7810
 1928TIP3   OH227342   6.343   4.452   6.662 -0.0758 -0.1889  0.2578
 1928TIP3    H127343   6.268   4.481   6.714 -0.4765 -0.3271 -0.2323
 1928TIP3    H227344   6.323   4.480   6.573  0.8883  0.5860  0.2674
 1929TIP3   OH227345   6.695   3.495   0.796 -0.1940  0.4506 -0.7214
 1929TIP3    H127346   6.603   3.497   0.770 -0.2833  0.8537 -0.3810
 1929TIP3    H227347   6.717   3.586   0.814 -0.2739  0.1536  1.0542
 1930TIP3   OH227348   4.832   3.566   0.683 -0.0584 -0.2969 -0.1192
 1930TIP3    H127349   4.842   3.599   0.772  0.0243  0.0351 -0.2462
 1930TIP3    H227350   4.867   3.477   0.685 -0.2983 -0.3837  0.2384
 1931TIP3   OH227351   0.515   5.955   7.848  0.2203  0.2279  0.1739
 1931TIP3    H127352   0.448   5.892   7.875 -0.2573  0.1579 -1.1216
 1931TIP3    H227353   0.469   6.017   7.792  0.3658  2.6110  2.4961
 1932TIP3   OH227354   3.982   6.947   1.569 -0.4089 -0.4248 -0.0546
 1932TIP3    H127355   3.957   6.966   1.659 -1.1079 -0.6128 -0.1998
 1932TIP3    H227356   3.933   7.011   1.517  0.2122 -0.1259 -0.2861
 1933TIP3   OH227357   6.069   5.425   6.590 -0.4918 -0.3803 -0.1070
 1933TIP3    H127358   6.087   5.488   6.521 -0.7274 -0.1731  0.0178
 1933TIP3    H227359   6.037   5.347   6.544  0.9556 -0.8527 -0.3458
 1934TIP3   OH227360   2.709   4.101   8.341 -0.8056 -0.2180  0.4200
 1934TIP3    H127361   2.617   4.098   8.369 -0.9734 -0.8864 -0.1724
 1934TIP3    H227362   2.709   4.060   8.254 -0.0397  0.3319  0.1436
 1935TIP3   OH227363   0.676   1.714   6.445  0.6970  0.3984 -0.2763
 1935TIP3    H127364   0.758   1.745   6.485 -0.3959  0.6386  1.9260
 1935TIP3    H227365   0.617   1.788   6.452  0.3330  0.3149 -2.1059
 1936TIP3   OH227366   0.816   5.795   7.717 -0.0065  0.7093  0.1171
 1936TIP3    H127367   0.792   5.863   7.780  0.8815  0.3593  0.8455
 1936TIP3    H227368   0.905   5.770   7.741  0.3992  0.6366 -1.3396
 1937TIP3   OH227369   5.116   3.382   2.069  0.0849  0.3192 -0.4821
 1937TIP3    H127370   5.082   3.432   2.144  2.0863  2.3729 -0.8219
 1937TIP3    H227371   5.043   3.380   2.007 -0.3470  2.2562 -0.1313
 1938TIP3   OH227372   0.011   1.204   7.730  0.5249  0.3597 -0.0369
 1938TIP3    H127373  -0.031   1.276   7.776 -0.4973 -1.4737  2.0962
 1938TIP3    H227374   0.104   1.213   7.753  0.4118  0.9785  0.2108
 1939TIP3   OH227375   0.238   4.945   7.582  0.3804  0.1873 -0.5710
 1939TIP3    H127376   0.296   4.936   7.657  0.8971  2.5747 -0.5966
 1939TIP3    H227377   0.256   5.033   7.548 -1.0001 -0.2095 -2.5090
 1940TIP3   OH227378   2.743   2.922   7.558 -0.2796 -0.4128 -0.4962
 1940TIP3    H127379   2.710   2.859   7.494  0.1510 -1.2940  0.1314
 1940TIP3    H227380   2.773   2.869   7.631 -0.0870  0.5380  0.1354
 1941TIP3   OH227381   6.393   4.043   0.685  0.1386 -0.6941  0.4447
 1941TIP3    H127382   6.332   4.110   0.714  0.2212 -0.2472 -0.3731
 1941TIP3    H227383   6.370   4.029   0.593  1.2591 -0.5311  0.1276
 1942TIP3   OH227384   2.446   1.559   6.732  0.1023 -0.2064 -0.1116
 1942TIP3    H127385   2.426   1.644   6.694 -4.4055 -1.7266 -1.7553
 1942TIP3    H227386   2.534   1.539   6.700 -0.4485  1.9506 -3.5130
 1943TIP3   OH227387   3.634   1.430   0.546  0.0243  0.8194  0.4375
 1943TIP3    H127388   3.550   1.391   0.523 -0.4476  2.0422  0.0406
 1943TIP3    H227389   3.620   1.524   0.539  1.8706  1.0244 -1.1710
 1944TIP3   OH227390   1.176   0.566   7.731 -0.0932  0.8284  0.0497
 1944TIP3    H127391   1.254   0.520   7.762 -1.4991 -0.7325  1.5015
 1944TIP3    H227392   1.104   0.507   7.752 -1.6206  1.8152 -2.0437
 1945TIP3   OH227393   1.485   2.960   6.219 -0.1115  0.6231 -0.4600
 1945TIP3    H127394   1.518   3.005   6.297  2.9951 -0.5490 -0.9449
 1945TIP3    H227395   1.470   3.030   6.155  0.0591  1.3474  0.2694
 1946TIP3   OH227396   1.004   6.259   6.952  0.0340  0.4633  0.3438
 1946TIP3    H127397   1.059   6.199   6.902 -0.8579  0.8911 -1.2258
 1946TIP3    H227398   1.044   6.345   6.938 -0.2712  0.5977  0.2874
 1947TIP3   OH227399   6.623   2.587   1.375 -0.2133  0.0517 -0.1803
 1947TIP3    H127400   6.612   2.613   1.466 -0.7383  3.6706 -1.0901
 1947TIP3    H227401   6.710   2.618   1.351  0.1347 -1.3255 -0.8171
 1948TIP3   OH227402   3.051   6.047   1.795 -0.2983 -1.2723 -0.2729
 1948TIP3    H127403   3.016   6.122   1.842  0.3810 -0.2337 -1.3755
 1948TIP3    H227404   3.143   6.044   1.818  0.6121  0.6487 -3.1589
 1949TIP3   OH227405   5.225   6.605   1.815  0.3501 -0.2602  0.1618
 1949TIP3    H127406   5.219   6.576   1.724 -0.8083 -0.3592  0.2554
 1949TIP3    H227407   5.261   6.693   1.810 -0.6087  0.1094 -0.4638
 1950TIP3   OH227408   1.867   2.430   6.872  0.5826 -0.0399 -0.4053
 1950TIP3    H127409   1.851   2.344   6.911  1.7732 -0.4330 -0.7117
 1950TIP3    H227410   1.961   2.445   6.887 -0.0475  2.4030  1.9798
 1951TIP3   OH227411   3.195   3.384   6.539 -0.0285 -0.4100  0.3282
 1951TIP3    H127412   3.116   3.413   6.585  0.2248  2.1459 -0.6872
 1951TIP3    H227413   3.161   3.337   6.462 -0.5308 -0.2278  0.4326
 1952TIP3   OH227414   4.261   0.409   0.508 -0.2462  0.2601  0.0420
 1952TIP3    H127415   4.255   0.315   0.526 -0.8329  0.4662  0.9824
 1952TIP3    H227416   4.170   0.440   0.510 -0.1324  0.7270 -1.0271
 1953TIP3   OH227417   3.044   5.729   7.327  0.0591  0.1902 -0.8114
 1953TIP3    H127418   2.958   5.728   7.371 -1.7276  2.7527 -3.8407
 1953TIP3    H227419   3.042   5.652   7.271 -0.4188  0.3947 -1.0855
 1954TIP3   OH227420   3.455   2.504   2.598 -0.4454 -0.3260  0.0249
 1954TIP3    H127421   3.399   2.436   2.561 -0.8711  1.0268 -2.0016
 1954TIP3    H227422   3.518   2.457   2.652 -0.8106 -2.3100 -1.1770
 1955TIP3   OH227423   0.819   3.346   7.110 -0.0939  0.0683 -0.2713
 1955TIP3    H127424   0.801   3.289   7.035 -1.0378  0.0060 -0.0213
 1955TIP3    H227425   0.772   3.427   7.091  0.0544  0.2289  0.0357
 1956TIP3   OH227426   5.638   1.384   7.906  0.2967  0.1522 -0.2102
 1956TIP3    H127427   5.644   1.377   8.001 -1.5353  1.6732  0.0761
 1956TIP3    H227428   5.546   1.364   7.887  0.4201  0.7904 -1.5671
 1957TIP3   OH227429   4.508   6.894   1.866  0.6479 -0.1549  0.0310
 1957TIP3    H127430   4.546   6.868   1.951  1.7414  1.2666  0.0053
 1957TIP3    H227431   4.425   6.846   1.862  0.4835 -0.1373  1.9893
 1958TIP3   OH227432   0.253   2.226   1.032 -0.3659  0.0763 -0.0937
 1958TIP3    H127433   0.330   2.171   1.023  0.5181  0.3889  3.9118
 1958TIP3    H227434   0.261   2.266   1.118 -4.1396  1.5308 -0.2077
 1959TIP3   OH227435   4.092   3.157   1.474 -0.0449  0.4083 -0.1304
 1959TIP3    H127436   4.055   3.239   1.441  1.9367  1.4819  0.1132
 1959TIP3    H227437   4.127   3.114   1.396  0.8094  0.8726 -0.0271
 1960TIP3   OH227438   3.635   5.619   8.172 -0.6660 -0.4367 -0.3601
 1960TIP3    H127439   3.580   5.692   8.143  0.6730  0.8066  0.0942
 1960TIP3    H227440   3.661   5.642   8.261  0.0521 -1.2979 -0.3290
 1961TIP3   OH227441   0.750   1.781   0.427 -0.4901 -0.5768 -0.1885
 1961TIP3    H127442   0.782   1.774   0.338  0.6808 -0.1561  0.1870
 1961TIP3    H227443   0.803   1.849   0.468 -2.1883  0.5021  0.3370
 1962TIP3   OH227444   1.355   2.754   7.705  0.1954 -0.2507  0.2160
 1962TIP3    H127445   1.318   2.755   7.793  0.2667 -2.5992  0.3534
 1962TIP3    H227446   1.432   2.811   7.710 -0.5080  0.6147  1.3272
 1963TIP3   OH227447   5.212   5.068   7.025  0.1988 -0.5058 -0.3319
 1963TIP3    H127448   5.149   5.135   7.048  0.3028 -0.9373  1.3354
 1963TIP3    H227449   5.188   5.041   6.936 -2.0872 -0.7908  0.3248
 1964TIP3   OH227450   6.017   3.472   6.803  0.0930  0.0416  0.4476
 1964TIP3    H127451   6.031   3.391   6.852 -0.6441  0.0954  0.7551
 1964TIP3    H227452   5.971   3.529   6.865 -0.2611  0.3445 -0.0925
 1965TIP3   OH227453   5.454   5.970   6.652  0.7052  0.4194 -0.0299
 1965TIP3    H127454   5.438   5.933   6.565 -1.0259  0.8370  0.0586
 1965TIP3    H227455   5.411   6.055   6.650 -0.3123  0.0017  1.5397
 1966TIP3   OH227456   6.317   5.484   7.782 -0.2690  0.4815  0.1881
 1966TIP3    H127457   6.283   5.546   7.718  0.2880 -0.7989 -1.4274
 1966TIP3    H227458   6.239   5.440   7.817 -0.6506  1.9181  1.2157
 1967TIP3   OH227459   0.375   6.529   7.407  0.2325  0.0550  0.1626
 1967TIP3    H127460   0.323   6.487   7.476 -0.4064 -0.4287 -0.5922
 1967TIP3    H227461   0.464   6.531   7.443  0.0373 -0.7831  0.7460
 1968TIP3   OH227462   1.289   5.894   7.461  0.1092  0.3850 -0.1913
 1968TIP3    H127463   1.245   5.817   7.496  0.8366  1.7117  4.3584
 1968TIP3    H227464   1.382   5.872   7.465  0.2510  0.1154 -2.9943
 1969TIP3   OH227465   6.261   5.827   8.071  0.1058 -0.9374 -0.0987
 1969TIP3    H127466   6.177   5.866   8.096 -0.9267 -1.3642 -2.5584
 1969TIP3    H227467   6.318   5.901   8.053  0.4025 -0.6419  1.8511
 1970TIP3   OH227468   6.942   5.292   0.189  0.2018  1.1757  0.1804
 1970TIP3    H127469   7.019   5.268   0.137  0.6081 -0.1528  1.3102
 1970TIP3    H227470   6.934   5.386   0.179 -0.2773  0.8811 -2.9556
 1971TIP3   OH227471   1.019   6.936   6.289 -0.5630 -0.0811  0.0677
 1971TIP3    H127472   1.113   6.954   6.294 -0.5618 -0.3020  1.3289
 1971TIP3    H227473   0.982   6.984   6.364 -1.1274 -1.7783  0.9243
 1972TIP3   OH227474   3.501   2.660   6.973 -0.1308 -0.2060  0.0073
 1972TIP3    H127475   3.544   2.659   6.888 -0.1091  0.6013 -0.0003
 1972TIP3    H227476   3.503   2.568   7.002  3.1344 -0.0160  0.7842
 1973TIP3   OH227477   3.181   2.372   6.391 -0.0317  0.1936  0.3269
 1973TIP3    H127478   3.187   2.279   6.410  0.9984 -0.1063 -1.2358
 1973TIP3    H227479   3.089   2.387   6.370 -0.9384  0.2842  3.8357
 1974TIP3   OH227480   2.716   6.557   7.671 -0.0391 -0.5321  0.0179
 1974TIP3    H127481   2.643   6.618   7.667 -0.7175 -1.3740 -2.9499
 1974TIP3    H227482   2.676   6.472   7.691  0.5345 -0.5369  1.2494
 1975TIP3   OH227483   2.542   4.393   0.203 -0.2747 -0.1578  0.1775
 1975TIP3    H127484   2.519   4.426   0.290 -0.7422 -0.8734  0.3367
 1975TIP3    H227485   2.478   4.434   0.145 -0.2246 -0.0046  0.2289
 1976TIP3   OH227486   0.053   1.501   0.490  0.1402  0.1237 -0.0484
 1976TIP3    H127487   0.077   1.566   0.555 -0.4317  1.4442 -1.1187
 1976TIP3    H227488   0.001   1.549   0.426  0.6269 -1.1472 -1.4484
 1977TIP3   OH227489   6.513   0.454   0.049  0.1015  0.4198 -0.2308
 1977TIP3    H127490   6.465   0.373   0.029  2.5509 -1.3667  0.6918
 1977TIP3    H227491   6.498   0.468   0.143  2.0671 -0.6975  0.2844
 1978TIP3   OH227492   1.301   5.476   7.387 -0.0520  0.3940  0.1964
 1978TIP3    H127493   1.303   5.382   7.399  1.5263  0.3051 -0.4870
 1978TIP3    H227494   1.392   5.504   7.399 -0.1951  1.6038 -1.2152
 1979TIP3   OH227495   6.457   0.093   6.419  0.3238  0.0768  0.5463
 1979TIP3    H127496   6.369   0.100   6.380  0.1502  1.5335  1.1579
 1979TIP3    H227497   6.470  -0.001   6.431 -1.6963 -0.1247  1.6214
 1980TIP3   OH227498   5.163   6.739   1.390  0.7271 -1.1154 -0.7059
 1980TIP3    H127499   5.097   6.768   1.327  0.1285  0.2527  0.4672
 1980TIP3    H227500   5.216   6.676   1.343 -0.6401 -1.2876 -2.0883
 1981TIP3   OH227501   1.034   2.154   7.966  0.1260 -0.5789 -0.3376
 1981TIP3    H127502   1.098   2.086   7.988 -0.2035 -0.1290  2.4004
 1981TIP3    H227503   1.087   2.231   7.947  0.4416 -0.8792 -0.6965
 1982TIP3   OH227504   5.757   1.096   6.158 -0.9776  0.4546 -0.0606
 1982TIP3    H127505   5.841   1.137   6.179 -0.2524 -0.6848 -0.6541
 1982TIP3    H227506   5.694   1.168   6.162 -0.2623  1.0434  2.0063
 1983TIP3   OH227507   6.752   4.465   7.806 -0.4510 -0.1910 -0.3502
 1983TIP3    H127508   6.733   4.426   7.891 -2.8209 -0.2825 -0.8510
 1983TIP3    H227509   6.771   4.556   7.824  1.3897 -0.6908  0.4648
 1984TIP3   OH227510   6.330   4.692   0.135  0.7913  0.2280 -0.2218
 1984TIP3    H127511   6.249   4.641   0.131  1.5426 -1.0109 -0.1656
 1984TIP3    H227512   6.357   4.685   0.226  1.3353  0.0114 -0.3971
 1985TIP3   OH227513   6.815   2.654   7.974  0.2030 -0.1596  0.4341
 1985TIP3    H127514   6.896   2.673   7.927  0.2997 -1.7924 -0.1036
 1985TIP3    H227515   6.798   2.734   8.025  0.0011  1.7818 -2.4217
 1986TIP3   OH227516   5.707   3.453   6.644  0.1620 -0.5543 -0.1268
 1986TIP3    H127517   5.745   3.493   6.722 -0.2347 -1.9029  0.7870
 1986TIP3    H227518   5.726   3.360   6.654 -1.6244 -0.9948 -0.6487
 1987TIP3   OH227519   0.560   2.891   8.272  0.7340  0.7976 -0.3553
 1987TIP3    H127520   0.645   2.851   8.290  0.1790 -1.2210 -1.9093
 1987TIP3    H227521   0.501   2.850   8.335  0.5170  0.5831 -0.6964
 1988TIP3   OH227522   5.306   0.210   1.641  0.2597 -0.5142  0.0368
 1988TIP3    H127523   5.298   0.140   1.577  0.7564  0.5037 -1.1802
 1988TIP3    H227524   5.371   0.177   1.704 -0.5543 -1.7012  0.2969
 1989TIP3   OH227525   4.292   5.881   7.607  0.3464 -0.2951  0.2334
 1989TIP3    H127526   4.328   5.816   7.667  1.3210  0.9901  1.0867
 1989TIP3    H227527   4.215   5.915   7.652 -0.0685 -0.7191 -0.1411
 1990TIP3   OH227528   4.112   0.185   0.720  0.0877 -0.4512 -0.0931
 1990TIP3    H127529   4.190   0.225   0.758  0.3486  0.0012 -1.0729
 1990TIP3    H227530   4.045   0.252   0.725  0.1853 -0.3079 -0.6191
 1991TIP3   OH227531   5.458   0.582   6.175  0.2348 -0.1780 -0.3999
 1991TIP3    H127532   5.482   0.627   6.094  4.6029  0.2635  0.8854
 1991TIP3    H227533   5.427   0.652   6.233  2.5821  0.5612  0.0640
 1992TIP3   OH227534   6.708   6.667   1.193  0.4896 -0.8480  0.2435
 1992TIP3    H127535   6.619   6.631   1.187  0.8238 -1.5539 -0.8074
 1992TIP3    H227536   6.708   6.741   1.132  1.0874 -1.9027 -1.0787
 1993TIP3   OH227537   6.618   5.791   7.377  0.4815 -0.1522  0.3666
 1993TIP3    H127538   6.679   5.824   7.442 -0.0439 -0.2358  0.9129
 1993TIP3    H227539   6.672   5.773   7.300  0.6405  2.9685 -0.3570
 1994TIP3   OH227540   1.858   6.240   2.852  0.9134 -0.3456  0.3214
 1994TIP3    H127541   1.934   6.295   2.873  0.6525  0.1148  0.0837
 1994TIP3    H227542   1.796   6.300   2.810  0.0773 -0.5361  1.2512
 1995TIP3   OH227543   5.187   2.959   6.707  0.0694  0.6661 -0.3653
 1995TIP3    H127544   5.158   3.026   6.645 -1.8445  0.5432  0.3016
 1995TIP3    H227545   5.145   2.984   6.790  1.6578  0.2103  0.6222
 1996TIP3   OH227546   4.231   2.346   0.832 -0.1959  0.1187 -0.1648
 1996TIP3    H127547   4.254   2.397   0.910 -1.6382  0.5080  0.0359
 1996TIP3    H227548   4.231   2.255   0.862  1.4381  0.0372 -0.2883
 1997TIP3   OH227549   3.509   3.448   6.205 -0.1368 -0.3000  0.2227
 1997TIP3    H127550   3.487   3.408   6.289 -0.9554 -0.6491 -0.1440
 1997TIP3    H227551   3.573   3.515   6.226 -1.3755  0.5766  1.3164
 1998TIP3   OH227552   2.948   2.198   7.873 -0.4088 -0.0736  0.3864
 1998TIP3    H127553   3.005   2.202   7.797  0.5350 -4.5426  0.5474
 1998TIP3    H227554   3.005   2.216   7.947  0.2955 -2.0406  0.3722
 1999TIP3   OH227555   4.728   2.874   0.568  0.7749  0.1389 -0.2360
 1999TIP3    H127556   4.693   2.798   0.614  1.7661 -0.6951 -0.7942
 1999TIP3    H227557   4.775   2.837   0.493 -1.3537  1.4743 -2.3652
 2000TIP3   OH227558   1.744   4.560   8.204  0.1136 -0.5259  0.5995
 2000TIP3    H127559   1.771   4.602   8.286 -0.2081  0.6180  0.1296
 2000TIP3    H227560   1.700   4.480   8.232  0.1937 -0.2535  1.5427
 2001TIP3   OH227561   2.782   0.880   8.258 -0.3315  0.0666  1.0084
 2001TIP3    H127562   2.787   0.898   8.352 -1.5982  1.3600  0.8523
 2001TIP3    H227563   2.727   0.950   8.223 -1.3812 -1.4100 -0.4258
 2002TIP3   OH227564   5.090   6.040   1.253 -0.2986 -0.0582  0.2463
 2002TIP3    H127565   5.078   5.946   1.270  0.7676 -0.3947 -0.7090
 2002TIP3    H227566   5.101   6.045   1.158  0.9114  0.8882  0.4222
 2003TIP3   OH227567   5.476   3.016   7.397 -0.4379  0.2466 -0.1243
 2003TIP3    H127568   5.510   3.103   7.375  0.4322  0.3534  1.5296
 2003TIP3    H227569   5.423   3.029   7.475 -0.8388 -0.6160 -0.2358
 2004TIP3   OH227570   2.786   0.906   0.578 -0.2748  0.9264  0.3606
 2004TIP3    H127571   2.876   0.876   0.570 -0.6169 -0.0152 -0.1077
 2004TIP3    H227572   2.747   0.848   0.644 -1.0664 -0.0190 -0.8856
 2005TIP3   OH227573   0.319   2.884   7.586 -0.0353 -0.7204  0.7866
 2005TIP3    H127574   0.378   2.844   7.523 -0.8218 -1.9585  0.8091
 2005TIP3    H227575   0.231   2.865   7.553 -0.4388  0.7194  0.9780
 2006TIP3   OH227576   3.699   3.121   8.154  0.2291 -0.1762 -0.1767
 2006TIP3    H127577   3.768   3.184   8.177  1.7211 -1.4027 -1.1116
 2006TIP3    H227578   3.708   3.109   8.060 -3.3201  1.8959 -0.9660
 2007TIP3   OH227579   5.229   5.069   1.516  0.1979  0.2465 -0.3259
 2007TIP3    H127580   5.192   5.054   1.429 -1.6733  1.4667  0.2106
 2007TIP3    H227581   5.160   5.113   1.565  1.9800  1.5945  1.1254
 2008TIP3   OH227582   4.124   5.401   0.384 -0.2810  0.4920  0.0035
 2008TIP3    H127583   4.050   5.352   0.420 -1.0354 -0.7434 -2.9410
 2008TIP3    H227584   4.095   5.492   0.381 -1.3505  0.1518 -0.2832
 2009TIP3   OH227585   0.818   3.790   6.721 -0.1920  0.0794 -0.0251
 2009TIP3    H127586   0.876   3.714   6.726 -1.4602 -0.8578  1.0901
 2009TIP3    H227587   0.770   3.778   6.640 -0.1486 -0.1247 -0.0214
 2010TIP3   OH227588   6.811   3.334   0.611  0.1558  0.1594  0.5003
 2010TIP3    H127589   6.794   3.376   0.695  1.1044 -0.9089  1.2676
 2010TIP3    H227590   6.759   3.253   0.614  0.2972  0.0526  0.1230
 2011TIP3   OH227591   1.101   1.595   1.108  0.8496  0.3742 -0.4623
 2011TIP3    H127592   1.090   1.533   1.036  1.2665  1.4049 -1.4376
 2011TIP3    H227593   1.181   1.566   1.153  1.9585  1.1119 -1.8833
 2012TIP3   OH227594   5.011   2.575   0.465 -0.5094  0.3687 -0.5775
 2012TIP3    H127595   4.969   2.544   0.545 -1.0984  0.0054 -1.0149
 2012TIP3    H227596   5.064   2.501   0.435  2.1280  1.4752  1.0480
 2013TIP3   OH227597   5.335   0.515   0.966 -0.6308 -0.0497  0.2700
 2013TIP3    H127598   5.290   0.439   0.928  1.9856 -1.1504 -0.8929
 2013TIP3    H227599   5.362   0.567   0.890  2.6868 -1.0933  0.5889
 2014TIP3   OH227600   6.937   0.269   7.452  0.2195 -0.1261  0.6120
 2014TIP3    H127601   6.969   0.327   7.383 -1.1117 -0.3298 -0.2149
 2014TIP3    H227602   7.000   0.279   7.523  0.9057  1.0840 -0.1328
 2015TIP3   OH227603   4.121   1.318   0.000 -0.5438 -0.0533  0.2108
 2015TIP3    H127604   4.124   1.223  -0.003 -0.2317 -0.0982  1.2613
 2015TIP3    H227605   4.167   1.341   0.081 -0.9301  0.9670  0.1678
 2016TIP3   OH227606   0.317   0.265   0.082  0.1825 -0.0740 -0.6266
 2016TIP3    H127607   0.290   0.292  -0.005 -0.9476 -0.2199 -0.3303
 2016TIP3    H227608   0.379   0.332   0.110 -1.7788  1.6973 -0.3130
 2017TIP3   OH227609   3.655   1.110   1.443 -0.1786 -0.2295 -0.3365
 2017TIP3    H127610   3.628   1.125   1.534 -0.2606  0.5961 -0.4943
 2017TIP3    H227611   3.750   1.095   1.449  0.4763  3.1110 -0.4142
 2018TIP3   OH227612   0.328   0.163   1.032  0.1060 -0.4426  0.2921
 2018TIP3    H127613   0.301   0.245   0.991 -0.3009 -1.1543 -0.9035
 2018TIP3    H227614   0.350   0.105   0.959  0.7161 -1.3019  1.1218
 2019TIP3   OH227615   6.380   5.621   8.247  0.6888  0.2571 -0.0548
 2019TIP3    H127616   6.298   5.658   8.212  1.9722  1.9284 -1.4602
 2019TIP3    H227617   6.421   5.579   8.172  1.8277  0.7847  0.2583
 2020TIP3   OH227618   0.064   4.730   6.899 -0.0177  0.0598 -0.5821
 2020TIP3    H127619   0.012   4.792   6.848  1.9166  1.5526 -0.9048
 2020TIP3    H227620   0.120   4.786   6.953  1.1557 -1.4246 -0.1936
 2021TIP3   OH227621   3.039   4.056   6.291  0.3027 -0.5037  0.3463
 2021TIP3    H127622   3.009   4.143   6.264 -0.1745 -0.1235  1.9973
 2021TIP3    H227623   3.001   3.997   6.226 -0.3976  0.3998 -0.0988
 2022TIP3   OH227624   5.528   6.643   2.015  0.4839  0.6816  0.0795
 2022TIP3    H127625   5.485   6.576   2.070 -0.3690  1.2715  0.1544
 2022TIP3    H227626   5.586   6.690   2.075  1.3342 -0.1886 -0.0419
 2023TIP3   OH227627   0.425   2.512   7.293 -0.0038 -0.2995 -0.6862
 2023TIP3    H127628   0.473   2.431   7.307  1.1794  0.3500 -0.8645
 2023TIP3    H227629   0.406   2.512   7.199 -0.6529 -0.7063 -0.5619
 2024TIP3   OH227630   3.598   5.241   0.248 -0.6007 -0.1496  0.0786
 2024TIP3    H127631   3.639   5.321   0.215 -2.7507  1.5322  1.2018
 2024TIP3    H227632   3.521   5.229   0.191 -1.8754  0.2723  1.6324
 2025TIP3   OH227633   1.467   3.731   7.914  0.5142  0.2877 -0.3845
 2025TIP3    H127634   1.377   3.699   7.913  0.9854 -1.1017 -0.5100
 2025TIP3    H227635   1.483   3.762   7.824  0.3528 -0.0161 -0.5177
 2026TIP3   OH227636   1.913   4.282   6.281  0.7323  0.1802 -0.4588
 2026TIP3    H127637   1.940   4.199   6.318  0.6013  0.3783  0.0888
 2026TIP3    H227638   1.824   4.266   6.248  1.1177 -0.1918 -1.3507
 2027TIP3   OH227639   0.413   4.019   7.137 -0.1148 -0.3351  0.3861
 2027TIP3    H127640   0.317   4.024   7.133 -0.0630 -0.2304 -1.0919
 2027TIP3    H227641   0.440   4.105   7.168 -0.4874 -0.3049  0.6344
 2028TIP3   OH227642   3.298   3.305   6.096 -0.2836  0.1785 -0.6344
 2028TIP3    H127643   3.368   3.362   6.127  0.6096 -1.2823  0.1694
 2028TIP3    H227644   3.308   3.304   6.001  0.5961  0.2520 -0.5538
 2029TIP3   OH227645   1.042   0.221   2.433 -0.0042 -0.2326 -0.1721
 2029TIP3    H127646   1.092   0.208   2.513  1.9255 -1.9278 -1.5505
 2029TIP3    H227647   1.001   0.137   2.415 -1.2437  0.4016 -0.4814
 2030TIP3   OH227648   6.044   3.260   1.384 -0.4201 -0.2995 -0.0758
 2030TIP3    H127649   6.047   3.180   1.331 -1.3896 -1.9198  2.1598
 2030TIP3    H227650   6.124   3.256   1.437 -0.5872  0.1042  0.2035
 2031TIP3   OH227651   4.108   3.767   7.163  0.2169 -0.3227  0.7578
 2031TIP3    H127652   4.094   3.741   7.254  0.1044 -2.3577  0.2177
 2031TIP3    H227653   4.040   3.720   7.114  0.8165  0.0331 -0.4637
 2032TIP3   OH227654   1.130   3.889   0.087 -0.4807 -0.5789  0.1213
 2032TIP3    H127655   1.049   3.924   0.050 -0.6548 -0.0517  0.9713
 2032TIP3    H227656   1.101   3.818   0.144 -0.3450 -0.4354  0.3722
 2033TIP3   OH227657   6.084   1.137   7.577  0.1463  0.3590  0.5995
 2033TIP3    H127658   6.097   1.108   7.667  1.1998  1.3607  0.7907
 2033TIP3    H227659   6.137   1.077   7.525 -0.5078 -0.2564  0.6222
 2034TIP3   OH227660   6.455   1.612   2.124  0.9597 -0.9269  0.0339
 2034TIP3    H127661   6.440   1.594   2.031  1.8671 -1.1474 -0.0812
 2034TIP3    H227662   6.487   1.529   2.160 -0.1303 -1.0632  0.7254
 2035TIP3   OH227663   5.182   1.565   6.292 -0.2472 -0.6104 -0.0442
 2035TIP3    H127664   5.261   1.547   6.241 -0.6780 -0.2459 -0.8595
 2035TIP3    H227665   5.151   1.479   6.320 -0.3887 -0.8808 -0.9958
 2036TIP3   OH227666   0.101   2.679   6.559  0.3706  0.1553 -0.2304
 2036TIP3    H127667   0.122   2.765   6.522  0.5909 -0.4505 -1.5981
 2036TIP3    H227668   0.034   2.696   6.624  0.5806  1.3880 -0.3124
 2037TIP3   OH227669   5.063   4.202   0.263  0.2093  0.0198 -0.1705
 2037TIP3    H127670   5.004   4.230   0.334 -1.1465 -1.9927 -0.4305
 2037TIP3    H227671   5.015   4.224   0.183 -0.3221 -1.7707 -0.3836
 2038TIP3   OH227672   5.969   1.563   1.359 -0.2344 -0.3320  0.2922
 2038TIP3    H127673   5.911   1.635   1.335 -2.2907 -1.4338  1.6558
 2038TIP3    H227674   5.953   1.496   1.293  2.4098  0.6611 -1.5727
 2039TIP3   OH227675   5.097   6.233   7.431  0.3167 -0.3407  0.2853
 2039TIP3    H127676   5.182   6.191   7.426  0.0854 -0.6877 -1.0930
 2039TIP3    H227677   5.096   6.296   7.359 -0.6947 -0.5642  0.0761
 2040TIP3   OH227678   1.601   1.769   0.534  0.5042 -0.3415  0.0965
 2040TIP3    H127679   1.650   1.812   0.464  0.2385 -1.2809 -0.6884
 2040TIP3    H227680   1.661   1.770   0.609  1.0595  0.0693 -0.3430
 2041TIP3   OH227681   6.511   4.842   6.978 -0.2060  0.2094 -0.1101
 2041TIP3    H127682   6.458   4.855   6.899 -0.4947 -0.0556  0.0392
 2041TIP3    H227683   6.473   4.766   7.021  1.5764 -1.2938 -1.0569
 2042TIP3   OH227684   6.711   0.187   0.195  0.3845 -0.2792 -0.0514
 2042TIP3    H127685   6.715   0.264   0.251  1.4411 -0.6864  0.4663
 2042TIP3    H227686   6.682   0.117   0.253 -2.5355  0.0365 -0.9309
 2043TIP3   OH227687   2.671   2.897   7.077 -0.1750 -0.1295 -0.2351
 2043TIP3    H127688   2.604   2.950   7.120 -0.9221 -2.1677  1.2368
 2043TIP3    H227689   2.746   2.900   7.136 -0.0382 -0.3052 -0.3974
 2044TIP3   OH227690   4.371   5.506   0.280 -0.0701  0.4323  0.6040
 2044TIP3    H127691   4.309   5.442   0.314  1.4472 -0.1072  2.5438
 2044TIP3    H227692   4.357   5.585   0.333  0.2915  0.6036  0.4529
 2045TIP3   OH227693   6.345   1.592   0.827 -0.3484 -0.2708  0.0935
 2045TIP3    H127694   6.309   1.641   0.753 -0.1334 -1.3653 -0.7624
 2045TIP3    H227695   6.312   1.638   0.904 -1.5351  0.2235 -0.6745
 2046TIP3   OH227696   6.542   5.908   1.603 -0.1129 -0.0991 -0.3556
 2046TIP3    H127697   6.521   5.920   1.510 -0.1360 -2.1127 -0.6369
 2046TIP3    H227698   6.572   5.818   1.610 -1.8484 -0.5892  1.8914
 2047TIP3   OH227699   6.042   1.087   7.032  0.6373 -0.3196  0.1491
 2047TIP3    H127700   6.090   1.129   7.104  2.0158  0.1917 -1.0025
 2047TIP3    H227701   5.955   1.071   7.067  0.2529  2.8097  0.9518
 2048TIP3   OH227702   4.001   4.529   0.123 -0.1591 -0.1173  0.1269
 2048TIP3    H127703   4.002   4.615   0.167  0.2318 -0.6003  1.0852
 2048TIP3    H227704   3.909   4.503   0.123 -0.4130  0.6796 -0.9619
 2049TIP3   OH227705   5.390   6.786   0.349 -0.1415 -0.2796 -0.0269
 2049TIP3    H127706   5.314   6.826   0.306 -0.7746 -0.3777  0.9781
 2049TIP3    H227707   5.440   6.861   0.382  0.1670 -0.2171 -0.6322
 2050TIP3   OH227708   1.560   2.183   6.580  0.1248  0.1824  0.0364
 2050TIP3    H127709   1.567   2.150   6.491  1.8078  0.8186 -0.1076
 2050TIP3    H227710   1.500   2.257   6.574  0.5402  0.4740 -0.6512
 2051TIP3   OH227711   1.364   5.472   2.515 -0.4955  0.2139  0.4595
 2051TIP3    H127712   1.447   5.436   2.547  0.6227  1.3750 -0.9743
 2051TIP3    H227713   1.332   5.526   2.587  0.1924  0.0753  0.8768
 2052TIP3   OH227714   3.649   6.749   7.760  0.2741  0.5527  0.3028
 2052TIP3    H127715   3.606   6.679   7.809  0.3672  0.8789  0.8517
 2052TIP3    H227716   3.707   6.703   7.699 -0.9501  0.0952 -0.5627
 2053TIP3   OH227717   0.205   4.998   0.222 -0.1296  0.4703  0.1492
 2053TIP3    H127718   0.218   5.066   0.155  1.5735  1.1794  1.1208
 2053TIP3    H227719   0.124   5.024   0.266  0.0981  1.4759  0.0194
 2054TIP3   OH227720   3.863   2.048   6.708  0.1017 -0.1872 -0.5824
 2054TIP3    H127721   3.886   1.983   6.642 -0.8301 -0.7580 -0.3639
 2054TIP3    H227722   3.786   2.092   6.673  0.5703  0.6234 -0.6053
 2055TIP3   OH227723   3.315   6.981   5.964  0.2544  0.4558  0.4420
 2055TIP3    H127724   3.316   6.958   6.057 -0.1014 -0.4465  0.2269
 2055TIP3    H227725   3.239   7.038   5.954  1.4073  2.2016  1.0677
 2056TIP3   OH227726   2.025   0.178   0.817  0.2573 -0.0682 -0.6068
 2056TIP3    H127727   2.078   0.102   0.793  0.2584 -0.3680  0.3026
 2056TIP3    H227728   2.023   0.176   0.912 -0.7333  0.3918 -0.6072
 2057TIP3   OH227729   1.994   3.950   8.022 -0.2142 -0.0880  0.0566
 2057TIP3    H127730   1.901   3.934   8.036 -0.1076 -1.0937 -0.3658
 2057TIP3    H227731   2.026   3.872   7.977  0.8337  0.2525  0.1859
 2058TIP3   OH227732   0.493   6.770   1.343 -0.2043  0.1027 -0.6631
 2058TIP3    H127733   0.428   6.779   1.273  0.3755 -2.2445 -1.5967
 2058TIP3    H227734   0.560   6.835   1.323 -1.2979  1.2412 -0.7647
 2059TIP3   OH227735   2.393   5.308   1.700 -0.0642  0.9462 -0.5076
 2059TIP3    H127736   2.389   5.262   1.616 -0.6682 -1.1662  0.5991
 2059TIP3    H227737   2.308   5.289   1.741  0.7407  0.7608  1.1459
 2060TIP3   OH227738   3.440   0.948   5.806 -0.2083 -0.0369 -1.0013
 2060TIP3    H127739   3.344   0.943   5.801 -0.3577 -0.4732  1.1519
 2060TIP3    H227740   3.457   1.035   5.842  0.1610 -0.1951 -0.7864
 2061TIP3   OH227741   0.528   0.641   6.003  0.0962  0.0333  0.1767
 2061TIP3    H127742   0.623   0.636   6.008  0.1561 -0.1313 -0.8243
 2061TIP3    H227743   0.508   0.734   6.020  0.7060  0.7639 -2.5779
 2062TIP3   OH227744   0.682   0.618   0.890 -0.2829 -0.0384 -0.0358
 2062TIP3    H127745   0.676   0.665   0.807  1.1146  0.7833  0.2993
 2062TIP3    H227746   0.592   0.612   0.920 -0.7196  0.4252 -1.1838
 2063TIP3   OH227747   0.036   5.337   1.255 -0.0419 -0.0854 -0.2058
 2063TIP3    H127748  -0.043   5.283   1.258 -1.1179  1.3313 -1.5906
 2063TIP3    H227749   0.095   5.289   1.197 -1.3878  0.6601 -2.2795
 2064TIP3   OH227750   4.804   6.052   7.256 -0.4611  0.2875 -0.0594
 2064TIP3    H127751   4.799   6.140   7.293  2.1846  0.8282 -0.7561
 2064TIP3    H227752   4.867   6.060   7.184  0.9813 -2.4433  0.7542
 2065TIP3   OH227753   1.571   6.443   1.774  0.4604  0.4364  0.2905
 2065TIP3    H127754   1.552   6.484   1.689  0.3887  0.6111  0.3888
 2065TIP3    H227755   1.504   6.479   1.832  1.2508  1.2810  0.7112
 2066TIP3   OH227756   3.009   4.593   8.129 -0.5815  0.1777  0.4493
 2066TIP3    H127757   2.991   4.667   8.071 -0.5598 -1.0346 -1.1942
 2066TIP3    H227758   2.924   4.554   8.145 -0.4610 -0.1647  0.2689
 2067TIP3   OH227759   5.840   1.970   1.030 -0.1689  0.1066 -0.3405
 2067TIP3    H127760   5.926   1.978   0.989 -0.4385 -1.5556 -1.3310
 2067TIP3    H227761   5.778   1.978   0.957 -0.7077 -1.6448 -0.1292
 2068TIP3   OH227762   0.211   0.596   8.281 -0.8668 -0.2616 -0.1595
 2068TIP3    H127763   0.194   0.502   8.277 -0.7918 -0.2782 -0.0883
 2068TIP3    H227764   0.306   0.603   8.291 -0.8505 -0.1739 -0.3722
 2069TIP3   OH227765   5.222   2.655   2.102  0.2240 -0.4926 -0.0718
 2069TIP3    H127766   5.277   2.716   2.151  0.0793 -0.4422  0.0259
 2069TIP3    H227767   5.275   2.633   2.025  0.2374 -0.1709 -0.1569
 2070TIP3   OH227768   5.705   6.848   8.037 -0.3345 -0.4957  0.3430
 2070TIP3    H127769   5.665   6.934   8.050  1.3609  0.4367 -0.3008
 2070TIP3    H227770   5.636   6.786   8.060 -3.5765  0.8557 -4.3132
 2071TIP3   OH227771   0.209   2.052   8.104 -0.2823 -0.1302  0.0657
 2071TIP3    H127772   0.140   2.076   8.043 -1.3366 -0.1163  1.2289
 2071TIP3    H227773   0.286   2.101   8.073 -0.6613 -0.4613 -1.4763
 2072TIP3   OH227774   4.485   6.182   7.637 -0.1505  0.5230  0.6076
 2072TIP3    H127775   4.438   6.231   7.569 -0.2898  0.1926  0.4661
 2072TIP3    H227776   4.488   6.092   7.605  0.0930  0.4331  0.8756
 2073TIP3   OH227777   4.581   3.999   7.060  0.5409  0.2490  0.2447
 2073TIP3    H127778   4.630   3.928   7.101 -0.3640  0.7992  2.3843
 2073TIP3    H227779   4.495   3.960   7.040  1.2193 -0.2457 -1.9871
 2074TIP3   OH227780   1.391   1.236   0.185  0.5583 -0.0227 -0.2253
 2074TIP3    H127781   1.397   1.187   0.103  2.2632  0.8138 -0.6426
 2074TIP3    H227782   1.409   1.172   0.253 -0.1534 -0.5739 -0.5397
 2075TIP3   OH227783   1.919   5.662   7.960 -0.5288 -0.0684 -0.7737
 2075TIP3    H127784   1.876   5.676   7.875 -0.5175  0.3740 -0.7126
 2075TIP3    H227785   1.997   5.611   7.940 -0.7135 -0.2685 -0.9833
 2076TIP3   OH227786   0.688   2.512   0.399 -0.0364 -0.1596  1.1481
 2076TIP3    H127787   0.760   2.449   0.394 -0.5817 -0.7845  1.1512
 2076TIP3    H227788   0.628   2.475   0.464 -1.5685 -0.8929 -0.6101
 2077TIP3   OH227789   6.432   2.594   7.024 -0.1688  0.0094  0.0824
 2077TIP3    H127790   6.480   2.596   7.107  0.1890  0.2884 -0.1326
 2077TIP3    H227791   6.444   2.681   6.987 -1.2015  0.2281  0.2294
 2078TIP3   OH227792   0.854   0.910   6.845  0.1582 -0.0987 -0.0000
 2078TIP3    H127793   0.804   0.865   6.776 -1.1076 -0.2998  1.0140
 2078TIP3    H227794   0.933   0.941   6.800 -0.9587  0.4188 -1.7261
 2079TIP3   OH227795   0.086   0.114   2.193  0.3829 -0.5740 -0.3151
 2079TIP3    H127796   0.159   0.120   2.255  2.3348 -1.1389 -2.4112
 2079TIP3    H227797   0.076   0.203   2.158  0.6359 -0.6461 -0.5843
 2080TIP3   OH227798   6.571   2.011   0.135  0.3571 -0.2564  0.3846
 2080TIP3    H127799   6.493   2.065   0.139  0.4274 -0.1204 -0.0289
 2080TIP3    H227800   6.598   2.000   0.226 -0.1718 -0.3501  0.5302
 2081TIP3   OH227801   5.473   1.228   1.068  0.0881  0.0196  0.5291
 2081TIP3    H127802   5.507   1.217   1.157  2.8614  1.2021 -0.2872
 2081TIP3    H227803   5.442   1.318   1.065  0.5003  0.1524  0.1604
 2082TIP3   OH227804   2.921   6.039   7.614 -0.0688 -0.6019  0.4115
 2082TIP3    H127805   2.941   6.018   7.523 -1.1026  0.0560  0.0041
 2082TIP3    H227806   2.942   5.960   7.662  1.3889 -0.6493 -0.2556
 2083TIP3   OH227807   4.191   0.398   1.213  0.2079 -0.1784  0.4822
 2083TIP3    H127808   4.244   0.365   1.285 -0.6726 -0.1462  1.1668
 2083TIP3    H227809   4.171   0.321   1.160 -0.5028 -0.4931  1.1898
 2084TIP3   OH227810   4.887   5.181   6.248  0.3777  0.0316 -0.1371
 2084TIP3    H127811   4.829   5.120   6.203 -2.8473  1.1084  2.1807
 2084TIP3    H227812   4.953   5.125   6.291 -0.7980 -1.5816 -0.3463
 2085TIP3   OH227813   3.988   1.788   7.807  0.0247 -0.2445  0.0228
 2085TIP3    H127814   4.025   1.749   7.728 -0.3575 -2.7666  0.9960
 2085TIP3    H227815   4.063   1.827   7.852  0.3015  0.8615 -1.3348
 2086TIP3   OH227816   6.196   5.117   0.595  0.4328  0.5594  0.0408
 2086TIP3    H127817   6.154   5.117   0.509  0.9432  0.2212 -0.2123
 2086TIP3    H227818   6.273   5.173   0.584  0.4479  0.5912  0.3020
 2087TIP3   OH227819   3.649   3.625   0.356  0.5165 -0.2225 -0.1855
 2087TIP3    H127820   3.626   3.570   0.281  1.1482 -0.3048 -0.3195
 2087TIP3    H227821   3.688   3.565   0.420  0.1889 -0.1146  0.1226
 2088TIP3   OH227822   6.769   1.851   8.104 -0.2925  0.4310  0.8833
 2088TIP3    H127823   6.772   1.838   8.198 -2.3978 -2.2860  0.6881
 2088TIP3    H227824   6.836   1.793   8.068 -2.2874 -1.8213  0.5797
 2089TIP3   OH227825   4.739   2.614   8.016  0.0119 -0.1945 -0.1632
 2089TIP3    H127826   4.681   2.605   7.940 -0.1683 -2.0536  0.1500
 2089TIP3    H227827   4.821   2.647   7.979  0.3040 -2.1235 -1.3944
 2090TIP3   OH227828   2.742   3.029   2.681 -0.2885  0.2935  0.1613
 2090TIP3    H127829   2.828   3.048   2.642  0.2735 -0.1309  1.1597
 2090TIP3    H227830   2.688   3.104   2.657  0.5713  0.9234  0.1347
 2091TIP3   OH227831   4.392   3.219   0.523 -0.3516 -0.2620 -0.2966
 2091TIP3    H127832   4.467   3.179   0.479  0.6986 -1.5836  2.4304
 2091TIP3    H227833   4.430   3.281   0.584 -1.3812 -1.2967  1.4810
 2092TIP3   OH227834   1.049   1.000   7.166  0.2127  0.3075  0.5257
 2092TIP3    H127835   0.983   1.063   7.138  0.2269  0.2056  0.2619
 2092TIP3    H227836   1.012   0.914   7.144  1.3521  0.3132 -1.6914
 2093TIP3   OH227837   3.847   1.204   1.177 -0.0633  0.2945 -0.0722
 2093TIP3    H127838   3.868   1.265   1.107  0.1294  0.8847  0.4901
 2093TIP3    H227839   3.757   1.228   1.203 -0.2332 -0.0973 -0.2978
 2094TIP3   OH227840   0.428   3.788   6.931 -0.1692  0.2586  0.4097
 2094TIP3    H127841   0.334   3.806   6.930 -0.0828  0.6963 -0.1308
 2094TIP3    H227842   0.469   3.874   6.936  0.2004  0.0397  1.4308
 2095TIP3   OH227843   6.447   0.599   7.218 -0.2933 -0.0925 -0.1858
 2095TIP3    H127844   6.438   0.675   7.161  0.3796 -0.6880 -1.1142
 2095TIP3    H227845   6.362   0.591   7.262 -1.2336 -0.2814 -1.9508
 2096TIP3   OH227846   6.960   4.807   1.047  0.3817 -0.2685  0.1768
 2096TIP3    H127847   6.892   4.823   0.981  1.5083  0.8194 -0.7544
 2096TIP3    H227848   6.949   4.878   1.110  0.3085 -0.4139  0.3293
 2097TIP3   OH227849   2.875   0.781   1.824  0.0898  0.1285 -0.6824
 2097TIP3    H127850   2.782   0.771   1.842  0.2910  0.1534  0.4331
 2097TIP3    H227851   2.918   0.761   1.908  1.1024 -0.1963 -1.2595
 2098TIP3   OH227852   1.099   2.424   0.708 -0.0904 -0.0953  0.0512
 2098TIP3    H127853   1.139   2.370   0.776  3.5340 -0.1396 -1.9080
 2098TIP3    H227854   1.026   2.371   0.675 -2.1036 -0.0012  3.8112
 2099TIP3   OH227855   5.327   4.682   6.863  0.1990 -0.4994 -0.2794
 2099TIP3    H127856   5.274   4.721   6.793  0.3074  0.0813 -0.0423
 2099TIP3    H227857   5.371   4.757   6.904 -0.5296 -0.7391  0.9761
 2100TIP3   OH227858   5.324   1.854   0.680  0.3039  0.2136  0.3496
 2100TIP3    H127859   5.377   1.928   0.710 -0.4249  0.2764  1.5317
 2100TIP3    H227860   5.237   1.891   0.665 -0.1146 -0.4162  1.1194
 2101TIP3   OH227861   2.854   0.712   1.059  0.1002 -0.4305  0.2720
 2101TIP3    H127862   2.854   0.806   1.074 -1.1638 -0.4851  0.7783
 2101TIP3    H227863   2.937   0.694   1.015  0.9713  0.7151  1.3961
 2102TIP3   OH227864   0.295   5.774   7.469  0.4641  0.1798  0.0080
 2102TIP3    H127865   0.329   5.690   7.500  0.7381  0.6328  0.9623
 2102TIP3    H227866   0.351   5.840   7.510 -0.6167  0.8834  0.3996
 2103TIP3   OH227867   1.533   3.206   0.566 -0.4465  0.3842 -0.3364
 2103TIP3    H127868   1.528   3.161   0.651 -1.6726  0.4400 -0.3622
 2103TIP3    H227869   1.625   3.198   0.541  0.2072  1.3926  1.5423
 2104TIP3   OH227870   5.243   2.881   1.294 -0.1467  0.3979 -0.3163
 2104TIP3    H127871   5.241   2.818   1.222  1.0920 -0.1980  0.1365
 2104TIP3    H227872   5.336   2.892   1.314 -0.3241  2.3446 -0.3319
 2105TIP3   OH227873   1.675   3.780   0.536  0.0027  0.0644  0.7522
 2105TIP3    H127874   1.599   3.816   0.490 -0.0493  0.2831  1.0099
 2105TIP3    H227875   1.713   3.717   0.474 -0.2149  0.1725  0.5088
 2106TIP3   OH227876   1.069   3.404   0.868  0.3091 -0.1175  0.0185
 2106TIP3    H127877   0.984   3.381   0.831  0.4318 -1.0986  0.3126
 2106TIP3    H227878   1.117   3.322   0.870  1.0805  0.3309  0.3397
 2107TIP3   OH227879   1.588   0.292   1.373  0.4208 -0.5263  0.2001
 2107TIP3    H127880   1.555   0.238   1.302  1.3065  0.0874 -0.7161
 2107TIP3    H227881   1.566   0.244   1.453 -1.1225 -0.9353 -0.4428
 2108TIP3   OH227882   4.474   3.446   7.718  0.4729 -0.2791 -0.1005
 2108TIP3    H127883   4.507   3.357   7.706 -1.8922 -1.1063 -0.9210
 2108TIP3    H227884   4.525   3.499   7.656  1.8259 -1.0322  0.3178
 2109TIP3   OH227885   1.407   5.457   6.357 -0.1354  0.9444  0.0799
 2109TIP3    H127886   1.359   5.521   6.410 -1.3313 -0.0012  0.1741
 2109TIP3    H227887   1.341   5.421   6.297  0.5570 -0.0549 -0.1026
 2110TIP3   OH227888   6.744   1.325   1.749 -0.5113 -0.4617  0.0578
 2110TIP3    H127889   6.662   1.308   1.795  1.1572 -0.2696  3.3469
 2110TIP3    H227890   6.790   1.241   1.748 -0.0144 -0.1954 -0.2251
 2111TIP3   OH227891   0.864   3.715   7.213  0.6905 -0.0171  0.0222
 2111TIP3    H127892   0.809   3.788   7.184 -0.0350 -0.9259 -0.9843
 2111TIP3    H227893   0.928   3.755   7.272  1.2353  1.7026 -1.5906
 2112TIP3   OH227894   4.352   4.944   1.280  0.2383 -0.8463  0.2605
 2112TIP3    H127895   4.377   4.944   1.188 -0.1052  1.2702  0.1094
 2112TIP3    H227896   4.259   4.924   1.280 -1.0088  3.7864 -0.4268
 2113TIP3   OH227897   4.767   2.490   1.745 -0.0644 -0.0325  0.2688
 2113TIP3    H127898   4.710   2.466   1.672  1.1533  0.2905 -0.8416
 2113TIP3    H227899   4.762   2.415   1.805 -0.6877 -0.5494 -0.4061
 2114TIP3   OH227900   6.931   4.956   1.768 -0.2318  0.2494  0.8556
 2114TIP3    H127901   6.914   4.982   1.858  2.1078 -0.1095  1.4651
 2114TIP3    H227902   6.986   4.878   1.776 -0.0496  0.1675 -0.8797
 2115TIP3   OH227903   1.891   4.741   5.907  0.0693 -0.6573 -0.4773
 2115TIP3    H127904   1.836   4.756   5.984 -1.7873 -1.7200 -1.5426
 2115TIP3    H227905   1.907   4.647   5.907 -2.2182 -1.1434 -2.7825
 2116TIP3   OH227906   6.024   1.346   1.145 -0.1408  0.3356  0.1272
 2116TIP3    H127907   6.027   1.395   1.062 -0.8087  0.9978  0.4854
 2116TIP3    H227908   5.971   1.269   1.125  0.6284 -0.0876 -0.3491
 2117TIP3   OH227909   5.475   0.680   2.173  0.4354 -0.1078 -0.3122
 2117TIP3    H127910   5.439   0.712   2.256  1.4492  1.1470 -0.3209
 2117TIP3    H227911   5.517   0.597   2.195  0.0229 -0.1658  0.2739
 2118TIP3   OH227912   2.233   0.022   7.899  0.0102  0.6391  0.2092
 2118TIP3    H127913   2.186  -0.043   7.952 -0.7231  0.8162 -0.2050
 2118TIP3    H227914   2.213   0.106   7.940 -0.8631  0.8166 -0.5376
 2119TIP3   OH227915   3.691   2.273   0.627 -0.2375 -0.0427 -0.2785
 2119TIP3    H127916   3.621   2.310   0.681 -0.1974 -0.3501 -0.0151
 2119TIP3    H227917   3.769   2.276   0.682 -0.0280  0.3385 -0.5862
 2120TIP3   OH227918   1.367   1.841   1.073 -0.4342  0.3520  0.4982
 2120TIP3    H127919   1.377   1.745   1.073 -1.1351  0.2700  0.9808
 2120TIP3    H227920   1.321   1.860   0.992  2.9031  0.6922 -1.5399
 2121TIP3   OH227921   6.046   6.986   6.820 -0.5603 -0.0375 -0.4682
 2121TIP3    H127922   6.110   7.007   6.752 -1.0408  1.9640 -0.3734
 2121TIP3    H227923   6.092   6.926   6.878  0.8281  0.4204 -1.0464
 2122TIP3   OH227924   2.514   4.169   1.551 -0.4689 -0.8875  0.0903
 2122TIP3    H127925   2.465   4.248   1.575 -0.1318 -0.7439  0.2963
 2122TIP3    H227926   2.600   4.200   1.525 -0.8561 -1.0009 -1.4963
 2123TIP3   OH227927   4.469   4.673   7.001  0.3962  0.3671  0.1508
 2123TIP3    H127928   4.516   4.679   6.918 -2.1528 -0.7443 -1.5165
 2123TIP3    H227929   4.500   4.592   7.040  1.0261  0.4758 -0.1156
 2124TIP3   OH227930   2.421   0.256   7.581 -0.3639  0.3550  0.2947
 2124TIP3    H127931   2.410   0.343   7.619 -0.5774  1.3345 -1.8280
 2124TIP3    H227932   2.515   0.237   7.589 -0.2313  1.0122  0.3263
 2125TIP3   OH227933   0.926   1.435   1.313 -0.0263  0.0292 -0.6700
 2125TIP3    H127934   0.896   1.354   1.354  1.2841 -0.4967 -0.7181
 2125TIP3    H227935   0.973   1.406   1.235  2.3159  0.6696  0.4216
 2126TIP3   OH227936   3.856   2.614   7.471 -0.1480 -0.0148 -0.1038
 2126TIP3    H127937   3.919   2.551   7.437  0.4667 -0.6073  1.9743
 2126TIP3    H227938   3.887   2.634   7.559 -2.5670  0.0880  0.8065
 2127TIP3   OH227939   3.887   2.872   0.175  0.1711  0.1087 -0.2062
 2127TIP3    H127940   3.874   2.789   0.221 -2.7118 -0.3424 -1.5656
 2127TIP3    H227941   3.845   2.937   0.231 -1.0791 -0.0371 -0.9368
 2128TIP3   OH227942   5.776   0.537   6.412 -0.2884  0.2938 -0.3510
 2128TIP3    H127943   5.821   0.565   6.333  0.4857 -0.2063 -0.1001
 2128TIP3    H227944   5.846   0.510   6.472 -0.7806  1.6937  0.9172
 2129TIP3   OH227945   4.186   6.262   7.226 -0.7147  1.0040 -0.5330
 2129TIP3    H127946   4.144   6.316   7.293  0.7967  1.2696  0.2512
 2129TIP3    H227947   4.169   6.308   7.144  1.0963  3.1481  0.1771
 2130TIP3   OH227948   5.002   4.837   0.147 -0.1746 -0.3915  0.5923
 2130TIP3    H127949   4.982   4.859   0.238 -0.1060  0.1731  0.4750
 2130TIP3    H227950   4.955   4.755   0.132  0.2980 -0.8070  1.3116
 2131TIP3   OH227951   5.898   0.089   7.407 -0.3705  0.5603 -0.2381
 2131TIP3    H127952   5.838   0.106   7.479  0.2535  0.6615  0.2698
 2131TIP3    H227953   5.883  -0.003   7.385  0.2720  0.1806  0.8327
 2132TIP3   OH227954   4.129   2.984   1.274 -0.1807  0.1112 -0.0245
 2132TIP3    H127955   4.167   3.067   1.243  0.5915 -0.4288 -0.5718
 2132TIP3    H227956   4.109   2.937   1.193  1.4884 -1.1623  0.2486
 2133TIP3   OH227957   3.565   5.660   0.735 -0.2135 -0.1280 -0.1474
 2133TIP3    H127958   3.658   5.666   0.713 -0.3148  1.5569 -0.3085
 2133TIP3    H227959   3.524   5.730   0.684 -1.5710 -0.8033 -0.0405
 2134TIP3   OH227960   3.244   2.663   1.489 -0.1030 -0.5823  0.1832
 2134TIP3    H127961   3.229   2.671   1.583  0.0193 -1.1184  0.2513
 2134TIP3    H227962   3.163   2.695   1.449 -0.9257 -2.1823  0.5235
 2135TIP3   OH227963   2.822   1.159   8.054  0.6457 -0.0063 -0.5320
 2135TIP3    H127964   2.764   1.208   8.112  1.8512  2.1600 -1.0548
 2135TIP3    H227965   2.898   1.138   8.108  0.6823 -0.1868 -0.6547
 2136TIP3   OH227966   1.328   5.526   2.243 -0.2682  0.0902 -0.5037
 2136TIP3    H127967   1.352   5.505   2.333  1.8056 -0.4627 -1.1208
 2136TIP3    H227968   1.243   5.485   2.230  0.0822 -1.1023  0.7652
 2137TIP3   OH227969   0.642   1.550   7.664 -0.0282  0.7730 -0.1843
 2137TIP3    H127970   0.592   1.631   7.667 -1.3581 -0.0100 -0.2323
 2137TIP3    H227971   0.697   1.558   7.585 -1.8735  0.6854 -1.5487
 2138TIP3   OH227972   1.208   2.707   0.228  0.4484  0.5676  0.2025
 2138TIP3    H127973   1.183   2.729   0.138  0.4083 -1.4112 -0.3099
 2138TIP3    H227974   1.127   2.675   0.268  0.9092 -0.4965  0.2979
 2139TIP3   OH227975   5.228   2.180   1.354 -0.8633 -0.1568  0.3687
 2139TIP3    H127976   5.219   2.095   1.398  0.4199  0.2685  1.5313
 2139TIP3    H227977   5.285   2.162   1.279 -1.3659 -0.4909  0.0587
 2140TIP3   OH227978   3.828   5.027   1.494  0.2369  0.3154  0.2745
 2140TIP3    H127979   3.882   5.061   1.566  0.2461 -1.0304  0.9389
 2140TIP3    H227980   3.855   5.078   1.418  1.8321  0.2822  0.7661
 2141TIP3   OH227981   6.641   1.620   7.801 -0.1490  0.2053  0.3667
 2141TIP3    H127982   6.656   1.535   7.762  0.1958  0.9272 -1.1334
 2141TIP3    H227983   6.712   1.675   7.769 -1.9418  1.8068 -1.0742
 2142TIP3   OH227984   3.583   1.061   6.861  0.8517 -0.0890 -0.5617
 2142TIP3    H127985   3.663   1.055   6.913 -0.1021  0.3527  1.0262
 2142TIP3    H227986   3.538   1.138   6.896 -0.7869 -0.9655 -0.6489
 2143TIP3   OH227987   6.834   6.274   6.665  0.3294 -0.4036  0.1034
 2143TIP3    H127988   6.777   6.250   6.737  1.4525 -0.3018  1.0603
 2143TIP3    H227989   6.875   6.356   6.693  0.9233 -0.4665 -0.5606
 2144TIP3   OH227990   5.045   2.541   1.553 -0.3183 -0.6727  0.1888
 2144TIP3    H127991   5.079   2.631   1.549 -0.5553 -0.6139 -2.2679
 2144TIP3    H227992   4.952   2.549   1.533 -0.1973 -1.5042 -0.8055
 2145TIP3   OH227993   3.414   2.680   0.427  0.2948 -0.1423  0.1079
 2145TIP3    H127994   3.319   2.668   0.429  0.0015  1.5968 -0.8270
 2145TIP3    H227995   3.434   2.695   0.335  1.0915  1.8825  0.5522
 2146TIP3   OH227996   4.482   5.533   0.771  0.1031 -0.0326 -0.9834
 2146TIP3    H127997   4.398   5.523   0.726  0.0666 -0.5467 -0.8029
 2146TIP3    H227998   4.545   5.493   0.712  0.0082 -1.0328 -0.4309
 2147TIP3   OH227999   4.086   5.054   7.015 -0.5274 -0.2193 -0.2935
 2147TIP3    H128000   4.115   4.965   6.994 -0.3349 -0.1954 -0.1288
 2147TIP3    H228001   4.013   5.070   6.954 -2.2161 -1.4241  1.2859
 2148TIP3   OH228002   3.190   1.253   1.270 -0.3175 -0.4955  0.3894
 2148TIP3    H128003   3.102   1.284   1.250 -0.2012  0.2393  0.9540
 2148TIP3    H228004   3.228   1.323   1.324  0.0206 -1.5403  1.5587
 2149TIP3   OH228005   0.381   1.195   1.654  0.4177 -0.2374  0.8670
 2149TIP3    H128006   0.330   1.122   1.690 -0.8839  1.0288  1.6983
 2149TIP3    H228007   0.316   1.263   1.635  1.4172  0.1737 -1.3524
 2150TIP3   OH228008   4.747   0.530   8.042 -0.5712 -0.6863  0.1214
 2150TIP3    H128009   4.810   0.590   8.003 -0.9874 -0.2826  0.0537
 2150TIP3    H228010   4.799   0.457   8.075 -0.2265 -1.1202 -1.3133
 2151TIP3   OH228011   2.184   6.945   2.425  0.5519  0.4928  0.4028
 2151TIP3    H128012   2.138   6.982   2.500 -0.3213  0.4999 -0.1240
 2151TIP3    H228013   2.275   6.940   2.453  0.2177  0.3621  1.5154
 2152TIP3   OH228014   0.538   0.852   6.922 -0.8269  0.5186 -0.0858
 2152TIP3    H128015   0.558   0.881   7.011 -0.0325  2.6429 -0.8898
 2152TIP3    H228016   0.452   0.889   6.903 -2.1825 -2.0757  0.6308
 2153TIP3   OH228017   1.255   6.186   2.537 -0.3900 -0.2017 -0.1706
 2153TIP3    H128018   1.178   6.147   2.496 -1.0731 -0.5751  1.3807
 2153TIP3    H228019   1.232   6.277   2.550 -2.0282 -0.9333  3.2779
 2154TIP3   OH228020   3.987   2.552   6.765  0.5696  0.4917  0.5886
 2154TIP3    H128021   3.938   2.480   6.805  0.9054  0.2688  0.6085
 2154TIP3    H228022   3.980   2.536   6.671 -2.0763  2.2269  0.3776
 2155TIP3   OH228023   1.548   0.307   0.021  0.7609  0.1535 -0.3299
 2155TIP3    H128024   1.464   0.350   0.006 -0.0277 -0.8653  0.9236
 2155TIP3    H228025   1.610   0.353  -0.036 -0.7143  0.6742 -1.5569
 2156TIP3   OH228026   5.829   0.796   1.369 -0.7594 -0.1227 -0.0705
 2156TIP3    H128027   5.813   0.889   1.351  1.6455 -0.0235 -2.3348
 2156TIP3    H228028   5.813   0.787   1.463  4.3172  3.9390  1.6620
 2157TIP3   OH228029   0.522   1.055   2.098  0.3354 -0.2339  0.1005
 2157TIP3    H128030   0.541   1.082   2.188 -0.1739 -0.4307  0.2711
 2157TIP3    H228031   0.554   0.964   2.094  1.5685  0.2001 -0.3173
 2158TIP3   OH228032   6.414   1.087   8.031  0.2252 -0.1338 -0.7678
 2158TIP3    H128033   6.416   1.024   8.103 -1.1244 -0.1370 -0.7056
 2158TIP3    H228034   6.474   1.051   7.966 -0.7941 -1.7161 -0.8988
 2159TIP3   OH228035   5.866   2.308   6.853 -0.3300 -0.2414 -0.4878
 2159TIP3    H128036   5.902   2.256   6.782 -0.7090 -1.0631 -0.0907
 2159TIP3    H228037   5.934   2.310   6.919 -0.0409  0.3844 -0.7935
 2160TIP3   OH228038   0.635   0.344   7.457  0.4456  0.0165  0.2669
 2160TIP3    H128039   0.688   0.420   7.481 -2.6416  1.9791  1.4588
 2160TIP3    H228040   0.589   0.372   7.377  0.3216 -1.1939 -0.1074
 2161TIP3   OH228041   3.362   2.386   0.332  0.2266 -0.3327  0.1524
 2161TIP3    H128042   3.457   2.396   0.331  0.1969  0.3330  1.3530
 2161TIP3    H228043   3.328   2.476   0.322 -0.2626 -0.4982  0.2723
 2162TIP3   OH228044   1.695   4.428   7.680  0.5039  0.7650  0.0820
 2162TIP3    H128045   1.728   4.515   7.704  1.6143  1.4725 -3.4109
 2162TIP3    H228046   1.619   4.446   7.625 -0.2592 -0.5961  0.6419
 2163TIP3   OH228047   3.046   6.974   5.658  0.2709 -0.1270  0.3194
 2163TIP3    H128048   3.036   6.984   5.563 -1.8345 -0.3868  0.4536
 2163TIP3    H228049   3.133   6.936   5.670  0.2427 -0.8865 -1.5733
 2164TIP3   OH228050   6.301   3.059   0.684  0.8207 -0.2338 -0.0079
 2164TIP3    H128051   6.362   3.010   0.629  0.9596 -2.9207  2.3098
 2164TIP3    H228052   6.233   3.090   0.623  2.4532 -0.4650 -2.0598
 2165TIP3   OH228053   1.566   3.671   1.781  0.2304  0.0314  0.0310
 2165TIP3    H128054   1.626   3.654   1.709  1.5946 -0.5808  1.2748
 2165TIP3    H228055   1.597   3.752   1.820 -1.7047  1.4792 -1.2180
 2166TIP3   OH228056   1.331   6.298   6.819  0.0741  0.7704 -0.4969
 2166TIP3    H128057   1.323   6.301   6.724  1.7445  0.1261 -0.6902
 2166TIP3    H228058   1.421   6.325   6.836  0.2045 -0.3868  0.8066
 2167TIP3   OH228059   6.441   1.356   8.050  0.1627 -0.3938 -0.1917
 2167TIP3    H128060   6.501   1.414   8.096 -1.4046 -0.3027  1.9207
 2167TIP3    H228061   6.484   1.270   8.053  1.6787  0.2428 -1.7744
 2168TIP3   OH228062   3.074   4.300   0.754  0.2418  0.3220 -0.6409
 2168TIP3    H128063   3.085   4.213   0.714  0.2332  0.7141 -1.5380
 2168TIP3    H228064   3.152   4.312   0.808  1.7411  0.9239 -2.8020
 2169TIP3   OH228065   5.269   5.324   7.831 -0.6032 -0.0422  0.0423
 2169TIP3    H128066   5.257   5.312   7.737  1.1123 -0.0401 -0.2054
 2169TIP3    H228067   5.313   5.244   7.860 -0.7275  0.1456  0.7722
 2170TIP3   OH228068   2.711   4.449   1.147  0.2463  0.0155  0.3726
 2170TIP3    H128069   2.654   4.443   1.223  0.4705 -1.6180  0.4281
 2170TIP3    H228070   2.729   4.359   1.122  0.5421  0.5095 -1.3548
 2171TIP3   OH228071   6.067   0.293   8.300 -0.4677  0.9166 -0.5191
 2171TIP3    H128072   6.090   0.254   8.216 -0.5546  1.3493 -0.7466
 2171TIP3    H228073   5.997   0.356   8.279 -0.6239  0.8864 -0.0978
 2172TIP3   OH228074   3.585   5.058   7.353 -0.6168 -0.1912  0.5175
 2172TIP3    H128075   3.670   5.097   7.335 -0.5001 -0.9151 -0.6383
 2172TIP3    H228076   3.591   5.027   7.443  0.0779  0.4067  0.6880
 2173TIP3   OH228077   6.276   5.712   6.892  0.1810 -0.4812  0.3586
 2173TIP3    H128078   6.322   5.659   6.827 -0.0092 -1.4552  0.9882
 2173TIP3    H228079   6.267   5.654   6.968 -0.8673  0.1471  0.7385
 2174TIP3   OH228080   4.232   5.441   7.943  0.3072 -0.2852  0.3534
 2174TIP3    H128081   4.209   5.364   7.995  0.2901 -1.0121 -0.6846
 2174TIP3    H228082   4.295   5.489   7.996 -0.5852 -0.3810  1.5265
 2175TIP3   OH228083   3.660   2.029   0.934  0.2078  0.0064  0.3022
 2175TIP3    H128084   3.665   2.008   0.841 -0.5375 -3.3860  0.8840
 2175TIP3    H228085   3.592   1.970   0.968  0.0566  1.5309  2.9228
 2176TIP3   OH228086   5.371   5.581   7.851 -0.0670 -0.3231 -0.0573
 2176TIP3    H128087   5.414   5.585   7.937  0.5230  0.7428 -0.3835
 2176TIP3    H228088   5.324   5.498   7.852 -1.2329  0.2934  1.8469
 2177TIP3   OH228089   6.863   2.838   6.677 -0.4183  0.0288 -0.1010
 2177TIP3    H128090   6.885   2.922   6.717 -0.4221 -0.6568  1.4205
 2177TIP3    H228091   6.852   2.857   6.584  1.0653  1.4320 -0.0279
 2178TIP3   OH228092   6.681   2.701   7.619 -0.7243  0.0850 -0.6568
 2178TIP3    H128093   6.646   2.706   7.531  0.0249 -0.2221 -0.9840
 2178TIP3    H228094   6.740   2.776   7.627 -0.6031 -0.0219 -0.5089
 2179TIP3   OH228095   5.273   1.249   0.441  0.7649  0.1873 -0.6337
 2179TIP3    H128096   5.225   1.325   0.407  0.1786 -0.4658 -1.3144
 2179TIP3    H228097   5.363   1.281   0.453  0.5418  0.9743 -0.9530
 2180TIP3   OH228098   6.047   1.466   0.884  0.7766  0.3787  0.4252
 2180TIP3    H128099   6.002   1.550   0.890 -1.4881 -0.5218 -2.1151
 2180TIP3    H228100   6.119   1.481   0.822  0.3180  0.4348 -0.0984
 2181TIP3   OH228101   1.711   1.825   0.267 -0.0725 -0.0221 -0.2319
 2181TIP3    H128102   1.803   1.846   0.280  0.2297  0.7355 -2.9287
 2181TIP3    H228103   1.665   1.908   0.278 -0.1522  0.0278 -0.8775
 2182TIP3   OH228104   3.038   2.841   2.356 -0.0780 -0.2171 -0.0283
 2182TIP3    H128105   2.959   2.826   2.304  0.5771  0.1592 -1.1678
 2182TIP3    H228106   3.103   2.871   2.292  1.2023 -1.2399  0.7610
 2183TIP3   OH228107   5.151   5.742   6.928 -0.2470  0.0166  0.0242
 2183TIP3    H128108   5.117   5.763   6.841 -0.1530  0.6640  0.1397
 2183TIP3    H228109   5.204   5.664   6.915 -1.0619 -0.4917 -0.3163
 2184TIP3   OH228110   6.326   0.200   6.695 -0.6604 -0.4097  0.3170
 2184TIP3    H128111   6.318   0.117   6.647  0.7441 -0.7191  0.5638
 2184TIP3    H228112   6.282   0.264   6.639 -1.1401 -1.1906 -0.2254
 2185TIP3   OH228113   5.005   4.505   0.709  0.3665  0.1986  0.3996
 2185TIP3    H128114   5.057   4.498   0.630 -0.4496  0.9471 -0.2266
 2185TIP3    H228115   4.945   4.577   0.692 -1.2321 -0.9486  0.8646
 2186TIP3   OH228116   5.274   0.829   8.200 -0.0386  0.3714 -0.4215
 2186TIP3    H128117   5.366   0.809   8.182 -0.6274 -1.8615 -1.2832
 2186TIP3    H228118   5.255   0.782   8.282 -0.9273 -1.0600 -1.3949
 2187TIP3   OH228119   4.526   0.542   0.829 -0.1620  0.2620  0.2787
 2187TIP3    H128120   4.618   0.553   0.803 -0.5497  3.0724 -0.2548
 2187TIP3    H228121   4.530   0.522   0.923  1.0172  1.7572  0.5966
 2188TIP3   OH228122   6.089   4.339   0.627 -0.0445 -0.5632 -0.0379
 2188TIP3    H128123   6.063   4.259   0.582 -1.4527 -0.8007  1.1286
 2188TIP3    H228124   6.035   4.408   0.589  0.5633 -0.2968 -0.4437
 2189TIP3   OH228125   2.275   1.425   1.121  0.0368 -0.6336 -0.2339
 2189TIP3    H128126   2.287   1.515   1.152  0.0193 -0.8200  0.3228
 2189TIP3    H228127   2.357   1.404   1.076 -0.6635  0.3171 -2.0712
 2190TIP3   OH228128   6.231   1.341   7.852  0.1023 -0.4085  0.2992
 2190TIP3    H128129   6.285   1.361   7.929 -0.0146 -0.2146  0.3310
 2190TIP3    H228130   6.237   1.246   7.842 -0.5073 -0.5289  1.0105
 2191TIP3   OH228131   6.001   0.452   7.991 -0.0410 -0.1212 -0.4776
 2191TIP3    H128132   5.967   0.451   7.902  0.8245  1.2788 -0.8585
 2191TIP3    H228133   6.035   0.364   8.005  1.2973  0.0680 -2.1565
 2192TIP3   OH228134   0.521   6.264   7.576 -0.2450  0.7994 -0.5798
 2192TIP3    H128135   0.616   6.262   7.579 -0.2238  1.6024 -0.4894
 2192TIP3    H228136   0.494   6.272   7.667 -0.3253  2.4455 -0.7152
 2193TIP3   OH228137   4.028   4.484   1.661 -0.4230  0.2323  0.0403
 2193TIP3    H128138   4.063   4.434   1.735  1.0612 -0.8116 -1.2905
 2193TIP3    H228139   3.986   4.418   1.606  0.7809  0.5280 -1.3063
 2194TIP3   OH228140   0.048   2.050   7.006 -0.1331 -0.2784  0.2025
 2194TIP3    H128141   0.011   1.961   7.002  0.4905 -0.5107 -1.1131
 2194TIP3    H228142   0.121   2.048   6.943 -0.3775  1.2806 -0.1668
 2195TIP3   OH228143   6.375   4.167   7.430  0.1862  0.2098  0.8271
 2195TIP3    H128144   6.335   4.250   7.405 -0.0297 -0.6431 -2.0061
 2195TIP3    H228145   6.307   4.101   7.416  1.1428 -0.7419  0.4558
 2196TIP3   OH228146   3.326   6.773   6.786  0.2866  0.0244 -0.2676
 2196TIP3    H128147   3.284   6.708   6.729 -0.4195 -0.7896  1.1407
 2196TIP3    H228148   3.399   6.805   6.734 -0.8257 -0.0521 -1.9867
 2197TIP3   OH228149   5.827   5.219   1.168 -0.7371  0.0439  0.1507
 2197TIP3    H128150   5.857   5.184   1.252 -0.1998  0.6551  0.2242
 2197TIP3    H228151   5.765   5.288   1.192  0.6819  1.3832  0.1210
 2198TIP3   OH228152   1.078   0.759   7.515  0.0609  0.9228  0.0022
 2198TIP3    H128153   1.094   0.697   7.587  0.2035  0.5421 -0.3568
 2198TIP3    H228154   0.982   0.766   7.511  0.0557  1.1206  0.3748
 2199TIP3   OH228155   5.858   1.122   1.018 -0.6804 -0.5864  0.3138
 2199TIP3    H128156   5.905   1.051   0.976 -0.9799 -0.5536 -0.0769
 2199TIP3    H228157   5.802   1.159   0.950  0.7828  1.2039  0.0049
 2200TIP3   OH228158   4.693   6.687   0.778 -0.4981 -0.0822 -0.1673
 2200TIP3    H128159   4.740   6.769   0.760 -1.3979  0.4568 -0.1201
 2200TIP3    H228160   4.632   6.708   0.848  0.9627 -1.4453  1.6070
 2201TIP3   OH228161   1.452   5.863   0.878 -0.4390 -0.4872  0.1790
 2201TIP3    H128162   1.494   5.816   0.805 -1.9880 -0.1529 -0.9833
 2201TIP3    H228163   1.498   5.947   0.881 -0.1153 -0.6440 -0.1673
 2202TIP3   OH228164   4.638   1.431   7.128  0.6145  0.0350  0.1341
 2202TIP3    H128165   4.730   1.455   7.133  1.3141 -1.0304 -4.0399
 2202TIP3    H228166   4.637   1.342   7.092 -2.0232  0.2175 -0.5154
 2203TIP3   OH228167   6.242   3.897   1.988 -0.0450 -0.0173 -0.4980
 2203TIP3    H128168   6.248   3.979   1.939  1.4245 -0.8616 -1.8196
 2203TIP3    H228169   6.199   3.837   1.927  1.9046 -1.1120 -0.8678
 2204TIP3   OH228170   4.379   1.782   8.110  0.1681  0.0551 -0.5603
 2204TIP3    H128171   4.405   1.875   8.110  0.7506 -0.0923  0.4108
 2204TIP3    H228172   4.312   1.776   8.178 -0.3543 -0.1243 -1.0807
 2205TIP3   OH228173   2.701   3.425   1.303 -0.1844 -0.1738  0.1253
 2205TIP3    H128174   2.727   3.358   1.367 -0.7515 -0.9221 -0.4086
 2205TIP3    H228175   2.615   3.396   1.272  0.3112 -0.1349 -1.3839
 2206TIP3   OH228176   3.762   1.096   7.437  0.4480  0.3642 -0.6052
 2206TIP3    H128177   3.706   1.116   7.512  1.2579 -0.5445  0.2583
 2206TIP3    H228178   3.701   1.064   7.370 -0.1817  0.3444 -0.0381
 2207TIP3   OH228179   5.418   2.456   0.789  0.0584  0.2022  0.5929
 2207TIP3    H128180   5.504   2.485   0.819 -0.6059  0.6121  2.1976
 2207TIP3    H228181   5.365   2.536   0.785  0.3612  0.4014 -2.9098
 2208TIP3   OH228182   6.932   4.936   0.597 -0.4927 -0.0069 -0.3723
 2208TIP3    H128183   6.959   4.847   0.576  0.6723 -0.0012  0.9121
 2208TIP3    H228184   6.965   4.989   0.525  1.2732 -0.2896  0.1677
 2209TIP3   OH228185   4.763   0.471   0.555  0.0713 -0.4268  0.0508
 2209TIP3    H128186   4.814   0.486   0.635 -0.3816 -0.5422  0.3625
 2209TIP3    H228187   4.810   0.400   0.510  2.2725  1.8265 -1.4718
 2210TIP3   OH228188   2.224   0.062   7.614 -0.0179  0.5072  0.5615
 2210TIP3    H128189   2.302   0.118   7.615  0.6012 -0.3321  0.4925
 2210TIP3    H228190   2.200   0.053   7.706  0.5604 -0.0362  0.6608
 2211TIP3   OH228191   3.510   6.641   0.814 -0.3398  0.0214  0.0947
 2211TIP3    H128192   3.484   6.680   0.897  0.1513  1.6205 -0.4614
 2211TIP3    H228193   3.604   6.654   0.810 -0.0998 -1.5660  0.0226
 2212TIP3   OH228194   1.452   5.526   7.081 -0.2796 -0.4797 -0.0093
 2212TIP3    H128195   1.523   5.586   7.103  0.6906 -0.8919 -1.8674
 2212TIP3    H228196   1.464   5.453   7.142 -0.0635  0.1353  0.7106
 2213TIP3   OH228197   0.536   1.855   7.676 -0.1458 -0.6049 -0.3949
 2213TIP3    H128198   0.564   1.861   7.767  2.6452  1.1340 -1.2703
 2213TIP3    H228199   0.462   1.915   7.670 -1.2279 -1.7316  0.9628
 2214TIP3   OH228200   2.031   4.426   6.478 -0.0938  0.0180  0.2973
 2214TIP3    H128201   1.972   4.396   6.409  0.2597 -0.6315  0.2621
 2214TIP3    H228202   2.118   4.403   6.446  0.1244  0.3407  0.6524
 2215TIP3   OH228203   4.084   6.783   7.567  0.1829  0.4569 -0.4227
 2215TIP3    H128204   3.995   6.818   7.561  0.1116  0.4373  0.4613
 2215TIP3    H228205   4.119   6.819   7.648  0.6329 -0.3304 -0.2554
 2216TIP3   OH228206   0.098   2.736   7.792 -0.3552  0.1776  0.2165
 2216TIP3    H128207   0.117   2.783   7.873 -0.0161  0.2438  0.0990
 2216TIP3    H228208   0.174   2.679   7.779 -0.8380 -0.5293  0.4462
 2217TIP3   OH228209   3.291   6.609   2.118 -0.4298  0.1084  0.2341
 2217TIP3    H128210   3.360   6.542   2.124 -0.1651  0.4349  1.0624
 2217TIP3    H228211   3.306   6.665   2.194  1.1887  2.8675 -1.9308
 2218TIP3   OH228212   5.675   3.103   0.875 -0.3534 -0.4537  0.2456
 2218TIP3    H128213   5.754   3.049   0.879  1.0297  1.1933 -1.9813
 2218TIP3    H228214   5.623   3.075   0.949  2.3219 -1.6451  1.8370
 2219TIP3   OH228215   0.860   4.109   1.568  0.4194  0.0024 -0.3748
 2219TIP3    H128216   0.871   4.190   1.517  0.1003 -0.4974 -1.2686
 2219TIP3    H228217   0.833   4.044   1.503  2.0105 -1.1774  0.0868
 2220TIP3   OH228218   4.112   1.744   0.921  0.0811 -0.4583 -0.2278
 2220TIP3    H128219   4.020   1.737   0.947  0.4450  0.4964  1.5514
 2220TIP3    H228220   4.155   1.671   0.966  0.0450 -1.6974 -2.0989
 2221TIP3   OH228221   4.894   1.132   5.874 -0.1332  0.4375  0.2243
 2221TIP3    H128222   4.827   1.144   5.807  0.9303 -0.1464 -0.9835
 2221TIP3    H228223   4.969   1.095   5.827  0.0503 -1.6824  2.0377
 2222TIP3   OH228224   5.990   4.246   0.180 -0.1931  0.2686 -0.4669
 2222TIP3    H128225   6.069   4.219   0.227 -0.0645 -2.2792 -1.9550
 2222TIP3    H228226   6.022   4.271   0.093 -0.7501  2.1201 -0.1808
 2223TIP3   OH228227   4.731   1.643   1.974  0.4188  0.7222 -0.5800
 2223TIP3    H128228   4.680   1.600   2.042  1.2225  0.2591 -0.2534
 2223TIP3    H228229   4.710   1.596   1.894  0.9137  0.0312 -0.3119
 2224TIP3   OH228230   0.606   0.703   0.615  0.3697 -0.3944 -0.8260
 2224TIP3    H128231   0.664   0.776   0.592 -0.4447  0.6767  0.4110
 2224TIP3    H228232   0.530   0.715   0.558 -0.9267  1.3139  1.1269
 2225TIP3   OH228233   5.224   3.771   7.553  0.3645 -0.0122  0.2538
 2225TIP3    H128234   5.208   3.865   7.558  0.9319  0.1795 -1.1059
 2225TIP3    H228235   5.282   3.752   7.627  2.1599  1.1540 -0.8023
 2226TIP3   OH228236   5.364   2.430   0.318  0.4030 -0.2651  0.0565
 2226TIP3    H128237   5.440   2.373   0.329  0.4365 -0.2913 -0.2982
 2226TIP3    H228238   5.351   2.470   0.404  1.1978  0.2215 -0.0395
 2227TIP3   OH228239   3.548   1.245   1.198 -0.2299 -0.2261  0.1668
 2227TIP3    H128240   3.513   1.330   1.173 -1.1001 -0.6116  0.0538
 2227TIP3    H228241   3.544   1.243   1.293 -0.7894 -0.3772  0.1430
 2228TIP3   OH228242   0.003   6.544   0.902  0.6051 -0.2806 -0.0103
 2228TIP3    H128243   0.039   6.534   0.814  2.4445 -1.1221  0.7694
 2228TIP3    H228244  -0.069   6.482   0.907  0.1557  0.1422 -1.0601
 2229TIP3   OH228245   2.458   0.459   1.393 -0.2742  0.6327 -0.3760
 2229TIP3    H128246   2.468   0.517   1.318 -0.7262  0.9710 -0.1767
 2229TIP3    H228247   2.469   0.515   1.469 -1.4296  0.6061 -0.1759
 2230TIP3   OH228248   1.615   0.814   0.315  0.3838 -0.4695 -0.1325
 2230TIP3    H128249   1.569   0.756   0.376 -0.3383  0.6481  0.4001
 2230TIP3    H228250   1.679   0.860   0.369 -0.2814  0.5504 -0.1978
 2231TIP3   OH228251   0.088   6.516   0.657 -0.2089  0.1166  0.6585
 2231TIP3    H128252   0.171   6.469   0.665  1.3630  2.5791 -0.0739
 2231TIP3    H228253   0.073   6.524   0.563 -2.2389 -1.7317  0.7409
 2232TIP3   OH228254   2.033   0.918   0.507  0.7905  0.0686 -0.6610
 2232TIP3    H128255   2.043   0.830   0.469 -0.5905 -0.4595  0.1252
 2232TIP3    H228256   2.044   0.904   0.601 -2.2054  0.1749 -0.1918
 2233TIP3   OH228257   2.288   2.059   8.307  0.1702 -0.9693 -0.2319
 2233TIP3    H128258   2.307   2.009   8.227  1.3508 -1.1671  0.1473
 2233TIP3    H228259   2.355   2.031   8.369  0.4853  0.5954  0.1958
 2234TIP3   OH228260   6.416   5.219   0.789 -0.2373 -0.6891  1.0827
 2234TIP3    H128261   6.368   5.148   0.834 -2.4232 -1.6337 -2.3572
 2234TIP3    H228262   6.365   5.298   0.808 -0.3869 -0.8351  1.3000
 2235TIP3   OH228263   6.199   6.302   7.270  0.4161 -0.2563 -0.2305
 2235TIP3    H128264   6.265   6.303   7.200 -0.3941 -1.9661 -1.0932
 2235TIP3    H228265   6.208   6.387   7.313  2.0192  0.2181 -1.3983
 2236TIP3   OH228266   0.606   4.667   1.588 -0.4911 -0.4774 -0.4267
 2236TIP3    H128267   0.609   4.587   1.641 -1.7848 -0.9049 -0.9637
 2236TIP3    H228268   0.626   4.637   1.499 -0.9184 -0.1866 -0.6198
 2237TIP3   OH228269   3.708   4.555   0.880 -0.2502  0.1539 -0.3166
 2237TIP3    H128270   3.785   4.611   0.896  0.5292 -1.0236  0.1777
 2237TIP3    H228271   3.668   4.592   0.801  1.6932 -0.1088 -1.4824
 2238TIP3   OH228272   0.933   1.749   1.697 -0.2880  0.4282  0.0597
 2238TIP3    H128273   1.023   1.771   1.721  0.9097 -1.6778 -2.1000
 2238TIP3    H228274   0.888   1.737   1.781  1.2446  2.0468  1.1932
 2239TIP3   OH228275   1.849   3.553   6.401 -0.5917  0.9464 -0.2516
 2239TIP3    H128276   1.932   3.589   6.433  0.2001 -0.8886 -0.1074
 2239TIP3    H228277   1.786   3.571   6.470  0.4152 -0.3242  1.0459
 2240TIP3   OH228278   1.143   5.952   6.303  0.7140 -0.0955 -0.2158
 2240TIP3    H128279   1.087   5.879   6.279  0.1072  0.5841 -0.9380
 2240TIP3    H228280   1.232   5.920   6.290  0.4795  0.1742 -3.5383
 2241TIP3   OH228281   2.297   2.938   0.696 -0.0181  0.1013  0.1575
 2241TIP3    H128282   2.294   2.891   0.613  0.2351  0.2707  0.0485
 2241TIP3    H228283   2.376   2.906   0.739  2.1983  2.9086 -1.4552
 2242TIP3   OH228284   0.862   0.211   0.625  0.2681 -0.1523 -0.0570
 2242TIP3    H128285   0.848   0.172   0.539  2.4746 -1.4251  0.0875
 2242TIP3    H228286   0.956   0.231   0.627  0.1930  0.2076  1.9158
 2243TIP3   OH228287   2.311   5.889   0.354  0.0691  0.2825 -0.2016
 2243TIP3    H128288   2.296   5.808   0.306  0.6233  0.1944 -0.2347
 2243TIP3    H228289   2.301   5.959   0.289  3.0311  0.0696 -1.0430
 2244TIP3   OH228290   3.513   3.905   2.383 -0.3326  0.2353  0.3558
 2244TIP3    H128291   3.423   3.927   2.406 -0.2272 -0.5666  1.6882
 2244TIP3    H228292   3.527   3.820   2.425  0.4500 -0.5461 -1.4100
 2245TIP3   OH228293   0.279   3.781   7.193  0.4718 -0.0667  0.2822
 2245TIP3    H128294   0.350   3.794   7.130 -0.3436 -0.9233 -0.8515
 2245TIP3    H228295   0.251   3.869   7.216  1.8022  0.2875  0.6656
 2246TIP3   OH228296   4.812   0.470   7.033  0.5135  0.0069  0.6936
 2246TIP3    H128297   4.767   0.484   7.116 -1.2815 -0.3896 -0.1582
 2246TIP3    H228298   4.793   0.548   6.981 -0.9504 -1.0366 -0.4077
 2247TIP3   OH228299   3.458   3.286   6.401  0.2057 -0.2743  0.5305
 2247TIP3    H128300   3.491   3.249   6.483 -0.3986  2.2858  2.0801
 2247TIP3    H228301   3.389   3.226   6.373 -0.1387 -0.8094  2.3861
 2248TIP3   OH228302   3.477   6.708   1.559 -0.1822  0.3973  0.5947
 2248TIP3    H128303   3.457   6.795   1.594 -0.7246  0.4328  0.2132
 2248TIP3    H228304   3.572   6.700   1.566 -0.0294  1.3573 -0.1177
 2249TIP3   OH228305   2.809   6.614   6.569 -0.1011  0.8417 -0.3084
 2249TIP3    H128306   2.726   6.594   6.610  0.2378  1.9376  0.9789
 2249TIP3    H228307   2.837   6.696   6.610  2.5636 -0.4936  0.7685
 2250TIP3   OH228308   2.929   6.649   1.409 -0.6350  0.1643 -0.1803
 2250TIP3    H128309   2.935   6.744   1.401  0.3130  0.1754  0.4944
 2250TIP3    H228310   3.000   6.616   1.353 -2.0610 -0.2347 -1.8305
 2251TIP3   OH228311   2.696   4.778   5.607 -0.1168  0.2585  0.0213
 2251TIP3    H128312   2.676   4.692   5.645 -0.3843  0.2840 -0.0601
 2251TIP3    H228313   2.771   4.762   5.550 -0.0325  0.1202  0.1694
 2252TIP3   OH228314   5.419   5.453   0.155 -0.0029  0.7890  0.0641
 2252TIP3    H128315   5.455   5.501   0.080 -0.0344  2.1735  0.9059
 2252TIP3    H228316   5.328   5.435   0.131  0.8670 -1.9827 -1.7184
 2253TIP3   OH228317   4.797   6.962   0.975 -0.5682  0.1962 -0.7687
 2253TIP3    H128318   4.738   7.038   0.967 -0.5387  0.1154 -1.9131
 2253TIP3    H228319   4.808   6.931   0.885  0.7358 -0.1744 -0.4987
 2254TIP3   OH228320   0.619   2.374   0.091  0.0167 -0.5111 -0.4048
 2254TIP3    H128321   0.683   2.445   0.081  0.0005 -0.5512 -0.8186
 2254TIP3    H228322   0.645   2.330   0.172 -0.0541  0.0496 -0.0756
 2255TIP3   OH228323   3.378   4.603   8.042  0.4468  0.1382  0.0480
 2255TIP3    H128324   3.327   4.522   8.045 -0.8812  0.8388 -1.7952
 2255TIP3    H228325   3.314   4.673   8.054  1.3796  0.9758  0.3142
 2256TIP3   OH228326   2.164   1.051   8.195 -0.1585 -0.3006  0.0938
 2256TIP3    H128327   2.128   1.046   8.284  1.7745  1.3727  1.0263
 2256TIP3    H228328   2.162   0.960   8.164 -0.3381 -1.0244  2.0706
 2257TIP3   OH228329   4.380   4.755   1.478  0.0591  0.1899 -0.0904
 2257TIP3    H128330   4.355   4.833   1.428 -0.4209  0.5712  0.7100
 2257TIP3    H228331   4.325   4.685   1.443 -0.4744  0.5157  0.0878
 2258TIP3   OH228332   2.502   6.124   1.846  0.0128  0.0577  0.0952
 2258TIP3    H128333   2.503   6.078   1.929 -0.0751 -0.2042 -0.0493
 2258TIP3    H228334   2.580   6.180   1.848  0.4058 -0.4809  0.0510
 2259TIP3   OH228335   1.924   5.958   6.013  0.0687  0.3461  0.3146
 2259TIP3    H128336   1.859   5.970   5.945  1.5435 -0.5545 -1.3467
 2259TIP3    H228337   1.962   6.045   6.026 -0.0857  0.4920 -0.1882
 2260TIP3   OH228338   5.574   6.035   0.476  0.6406  0.3460  0.4542
 2260TIP3    H128339   5.542   5.945   0.487 -0.5057  0.7981  0.9072
 2260TIP3    H228340   5.566   6.074   0.563  1.8153  0.6884  0.4309
 2261TIP3   OH228341   1.038   5.604   7.458 -0.4775 -0.1929  0.3521
 2261TIP3    H128342   1.127   5.570   7.466 -0.4555 -0.7518 -1.5711
 2261TIP3    H228343   0.982   5.528   7.472 -0.5425 -0.3394 -0.5886
 2262TIP3   OH228344   0.362   2.347   0.016 -0.3356 -0.0112  0.2175
 2262TIP3    H128345   0.355   2.253   0.001 -0.3863 -0.3919  2.3878
 2262TIP3    H228346   0.453   2.361   0.042  0.0413  0.7872 -1.3720
 2263TIP3   OH228347   1.135   4.012   1.250  0.8914  0.0018  0.2507
 2263TIP3    H128348   1.110   4.017   1.158  1.1583  0.7475  0.2131
 2263TIP3    H228349   1.117   3.922   1.275  1.1324 -0.3001 -0.6276
 2264TIP3   OH228350   1.951   6.303   0.461 -0.3776  0.3182 -0.4583
 2264TIP3    H128351   1.998   6.221   0.446 -1.5541 -0.6459  0.9609
 2264TIP3    H228352   1.860   6.282   0.443 -0.6341  1.4827 -0.5989
 2265TIP3   OH228353   3.805   0.763   7.056  0.7729  0.5526  0.6378
 2265TIP3    H128354   3.759   0.707   6.993  1.0676  1.2066 -0.1714
 2265TIP3    H228355   3.857   0.702   7.108  1.9241  0.1425 -0.9348
 2266TIP3   OH228356   2.611   3.723   0.567  0.3647 -0.7561 -0.0571
 2266TIP3    H128357   2.704   3.738   0.584 -0.1208  0.7478  1.4801
 2266TIP3    H228358   2.593   3.636   0.604  1.1723 -1.1317 -0.5224
 2267TIP3   OH228359   2.746   4.391   1.806  0.3535  1.0153 -0.7452
 2267TIP3    H128360   2.754   4.480   1.840  0.5879  0.6132  0.2816
 2267TIP3    H228361   2.732   4.337   1.883 -0.9643  0.2881 -1.4597
 2268TIP3   OH228362   6.987   1.381   7.129  0.0773 -0.1110 -0.4989
 2268TIP3    H128363   7.073   1.410   7.157  0.7407 -0.5703 -1.9823
 2268TIP3    H228364   6.987   1.393   7.034 -1.8679  0.8423 -0.4376
 2269TIP3   OH228365   6.569   4.508   5.975 -0.0408  0.1254  0.4445
 2269TIP3    H128366   6.596   4.599   5.965 -0.3141  0.0420 -1.1928
 2269TIP3    H228367   6.476   4.507   5.953  0.6941 -1.0728 -3.2029
 2270TIP3   OH228368   2.704   5.288   0.574 -0.8322 -0.3617 -0.1376
 2270TIP3    H128369   2.754   5.209   0.596  0.8001  0.2169 -1.5346
 2270TIP3    H228370   2.672   5.272   0.486 -1.5410  0.0531  0.0404
 2271TIP3   OH228371   6.184   3.760   6.332 -0.4560 -0.4169  0.2325
 2271TIP3    H128372   6.230   3.705   6.268  1.4760  0.4912  0.7547
 2271TIP3    H228373   6.094   3.728   6.331 -1.3143  1.2689 -4.9184
 2272TIP3   OH228374   0.696   0.952   0.523  0.0460  0.2007  0.2787
 2272TIP3    H128375   0.757   0.992   0.584 -0.7030  2.4787 -0.3676
 2272TIP3    H228376   0.719   0.988   0.438 -0.7791 -0.6517 -0.3324
 2273TIP3   OH228377   5.272   1.538   1.867 -0.3072  0.2892 -0.1341
 2273TIP3    H128378   5.360   1.572   1.885  0.1470 -0.1125 -1.4772
 2273TIP3    H228379   5.217   1.616   1.865  0.4808  0.8462 -1.8089
 2274TIP3   OH228380   5.648   1.344   0.190  1.0442 -0.3002  0.3948
 2274TIP3    H128381   5.739   1.360   0.215  0.8123  1.0948  0.4107
 2274TIP3    H228382   5.596   1.399   0.248  0.1273 -1.5621  0.8137
 2275TIP3   OH228383   3.289   2.487   6.644  0.7012  0.0386  0.5612
 2275TIP3    H128384   3.360   2.442   6.689 -0.0314 -1.2816  0.4708
 2275TIP3    H228385   3.330   2.526   6.567  1.2992 -0.9043  0.3832
 2276TIP3   OH228386   0.902   5.917   0.212  0.2966 -0.0973  0.6969
 2276TIP3    H128387   0.938   5.933   0.300 -0.6764 -0.0423  1.1015
 2276TIP3    H228388   0.808   5.906   0.227  0.3395 -1.9363 -0.1115
 2277TIP3   OH228389   3.945   5.110   1.245 -0.3713 -0.1926  0.0007
 2277TIP3    H128390   3.888   5.127   1.171 -0.1851  1.7333  0.2500
 2277TIP3    H228391   3.982   5.023   1.228 -1.7483 -0.5736 -1.1979
 2278TIP3   OH228392   4.399   4.468   8.099 -0.3726 -0.9369  0.0268
 2278TIP3    H128393   4.456   4.528   8.147 -1.8343  0.1622  0.4505
 2278TIP3    H228394   4.459   4.409   8.055  1.1289  0.7417 -0.2853
 2279TIP3   OH228395   1.359   4.533   6.856  0.4149 -0.0335  0.2958
 2279TIP3    H128396   1.408   4.472   6.801  0.0685  1.5156 -1.8070
 2279TIP3    H228397   1.402   4.617   6.844 -0.4436  0.6016  1.4339
 2280TIP3   OH228398   3.315   3.880   8.049 -0.3342 -0.3902  0.2326
 2280TIP3    H128399   3.288   3.848   8.135  0.1282  0.5154  0.7390
 2280TIP3    H228400   3.333   3.801   7.998 -1.1695 -0.9483  0.7805
 2281TIP3   OH228401   0.892   0.482   8.096  0.1410  0.1371  0.3580
 2281TIP3    H128402   0.967   0.479   8.036 -2.5027 -2.1193 -3.2950
 2281TIP3    H228403   0.900   0.404   8.150 -0.1756 -0.8781 -1.0007
 2282TIP3   OH228404   0.414   5.993   0.041 -0.0650  0.3987  0.2480
 2282TIP3    H128405   0.445   6.062  -0.018  1.2458 -0.2733  0.1297
 2282TIP3    H228406   0.487   5.932   0.048 -0.5655 -0.0639  1.7820
 2283TIP3   OH228407   5.945   3.838   7.460  0.2954 -0.1688  0.1433
 2283TIP3    H128408   5.904   3.856   7.545 -0.1355 -2.5813  0.5089
 2283TIP3    H228409   5.939   3.743   7.450  1.8398 -0.1151 -1.8496
 2284TIP3   OH228410   5.954   0.255   0.412  0.4778 -0.1014 -0.5265
 2284TIP3    H128411   5.912   0.294   0.335  0.4474 -1.5692 -1.2941
 2284TIP3    H228412   6.045   0.284   0.407 -0.1194  2.2605  0.5874
 2285TIP3   OH228413   1.864   6.596   0.648 -0.2018 -0.5121 -0.3440
 2285TIP3    H128414   1.939   6.547   0.615 -1.6194 -3.3208  0.2759
 2285TIP3    H228415   1.793   6.532   0.650 -2.0231  1.4205  1.2761
 2286TIP3   OH228416   1.144   6.005   7.241 -0.3961  0.5522  0.6323
 2286TIP3    H128417   1.172   5.987   7.331 -3.3514 -1.2317  1.3406
 2286TIP3    H228418   1.147   6.100   7.233  1.5017  0.6582  2.0132
 2287TIP3   OH228419   4.668   5.826   7.267  0.0803  1.0042  0.1958
 2287TIP3    H128420   4.736   5.773   7.308  1.1584  2.4390  0.3712
 2287TIP3    H228421   4.711   5.911   7.251 -1.5065  1.7656 -0.2214
 2288TIP3   OH228422   3.309   5.533   1.463  0.1621 -0.2003  0.1427
 2288TIP3    H128423   3.300   5.571   1.376 -0.4455 -0.0922  0.2495
 2288TIP3    H228424   3.307   5.607   1.523  0.0661 -0.3123  0.2800
 2289TIP3   OH228425   3.009   0.581   0.433  0.8886 -0.1452  0.1226
 2289TIP3    H128426   2.926   0.592   0.480  1.8867  0.8194  1.7711
 2289TIP3    H228427   3.046   0.500   0.468  1.8715  0.8342  1.4982
 2290TIP3   OH228428   6.536   0.022   0.036  0.2992 -0.8731  0.2040
 2290TIP3    H128429   6.620   0.043  -0.004 -0.5438  1.1559 -0.6222
 2290TIP3    H228430   6.547   0.042   0.129  0.1517  1.4893 -0.2348
 2291TIP3   OH228431   5.150   3.731   0.835  0.5263  0.1605  0.2197
 2291TIP3    H128432   5.144   3.689   0.749  1.6296 -0.1594  0.2811
 2291TIP3    H228433   5.086   3.685   0.888 -0.2388  0.4319 -0.4562
 2292TIP3   OH228434   6.799   5.444   6.582  0.0353 -0.2337  0.2175
 2292TIP3    H128435   6.723   5.480   6.536 -0.4791 -1.0167  0.4227
 2292TIP3    H228436   6.761   5.390   6.651  0.7834 -0.8210  0.1800
 2293TIP3   OH228437   0.085   3.351   0.542 -0.0580 -0.0544 -0.0222
 2293TIP3    H128438   0.119   3.262   0.526 -0.2542 -0.4026  1.3228
 2293TIP3    H228439  -0.000   3.337   0.583 -0.4641  0.7790 -0.5688
 2294TIP3   OH228440   5.430   3.686   0.141 -0.3748  0.3039  0.0744
 2294TIP3    H128441   5.389   3.713   0.223 -1.5096 -0.4883 -0.2110
 2294TIP3    H228442   5.476   3.605   0.161 -1.1964 -0.2419 -0.2044
 2295TIP3   OH228443   4.311   6.563   0.719 -0.3812 -0.1437 -0.0115
 2295TIP3    H128444   4.314   6.619   0.796  0.3233 -0.4072  0.1520
 2295TIP3    H228445   4.394   6.578   0.674 -0.9917  0.4097 -1.0193
 2296TIP3   OH228446   1.238   1.966   8.016  0.1643 -0.2599  0.0132
 2296TIP3    H128447   1.269   2.007   8.096  0.2371 -0.3323  0.0217
 2296TIP3    H228448   1.260   1.873   8.026 -0.4637 -0.3904  0.2204
 2297TIP3   OH228449   4.547   2.562   7.788 -0.0572 -0.2458 -0.5949
 2297TIP3    H128450   4.499   2.480   7.792  0.8427 -0.7420  0.4862
 2297TIP3    H228451   4.581   2.566   7.698  2.1490 -2.3955  0.0586
 2298TIP3   OH228452   1.483   0.587   7.338 -0.6187 -0.0641  0.4904
 2298TIP3    H128453   1.497   0.674   7.301 -0.4452 -0.9876 -1.7723
 2298TIP3    H228454   1.388   0.576   7.339 -0.6237 -0.0487  0.2550
 2299TIP3   OH228455   6.822   1.589   0.337 -0.1503 -0.4129  0.6464
 2299TIP3    H128456   6.792   1.655   0.274 -0.3112  0.0175  1.1617
 2299TIP3    H228457   6.813   1.506   0.291 -0.4599 -0.1213  0.1713
 2300TIP3   OH228458   1.060   6.695   5.993 -0.0713  0.4709  0.1216
 2300TIP3    H128459   0.973   6.709   5.955  0.4672  1.4547 -0.8093
 2300TIP3    H228460   1.097   6.783   6.000  1.5413 -0.0618 -1.1884
 2301TIP3   OH228461   5.051   3.097   1.357  0.2238 -0.2459 -0.2109
 2301TIP3    H128462   5.093   3.013   1.339 -1.1564 -1.3213  1.2873
 2301TIP3    H228463   5.123   3.153   1.386  1.1963 -0.8244 -1.3887
 2302TIP3   OH228464   4.864   0.468   6.720 -0.2121  0.1935 -0.0488
 2302TIP3    H128465   4.956   0.480   6.700 -0.2102 -0.8923 -0.7816
 2302TIP3    H228466   4.831   0.411   6.651 -1.4373  0.5512  0.2003
 2303TIP3   OH228467   3.031   1.794   6.675  0.2754  0.1760  0.0980
 2303TIP3    H128468   3.094   1.826   6.610  1.4796  1.8474  1.9401
 2303TIP3    H228469   3.052   1.844   6.754 -2.2051 -0.5734  1.3166
 2304TIP3   OH228470   5.733   5.507   6.633 -0.5646  0.1850  0.6870
 2304TIP3    H128471   5.780   5.434   6.594  0.8960  1.2660  0.3449
 2304TIP3    H228472   5.696   5.554   6.559  0.5497  1.1330  0.7064
 2305TIP3   OH228473   0.983   6.435   1.219  0.3104 -0.1277  0.6019
 2305TIP3    H128474   0.895   6.465   1.241 -0.1714 -1.6593  0.8277
 2305TIP3    H228475   1.011   6.494   1.148 -1.4927 -0.5656 -0.5287
 2306TIP3   OH228476   6.296   3.377   0.849 -0.2078 -0.3159 -0.0990
 2306TIP3    H128477   6.353   3.351   0.922 -1.6988 -3.1205  0.2029
 2306TIP3    H228478   6.354   3.380   0.773  1.0491  0.9535  0.8481
 2307TIP3   OH228479   6.334   6.474   0.240  0.1646  0.1935 -0.2961
 2307TIP3    H128480   6.404   6.513   0.292 -0.8984 -0.7294  1.9408
 2307TIP3    H228481   6.255   6.484   0.293 -1.1997  0.0497 -2.1791
 2308TIP3   OH228482   5.281   1.925   6.832 -0.4521  0.7874 -0.9985
 2308TIP3    H128483   5.337   1.917   6.755  1.9256 -0.5160  0.7371
 2308TIP3    H228484   5.222   1.850   6.827  1.9937 -1.3533  0.0774
 2309TIP3   OH228485   4.815   5.240   0.188  0.0423 -0.2213  0.2894
 2309TIP3    H128486   4.768   5.218   0.108  1.2877 -2.1903  0.0118
 2309TIP3    H228487   4.908   5.236   0.164  0.4359  1.6048  1.2732
 2310TIP3   OH228488   4.530   0.377   8.016 -0.1004  0.0201 -0.6186
 2310TIP3    H128489   4.598   0.442   8.033 -1.6349  1.3900  0.5125
 2310TIP3    H228490   4.501   0.395   7.926  0.7721 -0.3717 -0.9938
 2311TIP3   OH228491   2.685   0.105   2.241 -0.4466 -0.4783 -0.1600
 2311TIP3    H128492   2.629   0.065   2.309 -1.0542 -0.1313 -0.4503
 2311TIP3    H228493   2.625   0.159   2.190  0.1041 -0.3545 -0.6779
 2312TIP3   OH228494   2.317   6.559   6.234 -0.5131 -0.6418  0.2571
 2312TIP3    H128495   2.291   6.503   6.307  0.4924 -1.8894 -0.2898
 2312TIP3    H228496   2.249   6.544   6.168 -0.7058 -0.5482  0.4323
 2313TIP3   OH228497   3.108   3.188   0.566 -0.3627  0.1197  0.5703
 2313TIP3    H128498   3.161   3.127   0.618 -0.3674  1.1129  1.8066
 2313TIP3    H228499   3.158   3.270   0.567 -0.5529  0.2639 -0.6999
 2314TIP3   OH228500   6.032   0.033   7.118 -0.2147  0.5465 -0.1452
 2314TIP3    H128501   6.097  -0.036   7.103  0.2593  0.6093  1.4769
 2314TIP3    H228502   6.049   0.064   7.207  0.4251  3.6817 -1.2318
 2315TIP3   OH228503   5.214   5.076   6.751 -0.2456 -0.2444  0.1830
 2315TIP3    H128504   5.144   5.116   6.700  1.4525  0.4730 -1.7198
 2315TIP3    H228505   5.246   5.005   6.696 -0.9180 -2.0799  2.0197
 2316TIP3   OH228506   1.491   2.847   8.311  0.3068 -0.2301 -0.2459
 2316TIP3    H128507   1.580   2.841   8.347 -0.3994 -2.4197  1.3778
 2316TIP3    H228508   1.463   2.935   8.333  0.5989 -0.8332  3.2694
 2317TIP3   OH228509   6.633   5.086   6.976 -0.0740 -0.0555  0.1986
 2317TIP3    H128510   6.579   5.161   7.002 -0.0064  0.6703 -1.6487
 2317TIP3    H228511   6.574   5.011   6.978 -0.1446  0.0037  2.0558
 2318TIP3   OH228512   6.114   2.741   7.177 -0.2195  0.5947  0.6374
 2318TIP3    H128513   6.081   2.817   7.129 -0.3197 -0.0808 -0.4108
 2318TIP3    H228514   6.199   2.769   7.211 -0.3720  1.2633  0.4765
 2319TIP3   OH228515   6.472   2.904   7.114  0.2691  0.3589 -0.5929
 2319TIP3    H128516   6.566   2.914   7.128  0.3571  1.1108 -1.6061
 2319TIP3    H228517   6.436   2.891   7.202  1.2941  0.1952 -0.1793
 2320TIP3   OH228518   0.194   0.372   0.889 -0.1601  0.2687 -0.8892
 2320TIP3    H128519   0.140   0.372   0.810  2.7669 -2.2240 -3.1764
 2320TIP3    H228520   0.274   0.417   0.862  0.0938  1.3595  1.4574
 2321TIP3   OH228521   2.629   0.608   1.584  0.5798 -0.3848 -0.5352
 2321TIP3    H128522   2.678   0.690   1.582  1.4647 -0.8128  1.3655
 2321TIP3    H228523   2.693   0.541   1.559  0.6122 -0.7883  0.5890
 2322TIP3   OH228524   2.895   5.242   8.139  0.3334 -0.2586  0.1776
 2322TIP3    H128525   2.933   5.259   8.053 -1.7017  1.3085 -0.4905
 2322TIP3    H228526   2.808   5.283   8.136  0.7244  1.1804  3.4536
 2323TIP3   OH228527   0.711   6.919   1.224  0.2865  0.4851  0.4769
 2323TIP3    H128528   0.675   7.007   1.239 -0.4368  0.3996 -0.6199
 2323TIP3    H228529   0.670   6.891   1.142  1.8180 -0.1864 -0.0836
 2324TIP3   OH228530   1.859   4.670   1.254  0.3528  0.5551  0.5909
 2324TIP3    H128531   1.767   4.695   1.249  0.2115 -0.1128 -0.3139
 2324TIP3    H228532   1.860   4.595   1.314  0.2274  0.2259  0.1868
 2325TIP3   OH228533   5.810   5.688   1.122  0.1648  0.2764 -0.0274
 2325TIP3    H128534   5.768   5.615   1.167 -2.6941  2.8440  1.8449
 2325TIP3    H228535   5.892   5.702   1.170 -0.7477  0.1990  1.6272
 2326TIP3   OH228536   6.517   5.981   7.547  0.3229 -0.0536 -0.8502
 2326TIP3    H128537   6.545   5.902   7.502  1.3237  0.0082 -0.3468
 2326TIP3    H228538   6.503   5.955   7.638  1.4245  0.4931 -0.5027
 2327TIP3   OH228539   0.985   4.805   6.750 -0.0621 -0.0568 -0.1254
 2327TIP3    H128540   1.059   4.833   6.804 -0.8138  0.9454  0.4087
 2327TIP3    H228541   1.004   4.713   6.730  0.3914 -0.3781  1.5903
 2328TIP3   OH228542   0.268   6.673   0.822 -0.3938  0.1117  0.1776
 2328TIP3    H128543   0.205   6.668   0.750  0.7656 -0.4593 -0.8167
 2328TIP3    H228544   0.293   6.582   0.838 -0.0862  0.3010  0.8100
 2329TIP3   OH228545   4.337   2.951   6.350 -0.1222 -0.7250  0.0896
 2329TIP3    H128546   4.259   2.916   6.393  1.0733 -2.3212  1.0722
 2329TIP3    H228547   4.355   3.033   6.396 -0.5353 -0.9600  0.6780
 2330TIP3   OH228548   2.037   1.455   7.525  0.1721 -0.2386 -0.0481
 2330TIP3    H128549   2.129   1.454   7.551  1.0122 -0.6177 -2.7790
 2330TIP3    H228550   2.039   1.466   7.430 -2.6501  0.7028 -0.0763
 2331TIP3   OH228551   1.366   1.947   2.129 -0.9384 -0.1122  0.3035
 2331TIP3    H128552   1.302   1.876   2.121 -2.0459  0.9579 -0.8533
 2331TIP3    H228553   1.447   1.911   2.092 -1.6731 -0.5580 -0.9321
 2332TIP3   OH228554   0.694   3.469   0.032 -0.1934  0.4882  0.2523
 2332TIP3    H128555   0.661   3.432  -0.050  0.9079  2.3544 -1.0861
 2332TIP3    H228556   0.724   3.392   0.082 -2.8064 -0.8953 -0.1132
 2333TIP3   OH228557   4.300   3.841   1.266  0.3988 -0.1232  0.8881
 2333TIP3    H128558   4.332   3.932   1.272 -2.3821  0.9576  0.7329
 2333TIP3    H228559   4.224   3.839   1.323 -0.3897 -1.9934 -0.1536
 2334TIP3   OH228560   3.659   4.983   0.024  0.4412 -0.2351  0.1649
 2334TIP3    H128561   3.590   4.927  -0.011  2.0778 -1.1999 -1.6999
 2334TIP3    H228562   3.638   5.070  -0.010 -0.1765 -0.4083  0.0960
 2335TIP3   OH228563   2.396   1.227   6.433  0.3887 -0.3153 -0.0275
 2335TIP3    H128564   2.461   1.162   6.406  1.4244  0.9385 -0.7034
 2335TIP3    H228565   2.426   1.308   6.392  0.4011  1.0972  2.5402
 2336TIP3   OH228566   4.290   3.030   7.305 -0.4171  0.1584  0.7085
 2336TIP3    H128567   4.200   3.000   7.297 -0.1786 -0.2373 -0.7568
 2336TIP3    H228568   4.286   3.124   7.288 -0.6764  0.3394  1.6976
 2337TIP3   OH228569   3.042   2.386   1.675  0.0526  1.0559 -0.4372
 2337TIP3    H128570   3.087   2.353   1.597  3.0623  1.8271  0.8391
 2337TIP3    H228571   2.984   2.455   1.642  0.6875  0.8526 -2.0671
 2338TIP3   OH228572   5.540   3.134   0.236  0.3033 -0.5405 -0.1522
 2338TIP3    H128573   5.481   3.172   0.300  0.7159 -0.3029  0.0897
 2338TIP3    H228574   5.524   3.039   0.243 -1.9048 -0.3917 -1.9005
 2339TIP3   OH228575   2.109   3.043   1.117  0.0334 -0.7844 -0.5923
 2339TIP3    H128576   2.095   2.976   1.049  0.4160 -0.2846 -1.1779
 2339TIP3    H228577   2.029   3.040   1.170  0.3926 -2.2959 -0.0726
 2340TIP3   OH228578   4.733   1.265   1.357  0.5925  0.1712 -0.1083
 2340TIP3    H128579   4.730   1.170   1.350 -0.1395  0.2319 -0.7357
 2340TIP3    H228580   4.643   1.293   1.340  0.8920  1.0015 -0.3672
 2341TIP3   OH228581   1.104   4.962   1.742 -0.2313 -0.5012  0.5394
 2341TIP3    H128582   1.177   4.920   1.788  1.8662  0.3723 -1.7759
 2341TIP3    H228583   1.063   4.891   1.693  0.4658 -0.6508  0.1586
 2342TIP3   OH228584   4.883   4.110   1.346 -0.0976 -0.1047 -0.5794
 2342TIP3    H128585   4.828   4.051   1.397 -0.8832  1.7578  0.8751
 2342TIP3    H228586   4.966   4.113   1.394  0.0255 -0.1900 -0.7841
 2343TIP3   OH228587   6.958   1.457   7.876  0.4118 -0.8237  0.0063
 2343TIP3    H128588   7.046   1.494   7.888  0.5330 -1.3063  0.6991
 2343TIP3    H228589   6.916   1.470   7.961  1.1952 -4.1981  1.0601
 2344TIP3   OH228590   6.314   5.035   6.223 -0.8311 -0.6750 -0.4750
 2344TIP3    H128591   6.259   5.112   6.240 -0.8556 -1.2136  2.5003
 2344TIP3    H228592   6.251   4.962   6.216 -0.6528 -0.9482  0.5880
 2345TIP3   OH228593   6.460   3.647   0.703  0.5430 -0.4898  0.0334
 2345TIP3    H128594   6.494   3.721   0.653  0.4371  0.1704  0.9149
 2345TIP3    H228595   6.374   3.629   0.665  0.7570 -0.4528 -0.4751
 2346TIP3   OH228596   4.176   3.010   6.812  0.7305  0.1745  0.1965
 2346TIP3    H128597   4.120   3.049   6.745  1.0258 -2.6748 -1.8390
 2346TIP3    H228598   4.120   3.005   6.890 -0.8523  0.1646 -0.9135
 2347TIP3   OH228599   6.747   2.252   1.267  0.0650 -0.7774  0.4063
 2347TIP3    H128600   6.749   2.337   1.225 -1.3486 -0.9732 -0.0910
 2347TIP3    H228601   6.835   2.242   1.305  0.3716  0.7102  0.1379
 2348TIP3   OH228602   0.540   2.161   0.335 -0.1578 -0.1129  0.1519
 2348TIP3    H128603   0.463   2.109   0.313  0.0610 -1.6480  2.6180
 2348TIP3    H228604   0.509   2.223   0.401  0.4993 -0.0841  0.4476
 2349TIP3   OH228605   3.951   3.144   6.231  0.2577 -0.1470  0.4953
 2349TIP3    H128606   3.952   3.210   6.299 -1.7914  0.2074  0.2598
 2349TIP3    H228607   4.021   3.169   6.171  0.9379  0.5245  1.5475
 2350TIP3   OH228608   6.038   0.309   7.331 -0.0926  0.0277 -0.0708
 2350TIP3    H128609   5.998   0.223   7.348 -0.4178 -0.0934 -1.3425
 2350TIP3    H228610   5.968   0.360   7.291  0.3393  0.6238 -0.0674
 2351TIP3   OH228611   5.948   1.154   1.880  0.2029  0.0412  0.0167
 2351TIP3    H128612   5.975   1.092   1.948 -0.5546 -0.7939 -0.4301
 2351TIP3    H228613   5.882   1.107   1.829 -1.5933  1.7837  0.6530
 2352TIP3   OH228614   2.114   0.950   0.097 -0.3417 -0.1315  0.6034
 2352TIP3    H128615   2.184   0.898   0.136 -0.6528 -0.7943  0.3138
 2352TIP3    H228616   2.087   1.010   0.166  0.5625  0.1877  0.6901
 2353TIP3   OH228617   1.726   1.953   8.296  0.0111 -0.5983 -0.2976
 2353TIP3    H128618   1.776   1.874   8.319 -0.9419 -1.2084 -0.2802
 2353TIP3    H228619   1.773   2.024   8.340  0.5377 -1.2278  0.1859
 2354TIP3   OH228620   6.069   0.282   6.886 -0.0083  0.0735  0.1264
 2354TIP3    H128621   6.096   0.315   6.800  1.4595 -0.8834  0.1748
 2354TIP3    H228622   6.124   0.204   6.899 -2.2052 -1.4786  0.6904
 2355TIP3   OH228623   1.159   6.439   0.034  0.2206 -0.1455 -0.4442
 2355TIP3    H128624   1.216   6.504   0.074  1.9068 -0.2578 -2.4748
 2355TIP3    H228625   1.084   6.432   0.093  1.8551  0.7023  1.8500
 2356TIP3   OH228626   6.521   1.813   6.629 -0.3645 -0.2855  0.4687
 2356TIP3    H128627   6.455   1.881   6.640 -0.4335 -0.0629 -1.0527
 2356TIP3    H228628   6.475   1.742   6.583 -0.3603 -1.5073  2.2240
 2357TIP3   OH228629   2.499   3.654   7.876  0.2742 -0.3001  0.1097
 2357TIP3    H128630   2.426   3.652   7.937  0.1295 -1.1383 -0.0827
 2357TIP3    H228631   2.492   3.739   7.833  0.2585  0.2166  1.1028
 2358TIP3   OH228632   3.115   5.550   8.077  0.2472 -0.3731  0.1951
 2358TIP3    H128633   3.042   5.535   8.137  1.3903 -0.3820  1.6388
 2358TIP3    H228634   3.105   5.483   8.009 -0.7406 -0.7522  0.6976
 2359TIP3   OH228635   1.720   0.594   8.218 -0.2990  0.2176  0.0152
 2359TIP3    H128636   1.673   0.668   8.179 -0.1767  0.3222  0.0675
 2359TIP3    H228637   1.787   0.571   8.153 -0.6659 -0.1786 -0.2322
 2360TIP3   OH228638   0.466   6.227   1.354 -0.4259 -0.4499  0.4710
 2360TIP3    H128639   0.448   6.320   1.339  1.2410 -0.1677  0.0399
 2360TIP3    H228640   0.399   6.200   1.417 -1.5501  0.7783 -0.1229
 2361TIP3   OH228641   3.097   2.314   0.331  0.4474 -0.0412  0.8937
 2361TIP3    H128642   3.190   2.335   0.321  0.7966 -1.1762  1.5958
 2361TIP3    H228643   3.052   2.394   0.305  1.6451  0.8469  1.4422
 2362TIP3   OH228644   2.474   2.637   7.097 -0.1637 -0.5195 -0.2815
 2362TIP3    H128645   2.535   2.612   7.027  1.2022  1.8053 -0.0450
 2362TIP3    H228646   2.402   2.681   7.052  0.9969  1.5088 -0.3181
 2363TIP3   OH228647   3.796   3.125   0.767  0.6098 -0.2818  0.6621
 2363TIP3    H128648   3.712   3.084   0.745  0.6294  0.0607 -0.0703
 2363TIP3    H228649   3.857   3.092   0.701  0.3677  1.8355 -0.7095
 2364TIP3   OH228650   2.526   2.372   6.346 -0.1758  0.0907 -0.1427
 2364TIP3    H128651   2.544   2.464   6.327  0.7448 -0.1179 -0.3144
 2364TIP3    H228652   2.597   2.324   6.303  0.2494 -0.5890  1.2632
 2365TIP3   OH228653   5.773   2.094   7.592  0.2097 -0.0279  0.3562
 2365TIP3    H128654   5.854   2.075   7.641 -0.6325 -0.1666  1.7525
 2365TIP3    H228655   5.769   2.025   7.526  1.3137  0.0793  0.1507
 2366TIP3   OH228656   0.021   2.412   7.996  0.6239 -0.2969  0.7703
 2366TIP3    H128657  -0.040   2.485   8.005  1.7055  0.3947  3.4769
 2366TIP3    H228658   0.104   2.453   7.973  0.9466 -0.8150  1.0026
 2367TIP3   OH228659   4.848   4.559   8.220  0.4635 -0.8095 -0.1709
 2367TIP3    H128660   4.875   4.496   8.154  0.2312 -0.7140 -0.3612
 2367TIP3    H228661   4.917   4.625   8.221 -0.3393  0.0991 -1.5451
 2368TIP3   OH228662   5.083   6.458   2.005  0.6183  0.4186  0.0284
 2368TIP3    H128663   5.151   6.499   1.952  0.3435  0.6426 -0.1548
 2368TIP3    H228664   5.076   6.512   2.083 -0.3182  1.2201 -0.5840
 2369TIP3   OH228665   4.466   2.895   0.398  0.1217  0.2816 -0.9021
 2369TIP3    H128666   4.527   2.964   0.422 -0.0900  0.4508 -0.8453
 2369TIP3    H228667   4.521   2.820   0.374  0.3993  1.1049 -2.9671
 2370TIP3   OH228668   0.873   5.535   1.755  0.4139  0.8186 -0.5811
 2370TIP3    H128669   0.946   5.564   1.809 -0.3919 -0.6532  1.4811
 2370TIP3    H228670   0.900   5.449   1.723 -0.0583  0.6399 -0.5080
 2371TIP3   OH228671   0.245   0.685   2.087 -0.1069 -0.8482  0.0027
 2371TIP3    H128672   0.263   0.646   2.002  2.0051 -0.0900  0.0438
 2371TIP3    H228673   0.190   0.621   2.132 -0.3775 -1.7341 -1.5240
 2372TIP3   OH228674   5.347   2.105   0.452  0.0347 -0.1956  0.2199
 2372TIP3    H128675   5.318   2.169   0.516 -2.3313 -0.5238 -0.4278
 2372TIP3    H228676   5.267   2.074   0.410  1.3085 -1.6483 -1.3310
 2373TIP3   OH228677   1.548   6.939   6.968 -0.5747  0.1230  0.4281
 2373TIP3    H128678   1.457   6.965   6.965 -0.5470  0.3287  1.1880
 2373TIP3    H228679   1.570   6.938   7.061  1.0939  3.2069  0.1914
 2374TIP3   OH228680   5.938   6.806   8.195 -0.0584 -0.5566 -0.2484
 2374TIP3    H128681   5.872   6.826   8.129 -1.3164 -0.6383  0.9424
 2374TIP3    H228682   5.952   6.889   8.241 -0.1848 -0.7984  0.2362
 2375TIP3   OH228683   4.409   3.305   0.074 -0.2286 -0.0031  0.0040
 2375TIP3    H128684   4.419   3.362   0.150  2.5163 -0.2828 -0.0301
 2375TIP3    H228685   4.397   3.218   0.111  0.7608 -0.0882  0.1681
 2376TIP3   OH228686   4.540   6.518   7.244  0.3287 -0.1117  0.1576
 2376TIP3    H128687   4.541   6.487   7.153 -0.0935  0.6795 -0.1313
 2376TIP3    H228688   4.509   6.443   7.295 -1.8151  0.1575 -0.6637
 2377TIP3   OH228689   4.506   2.320   1.138 -0.1631 -0.3969  0.0833
 2377TIP3    H128690   4.439   2.330   1.206 -0.8970 -1.9219 -0.3785
 2377TIP3    H228691   4.537   2.230   1.148 -0.6089 -0.8082 -1.8775
 2378TIP3   OH228692   4.121   6.425   7.008 -0.0599  0.2448  0.3104
 2378TIP3    H128693   4.063   6.490   6.969  0.7176  0.1465 -1.0533
 2378TIP3    H228694   4.199   6.425   6.952  1.4756  0.6986  2.3245
 2379TIP3   OH228695   2.157   3.828   1.187 -0.3279  0.1243  0.4394
 2379TIP3    H128696   2.215   3.851   1.259  0.7924 -1.8108  0.2293
 2379TIP3    H228697   2.194   3.873   1.111 -0.8703  1.2764  0.8321
 2380TIP3   OH228698   0.432   6.140   7.359 -0.2817  0.3896 -0.1881
 2380TIP3    H128699   0.462   6.200   7.427  1.0742 -0.3841 -0.0655
 2380TIP3    H228700   0.371   6.192   7.307  2.0298  2.4374 -1.0644
 2381TIP3   OH228701   4.958   5.558   0.887  0.0651  0.4807 -0.2523
 2381TIP3    H128702   4.990   5.470   0.869 -0.0076  0.4787 -0.3673
 2381TIP3    H228703   5.019   5.616   0.841 -1.8430  0.3946 -3.1006
 2382TIP3   OH228704   5.097   6.030   8.022  0.9462 -0.3776 -0.1296
 2382TIP3    H128705   5.032   5.974   8.065  0.4994  0.0719 -0.2096
 2382TIP3    H228706   5.109   5.991   7.935 -2.5227  1.9541 -1.8526
 2383TIP3   OH228707   4.263   0.608   0.768 -0.2584  0.1954 -0.1771
 2383TIP3    H128708   4.257   0.551   0.691  1.7772  0.6533 -0.7518
 2383TIP3    H228709   4.357   0.615   0.785 -0.6352  0.5544  2.0474
 2384TIP3   OH228710   3.464   5.813   8.041 -0.3513 -0.0433  0.2519
 2384TIP3    H128711   3.416   5.780   7.965 -1.5195  0.0992  0.9033
 2384TIP3    H228712   3.547   5.844   8.005 -1.6707  1.9302 -1.3403
 2385TIP3   OH228713   4.327   1.339   0.193  0.0371 -0.1472  0.3733
 2385TIP3    H128714   4.342   1.411   0.254  1.2203  0.5434 -0.6616
 2385TIP3    H228715   4.412   1.327   0.150 -0.7795 -0.4941 -1.2246
 2386TIP3   OH228716   5.370   3.124   0.454 -0.1697  0.6970 -0.9616
 2386TIP3    H128717   5.411   3.184   0.516 -0.3626 -1.0567  0.9474
 2386TIP3    H228718   5.412   3.040   0.470 -2.1840 -0.4190 -1.2550
 2387TIP3   OH228719   4.797   2.495   1.374 -0.2087 -0.2497  0.7796
 2387TIP3    H128720   4.847   2.569   1.337 -0.2866 -0.0437  1.0822
 2387TIP3    H228721   4.842   2.418   1.340 -0.3554 -0.0669  0.1481
 2388TIP3   OH228722   6.916   4.911   6.304  0.1632  0.0962  0.5247
 2388TIP3    H128723   6.966   4.858   6.240 -0.1416  2.8924 -2.2689
 2388TIP3    H228724   6.983   4.948   6.361  0.6981 -0.5890  0.3650
 2389TIP3   OH228725   2.734   1.563   0.224 -0.3688 -0.0048 -0.0165
 2389TIP3    H128726   2.813   1.611   0.249 -0.2131  0.4490 -1.3000
 2389TIP3    H228727   2.758   1.518   0.142 -1.2815 -0.2626 -0.1529
 2390TIP3   OH228728   1.850   0.572   0.118 -0.1663 -0.4114 -0.2900
 2390TIP3    H128729   1.797   0.561   0.039 -0.8935 -1.8269  0.3725
 2390TIP3    H228730   1.787   0.600   0.185  0.1528 -0.8684  0.2019
 2391TIP3   OH228731   5.106   5.359   8.056 -0.2726 -0.2958 -1.3753
 2391TIP3    H128732   5.128   5.319   7.972  0.7071 -1.1484 -0.7327
 2391TIP3    H228733   5.169   5.322   8.118 -1.6928 -0.5444 -0.0263
 2392TIP3   OH228734   2.406   2.704   7.613  0.3954 -0.1776 -0.3211
 2392TIP3    H128735   2.449   2.768   7.670 -0.9420 -0.1180  0.6967
 2392TIP3    H228736   2.329   2.676   7.663  0.1397 -1.4790 -1.3722
 2393TIP3   OH228737   4.067   5.409   0.805  0.7157 -0.0018  0.8930
 2393TIP3    H128738   4.129   5.433   0.737 -0.2873 -0.2240 -0.1353
 2393TIP3    H228739   4.100   5.326   0.840  0.6444 -0.4541 -0.0964
 2394TIP3   OH228740   2.336   4.496   7.183 -0.6785 -0.0643  0.3337
 2394TIP3    H128741   2.312   4.585   7.208  0.1294  0.5891 -1.1142
 2394TIP3    H228742   2.431   4.493   7.193 -0.7205 -0.8647  0.6127
 2395TIP3   OH228743   6.954   5.954   7.104  0.2767 -0.1428  0.2818
 2395TIP3    H128744   6.956   6.048   7.088 -0.5462 -0.0992  0.3721
 2395TIP3    H228745   7.032   5.936   7.156 -0.5972  0.8355  2.0152
 2396TIP3   OH228746   5.174   0.078   7.923  0.8068 -0.0906 -0.0125
 2396TIP3    H128747   5.231   0.081   7.846  0.3305  1.7188 -0.3506
 2396TIP3    H228748   5.105   0.017   7.899  1.1635 -0.2569 -0.6505
 2397TIP3   OH228749   2.715   2.763   1.477  0.6012 -0.2260 -0.3227
 2397TIP3    H128750   2.709   2.682   1.427  0.7236 -0.0581 -0.6091
 2397TIP3    H228751   2.666   2.827   1.427 -1.7165 -0.7185  1.1816
 2398TIP3   OH228752   6.335   4.552   2.112  0.2182 -0.0079  0.2089
 2398TIP3    H128753   6.393   4.604   2.168 -0.2015  1.0743 -0.3407
 2398TIP3    H228754   6.349   4.462   2.141  0.9739  0.3992  1.1707
 2399TIP3   OH228755   4.463   5.663   7.825 -0.2214  0.3738  0.1732
 2399TIP3    H128756   4.492   5.722   7.894  0.3647 -0.4400  0.6369
 2399TIP3    H228757   4.435   5.584   7.871  0.8143 -0.4420 -0.5442
 2400TIP3   OH228758   1.281   6.447   6.059 -0.2536 -0.0604  0.6535
 2400TIP3    H128759   1.231   6.444   6.141  0.6380 -0.4064  1.1940
 2400TIP3    H228760   1.248   6.525   6.014 -1.1879 -0.2099  1.0531
 2401TIP3   OH228761   4.748   3.012   1.387 -0.2946 -0.0115 -0.4542
 2401TIP3    H128762   4.670   3.039   1.437  1.1328 -0.8918  2.4396
 2401TIP3    H228763   4.819   3.065   1.423  1.4128 -3.0045  0.9517
 2402TIP3   OH228764   2.423   3.242   8.094 -0.1789  0.0402  0.5534
 2402TIP3    H128765   2.395   3.157   8.060 -0.8150  0.3779  0.2241
 2402TIP3    H228766   2.449   3.223   8.185  1.4633 -0.8498 -0.0444
 2403TIP3   OH228767   1.092   3.359   7.110 -0.0991  0.2367 -0.0190
 2403TIP3    H128768   1.121   3.397   7.193  0.8441  0.9863 -0.6739
 2403TIP3    H228769   0.998   3.342   7.123 -0.6350  2.9648  0.2648
 2404TIP3   OH228770   2.991   3.092   1.923 -0.3902  0.4584 -0.0847
 2404TIP3    H128771   3.005   3.021   1.861 -0.0740  0.2567  0.2176
 2404TIP3    H228772   2.907   3.072   1.964 -1.2406  1.2746 -1.3646
 2405TIP3   OH228773   1.450   1.252   8.117  0.3119 -0.0518 -0.0706
 2405TIP3    H128774   1.453   1.163   8.152  0.2480 -0.6301 -1.4693
 2405TIP3    H228775   1.430   1.306   8.193  2.9547 -0.8850  1.3569
 2406TIP3   OH228776   4.851   3.612   0.947  0.0020  0.1589 -0.2846
 2406TIP3    H128777   4.820   3.686   1.000  2.1461  0.0160  1.3114
 2406TIP3    H228778   4.803   3.537   0.981 -0.5349  0.4626 -0.3555
 2407TIP3   OH228779   2.644   0.685   0.178  0.2492  0.3548 -0.4355
 2407TIP3    H128780   2.588   0.650   0.109 -1.2845  0.4301  0.6937
 2407TIP3    H228781   2.692   0.610   0.211 -1.3813 -0.3255  0.4995
 2408TIP3   OH228782   4.557   4.500   7.616 -0.0288 -0.3174  0.6237
 2408TIP3    H128783   4.470   4.516   7.581  0.3934  3.4740  0.9201
 2408TIP3    H228784   4.559   4.546   7.700  1.2108 -3.3178  2.3936
 2409TIP3   OH228785   0.764   2.456   7.074  0.7213 -0.4528  0.3541
 2409TIP3    H128786   0.679   2.452   7.030 -0.4630 -1.2936  2.5361
 2409TIP3    H228787   0.775   2.370   7.114  1.5311  0.3394  1.9646
 2410TIP3   OH228788   4.694   3.266   0.046 -0.0339  0.0892 -0.1407
 2410TIP3    H128789   4.700   3.359   0.065 -2.2646  0.2293  0.1472
 2410TIP3    H228790   4.601   3.250   0.031  0.4811 -1.7926 -1.8326
 2411TIP3   OH228791   2.880   2.950   6.465  0.1831 -0.2253  0.6871
 2411TIP3    H128792   2.965   2.917   6.434 -0.8793 -0.8341 -1.7906
 2411TIP3    H228793   2.816   2.891   6.426 -1.5664  2.3266 -0.5166
 2412TIP3   OH228794   1.467   2.420   7.359  0.4304  0.1361 -0.1516
 2412TIP3    H128795   1.532   2.353   7.382 -0.0655  0.2017  1.6280
 2412TIP3    H228796   1.519   2.497   7.337  0.9780 -0.1972 -0.0650
 2413TIP3   OH228797   3.444   4.735   0.834 -0.6155 -0.0955  0.1605
 2413TIP3    H128798   3.424   4.786   0.913  3.6914  0.0559  1.4288
 2413TIP3    H228799   3.451   4.644   0.866  0.2379 -0.1617 -0.1807
 2414TIP3   OH228800   3.066   3.541   7.553 -0.2164  0.5885  0.0873
 2414TIP3    H128801   3.015   3.555   7.632 -1.1328 -1.0707 -0.1667
 2414TIP3    H228802   3.009   3.569   7.481 -0.4043 -0.2903 -0.1271
 2415TIP3   OH228803   5.464   5.749   8.074 -0.1028  0.2320 -0.0489
 2415TIP3    H128804   5.479   5.843   8.058 -1.3656  0.4954  0.1939
 2415TIP3    H228805   5.396   5.747   8.141  2.4095 -0.8645  2.6730
 2416TIP3   OH228806   6.796   0.313   8.118 -0.4163 -0.3921 -0.0187
 2416TIP3    H128807   6.808   0.341   8.209 -1.0294  0.1499 -0.0968
 2416TIP3    H228808   6.701   0.311   8.105 -0.3281  0.0987 -0.8170
 2417TIP3   OH228809   4.868   1.745   7.597 -0.2249  0.4218 -0.1230
 2417TIP3    H128810   4.828   1.827   7.627 -1.0120 -0.5225  1.4867
 2417TIP3    H228811   4.854   1.683   7.668  1.0454 -0.9242 -0.9839
 2418TIP3   OH228812   0.789   6.110   0.843 -0.0763  0.5038 -0.2642
 2418TIP3    H128813   0.791   6.186   0.902  0.9800 -1.4814  2.4749
 2418TIP3    H228814   0.880   6.095   0.820  0.0494 -1.1066  1.0176
 2419TIP3   OH228815   4.315   2.840   0.636  0.1254  0.4267 -0.7046
 2419TIP3    H128816   4.256   2.914   0.648  2.7982  2.5874 -0.0603
 2419TIP3    H228817   4.367   2.862   0.559  2.3080  0.2367  0.6347
 2420TIP3   OH228818   3.289   1.408   1.452 -0.1277 -0.3330  0.4142
 2420TIP3    H128819   3.348   1.419   1.526 -0.1896 -0.1637  0.4371
 2420TIP3    H228820   3.242   1.491   1.445 -0.5115 -0.5398  0.5238
 2421TIP3   OH228821   2.034   2.688   0.143 -0.0478 -0.6430 -0.0865
 2421TIP3    H128822   2.064   2.779   0.142 -0.0988 -0.6264 -0.1436
 2421TIP3    H228823   2.107   2.638   0.108 -0.1158 -0.5950 -0.2941
 2422TIP3   OH228824   1.104   2.104   0.429 -0.0474 -0.1577  0.1050
 2422TIP3    H128825   1.168   2.033   0.424  1.1985  0.9633 -0.7181
 2422TIP3    H228826   1.113   2.139   0.518  2.4421  1.6450 -0.7442
 2423TIP3   OH228827   5.004   5.635   7.697 -0.2396  0.1651 -0.5793
 2423TIP3    H128828   5.080   5.604   7.648  0.2517  2.7863 -1.6129
 2423TIP3    H228829   4.936   5.647   7.631 -0.2019  1.8012 -0.3635
 2424TIP3   OH228830   4.666   3.528   8.136  0.2196  0.5087 -0.1977
 2424TIP3    H128831   4.623   3.571   8.062  1.3680  1.2549 -0.4663
 2424TIP3    H228832   4.700   3.601   8.189 -1.5123  0.0269  1.6789
 2425TIP3   OH228833   5.131   4.677   6.350  0.4305 -0.3582 -0.5160
 2425TIP3    H128834   5.170   4.633   6.275  1.9522 -1.6551  0.9481
 2425TIP3    H228835   5.149   4.770   6.335 -0.8319 -0.3787 -2.5467
 2426TIP3   OH228836   3.081   5.741   1.628 -0.9021  0.1692  0.0466
 2426TIP3    H128837   3.146   5.748   1.698  0.9916 -0.0652 -1.5827
 2426TIP3    H228838   2.997   5.730   1.674  0.2330  0.0568  2.2431
 2427TIP3   OH228839   0.256   2.290   2.086  0.3562  0.0538  0.4938
 2427TIP3    H128840   0.317   2.289   2.012 -0.0197 -0.9200  0.1840
 2427TIP3    H228841   0.179   2.337   2.052  0.3376 -0.0533  0.3858
 2428TIP3   OH228842   0.060   5.844   6.855  0.4811  0.1465  0.5520
 2428TIP3    H128843   0.006   5.872   6.929  0.3018  0.0719  0.4502
 2428TIP3    H228844   0.001   5.791   6.801  0.2391  1.2734 -0.3166
 2429TIP3   OH228845   0.390   2.344   7.617 -0.0139 -0.3016  0.0278
 2429TIP3    H128846   0.331   2.332   7.542  0.5085  0.1613 -0.4752
 2429TIP3    H228847   0.457   2.405   7.584  0.5944 -0.6171  0.6655
 2430TIP3   OH228848   6.391   6.210   6.452 -0.7528  0.1396  0.2658
 2430TIP3    H128849   6.472   6.258   6.465 -1.0081  0.4570  0.7353
 2430TIP3    H228850   6.385   6.197   6.358  0.5714 -1.1848  0.3258
 2431TIP3   OH228851   5.680   5.181   7.091  0.1831  0.2517  0.1728
 2431TIP3    H128852   5.725   5.157   7.010  1.6764  0.7010  0.8173
 2431TIP3    H228853   5.749   5.179   7.158 -0.3718  2.6361  0.9187
 2432TIP3   OH228854   6.098   5.353   8.361  0.0681 -0.2568  0.1158
 2432TIP3    H128855   6.127   5.375   8.273 -0.0704 -2.1151 -0.4418
 2432TIP3    H228856   6.132   5.424   8.416 -0.1150  1.0938 -1.4494
 2433TIP3   OH228857   1.347   4.045   0.138 -0.2529  0.6499  0.4837
 2433TIP3    H128858   1.259   4.011   0.119 -0.3341  0.4479  1.1912
 2433TIP3    H228859   1.383   3.983   0.202  0.9143 -0.0013 -0.7710
 2434TIP3   OH228860   0.514   0.931   6.085  0.0975  0.3569 -0.8780
 2434TIP3    H128861   0.488   1.017   6.117 -2.5566 -0.0043 -1.8508
 2434TIP3    H228862   0.570   0.949   6.010 -0.8487  1.2556 -1.3790
 2435TIP3   OH228863   6.672   5.678   1.565 -0.2292  0.2641 -0.0935
 2435TIP3    H128864   6.721   5.620   1.508  2.0124  1.7129  0.2396
 2435TIP3    H228865   6.624   5.620   1.623  0.0294 -1.2258 -1.3122
 2436TIP3   OH228866   0.366   5.356   5.637 -0.4305 -0.0537 -0.5046
 2436TIP3    H128867   0.357   5.265   5.609  0.2604 -0.6582  1.1667
 2436TIP3    H228868   0.287   5.373   5.689 -0.6414  0.3696 -0.9521
 2437TIP3   OH228869   1.982   0.496   8.074  0.3586 -0.1933  0.1003
 2437TIP3    H128870   2.028   0.543   8.143 -0.6406  0.0755  0.6007
 2437TIP3    H228871   2.001   0.545   7.994  0.5648  0.1784  0.3789
 2438TIP3   OH228872   5.101   2.394   0.039  0.1442 -0.4808 -0.1293
 2438TIP3    H128873   5.073   2.303   0.028 -0.8263  0.0074 -2.3445
 2438TIP3    H228874   5.019   2.443   0.042  0.6693  0.4271 -0.3321
 2439TIP3   OH228875   3.928   0.522   7.463  0.1425  0.4467 -0.6241
 2439TIP3    H128876   3.950   0.437   7.426  2.4064  0.6937  0.0214
 2439TIP3    H228877   3.926   0.581   7.387  0.3692  0.1517 -0.8606
 2440TIP3   OH228878   2.477   5.909   7.309 -0.2203 -0.5750 -0.1204
 2440TIP3    H128879   2.546   5.941   7.252 -1.2070  0.7281 -0.6456
 2440TIP3    H228880   2.433   5.988   7.341 -1.6613 -1.3551 -0.0620
 2441TIP3   OH228881   4.232   3.874   2.133  0.5797 -0.0531  0.0128
 2441TIP3    H128882   4.200   3.963   2.151 -2.0933 -0.7945 -0.6344
 2441TIP3    H228883   4.173   3.817   2.183  2.0721 -1.5208  0.2041
 2442TIP3   OH228884   0.701   3.557   7.532  0.3020  0.1650  0.2088
 2442TIP3    H128885   0.640   3.570   7.459  0.3561  0.0158  0.1371
 2442TIP3    H228886   0.668   3.480   7.577  0.9762 -0.4716 -0.3774
 2443TIP3   OH228887   4.128   1.893   1.373  0.1269  0.5027  0.2089
 2443TIP3    H128888   4.193   1.825   1.358 -0.2348  0.0614  0.6279
 2443TIP3    H228889   4.152   1.931   1.457  0.1930  0.7477  0.0816
 2444TIP3   OH228890   2.139   6.656   2.889 -0.4498 -0.3362  0.4260
 2444TIP3    H128891   2.174   6.732   2.934 -0.0790 -0.0970 -0.2579
 2444TIP3    H228892   2.101   6.690   2.808  1.1682 -1.0315 -0.6910
 2445TIP3   OH228893   6.928   6.122   1.940 -0.5617 -0.2033  0.3730
 2445TIP3    H128894   6.947   6.040   1.986  2.1579 -0.5561 -1.1568
 2445TIP3    H228895   6.984   6.187   1.983 -1.2361  0.4228  0.3182
 2446TIP3   OH228896   6.187   1.981   2.027 -0.3237 -0.0350 -0.1220
 2446TIP3    H128897   6.209   1.992   2.119 -0.2634 -0.2139 -0.1152
 2446TIP3    H228898   6.093   1.963   2.027 -0.5560  1.0737 -0.1757
 2447TIP3   OH228899   1.630   1.971   2.351  0.1862  0.3316  0.2723
 2447TIP3    H128900   1.603   1.896   2.405  1.1845  0.8192  1.5057
 2447TIP3    H228901   1.638   1.936   2.263 -1.7985 -0.4331  0.3546
 2448TIP3   OH228902   1.775   3.851   1.034 -0.3299  0.0499  0.0827
 2448TIP3    H128903   1.775   3.759   1.008  1.0207  0.3137 -0.9707
 2448TIP3    H228904   1.716   3.894   0.972 -0.4123 -0.0038  0.1250
 2449TIP3   OH228905   2.532   2.861   7.814  0.4652 -0.3353 -0.1254
 2449TIP3    H128906   2.580   2.778   7.816 -0.4378 -0.8784 -0.4966
 2449TIP3    H228907   2.591   2.924   7.856  1.1281 -1.1817  0.2353
 2450TIP3   OH228908   3.122   1.908   0.265  0.5695  0.6588 -0.1924
 2450TIP3    H128909   3.198   1.856   0.289  1.3060  1.9037  0.2786
 2450TIP3    H228910   3.047   1.857   0.295  1.1194 -1.1517 -1.7033
 2451TIP3   OH228911   4.083   4.031   7.089  0.0764 -0.6130 -0.1228
 2451TIP3    H128912   4.099   3.941   7.117 -0.7950 -0.6307  0.3419
 2451TIP3    H228913   4.033   4.022   7.007  0.7969 -0.5492 -0.5786
 2452TIP3   OH228914   6.078   3.338   6.573 -0.3179 -0.4554  0.3164
 2452TIP3    H128915   6.024   3.259   6.580 -1.4536  0.1528 -1.0969
 2452TIP3    H228916   6.043   3.398   6.639 -1.4348 -0.0564 -0.6068
 2453TIP3   OH228917   1.360   4.289   0.405 -0.6199 -0.2311  0.3781
 2453TIP3    H128918   1.304   4.240   0.465 -1.2408 -1.7190 -1.3531
 2453TIP3    H228919   1.409   4.222   0.357  2.3614  0.9851  1.4576
 2454TIP3   OH228920   3.924   4.172   7.291 -0.6827 -0.5596  0.3969
 2454TIP3    H128921   3.865   4.220   7.233 -1.2608 -0.2906  1.1912
 2454TIP3    H228922   3.990   4.134   7.233 -0.9337  0.1640 -0.3704
 2455TIP3   OH228923   0.615   2.300   8.177  0.2945 -0.3485 -0.7879
 2455TIP3    H128924   0.590   2.304   8.270  0.5040 -0.1196 -0.7406
 2455TIP3    H228925   0.698   2.348   8.172  0.3610 -0.4892 -1.0689
 2456TIP3   OH228926   1.908   1.165   7.200 -0.5405  0.0398  0.1852
 2456TIP3    H128927   1.972   1.120   7.256  1.0449  2.0413  0.0968
 2456TIP3    H228928   1.835   1.185   7.259 -1.0584 -2.0599  0.3467
 2457TIP3   OH228929   4.894   5.275   0.595 -0.0555  0.2358 -0.0367
 2457TIP3    H128930   4.939   5.224   0.528  0.1568 -2.3165  1.8981
 2457TIP3    H228931   4.818   5.313   0.549 -0.7850 -2.6682 -1.4665
 2458TIP3   OH228932   2.760   0.053   8.046 -0.5082 -0.1445  0.3941
 2458TIP3    H128933   2.721   0.097   8.121  1.6211  2.6343  0.0407
 2458TIP3    H228934   2.726   0.100   7.970 -1.4355 -1.9323 -0.3686
 2459TIP3   OH228935   5.584   5.260   8.319  0.0604  0.4387 -0.0171
 2459TIP3    H128936   5.607   5.168   8.333  0.3736  0.5985  0.5389
 2459TIP3    H228937   5.550   5.290   8.403  0.0774  0.8627 -0.1581
 2460TIP3   OH228938   4.088   3.024   8.192  0.3113 -0.1317 -0.0466
 2460TIP3    H128939   4.009   2.971   8.192  0.0949  0.1562 -1.3605
 2460TIP3    H228940   4.159   2.962   8.176  0.1293 -0.1236 -0.9095
 2461TIP3   OH228941   4.020   0.494   6.546 -0.1521  0.0597 -0.0504
 2461TIP3    H128942   3.980   0.573   6.510 -1.4731 -0.2494  0.7140
 2461TIP3    H228943   4.109   0.495   6.510 -0.5517  1.2021 -1.0916
 2462TIP3   OH228944   0.665   5.253   1.898 -0.2874 -0.5219 -0.3360
 2462TIP3    H128945   0.604   5.318   1.933  0.2959 -0.4484  0.5584
 2462TIP3    H228946   0.655   5.260   1.803 -0.4493  0.6660 -0.2475
 2463TIP3   OH228947   0.794   4.544   0.037  0.1505 -0.0202 -0.2112
 2463TIP3    H128948   0.752   4.581   0.115  1.5925 -1.2236  1.2143
 2463TIP3    H228949   0.799   4.617  -0.024 -4.0725  0.1924 -0.6171
 2464TIP3   OH228950   6.656   6.184   0.815  0.3169  0.6161 -0.4660
 2464TIP3    H128951   6.576   6.134   0.799  1.0309 -0.4729 -0.7999
 2464TIP3    H228952   6.665   6.240   0.738 -0.8405  1.7817  0.2110
 2465TIP3   OH228953   3.213   4.472   8.322  0.0741  0.7027 -0.6546
 2465TIP3    H128954   3.140   4.515   8.276  0.1089  0.7931 -0.6252
 2465TIP3    H228955   3.171   4.408   8.379 -0.0778  1.7161  0.4166
 2466TIP3   OH228956   6.170   3.044   7.404  0.2577 -0.2319  0.4433
 2466TIP3    H128957   6.200   2.992   7.329  0.8482 -0.4957  0.8554
 2466TIP3    H228958   6.250   3.067   7.451 -0.0679  0.3583  0.7179
 2467TIP3   OH228959   5.158   1.971   1.561  0.3196 -0.1590 -0.0258
 2467TIP3    H128960   5.087   1.979   1.497 -1.6973 -0.4382  2.0730
 2467TIP3    H228961   5.142   1.888   1.606  0.8579  0.6667  1.7843
 2468TIP3   OH228962   4.298   2.093   7.420  0.1555 -0.2118 -0.6482
 2468TIP3    H128963   4.340   2.175   7.394 -3.2236  1.4793 -1.3175
 2468TIP3    H228964   4.255   2.114   7.504  1.6773 -2.2713  0.7433
 2469TIP3   OH228965   2.281   1.882   7.522  0.2835 -0.0046 -0.1860
 2469TIP3    H128966   2.289   1.827   7.444 -0.5142  1.5025 -1.3783
 2469TIP3    H228967   2.231   1.958   7.493  1.2116  1.2961  1.4482
 2470TIP3   OH228968   6.740   1.839   7.662 -0.0152 -0.2241  0.7835
 2470TIP3    H128969   6.804   1.877   7.722  0.6176  0.5785 -0.3661
 2470TIP3    H228970   6.727   1.906   7.595 -0.6189 -1.1357 -0.0461
 2471TIP3   OH228971   0.628   5.824   1.566  0.5816  0.0226 -0.5298
 2471TIP3    H128972   0.552   5.826   1.507 -0.4024 -2.4347  0.5169
 2471TIP3    H228973   0.604   5.760   1.633  2.0640  1.9377  1.9979
 2472TIP3   OH228974   6.056   4.264   7.520 -0.4102  0.4775  0.3711
 2472TIP3    H128975   5.981   4.268   7.581 -0.3431  2.0520  0.3909
 2472TIP3    H228976   6.023   4.304   7.440  0.1971  0.5072  0.1374
 2473TIP3   OH228977   0.576   5.142   8.210 -0.1707 -0.3360  0.0135
 2473TIP3    H128978   0.548   5.097   8.289 -0.8782  1.7781  1.0550
 2473TIP3    H228979   0.670   5.129   8.206 -0.3309 -1.7753  0.3021
 2474TIP3   OH228980   3.038   5.437   1.294 -0.3930  0.6702  0.5494
 2474TIP3    H128981   3.054   5.384   1.372 -3.1732 -0.7898  0.2189
 2474TIP3    H228982   3.073   5.385   1.222 -0.7950  0.4912  0.4844
 2475TIP3   OH228983   3.433   6.965   1.652  0.2667 -0.5887 -0.0231
 2475TIP3    H128984   3.386   7.044   1.624 -0.2823 -0.5094  1.0426
 2475TIP3    H228985   3.398   6.948   1.740  0.2237 -2.1434 -0.3298
 2476TIP3   OH228986   1.529   3.104   8.092 -0.0609 -0.3833  0.1100
 2476TIP3    H128987   1.479   3.124   8.170  0.3552 -0.5698  0.4279
 2476TIP3    H228988   1.593   3.176   8.086  0.2607 -0.6557  0.2469
 2477TIP3   OH228989   6.146   6.596   0.078 -0.2472  0.3450  0.2089
 2477TIP3    H128990   6.228   6.581   0.125  0.6246 -0.4886 -1.5050
 2477TIP3    H228991   6.162   6.674   0.025  0.5430 -1.4784 -2.3810
 2478TIP3   OH228992   2.511   0.933   7.016  0.5020 -0.2033  0.6306
 2478TIP3    H128993   2.418   0.942   7.035  0.1441  0.8522 -1.3693
 2478TIP3    H228994   2.552   0.925   7.102 -1.3108  0.5449  1.6190
 2479TIP3   OH228995   0.599   3.164   7.493  0.0695 -0.0216 -0.1131
 2479TIP3    H128996   0.508   3.137   7.486  0.0459 -0.2896  0.9998
 2479TIP3    H228997   0.602   3.219   7.572  0.6732  0.8510 -0.7216
 2480TIP3   OH228998   6.693   0.475   1.233  0.7176 -0.0725 -0.3112
 2480TIP3    H128999   6.658   0.508   1.150  2.9183  0.0895 -1.2398
 2480TIP3    H229000   6.622   0.489   1.296 -0.6096  0.8290 -1.9225
 2481TIP3   OH229001   4.366   3.640   6.076 -0.6248 -0.2031  0.1368
 2481TIP3    H129002   4.370   3.720   6.025  0.0776 -0.7072 -0.6242
 2481TIP3    H229003   4.326   3.666   6.159 -1.4800  0.6900 -0.5422
 2482TIP3   OH229004   2.750   3.698   1.732  0.2683 -0.1168 -0.2903
 2482TIP3    H129005   2.830   3.732   1.772 -0.7844 -1.0842  3.0175
 2482TIP3    H229006   2.697   3.775   1.714  0.0002  0.3704  2.2150
 2483TIP3   OH229007   5.653   4.395   7.511  0.2955  0.1518 -0.2629
 2483TIP3    H129008   5.568   4.405   7.468 -0.9767  0.0869  2.1035
 2483TIP3    H229009   5.680   4.484   7.533  0.5727  0.1271 -0.4943
 2484TIP3   OH229010   2.519   2.450   7.716  0.3408  0.3693 -0.5796
 2484TIP3    H129011   2.615   2.448   7.719  0.4890 -0.8095 -3.1759
 2484TIP3    H229012   2.498   2.519   7.653 -0.3715 -0.8106 -1.6949
 2485TIP3   OH229013   6.126   2.662   0.293 -0.6915 -0.8230 -0.0433
 2485TIP3    H129014   6.079   2.599   0.349 -0.9458 -1.7613 -1.2651
 2485TIP3    H229015   6.186   2.607   0.242  0.7002  0.2004  0.4558
 2486TIP3   OH229016   0.610   3.031   5.894  0.0891  0.4125 -0.7913
 2486TIP3    H129017   0.559   3.085   5.833  0.0508  1.3057  0.0034
 2486TIP3    H229018   0.625   3.088   5.970  1.0695 -0.3110 -0.4179
 2487TIP3   OH229019   1.883   6.690   1.032 -0.0095 -0.2704 -0.6943
 2487TIP3    H129020   1.880   6.755   0.963 -0.1828  0.1215 -0.3226
 2487TIP3    H229021   1.914   6.738   1.109 -0.5536 -0.5258 -0.3115
 2488TIP3   OH229022   1.625   4.026   6.167 -0.0325 -0.4677 -0.6250
 2488TIP3    H129023   1.535   4.031   6.135  0.1826  0.1255 -1.1513
 2488TIP3    H229024   1.653   4.117   6.175  0.4085 -0.6419 -0.1287
 2489TIP3   OH229025   2.185   0.387   0.772 -0.9425 -0.2337  0.2158
 2489TIP3    H129026   2.128   0.311   0.788  0.9954 -1.4767  1.7203
 2489TIP3    H229027   2.269   0.349   0.746  0.0203  1.3858  0.7769
 2490TIP3   OH229028   0.578   2.552   7.592  0.2211 -0.7527  0.5205
 2490TIP3    H129029   0.571   2.625   7.531 -0.1288 -0.2348  1.1742
 2490TIP3    H229030   0.672   2.529   7.591  0.2256 -0.7365 -0.1739
 2491TIP3   OH229031   5.565   1.676   7.375  0.4229 -0.6864  0.2356
 2491TIP3    H129032   5.491   1.680   7.436  0.4418 -0.5423  0.2482
 2491TIP3    H229033   5.524   1.664   7.290 -0.0003  4.4419 -0.5696
 2492TIP3   OH229034   5.134   1.757   6.498 -0.0037 -0.7344  0.2661
 2492TIP3    H129035   5.168   1.709   6.423 -0.7826  1.2840 -1.4758
 2492TIP3    H229036   5.201   1.823   6.517 -0.7543  0.1520 -0.0773
 2493TIP3   OH229037   6.096   6.052   8.150 -0.6856  0.4919  0.2720
 2493TIP3    H129038   6.042   6.059   8.230  1.0026  1.3181  1.4026
 2493TIP3    H229039   6.180   6.089   8.176 -0.2506  1.2762 -2.0732
 2494TIP3   OH229040   1.101   6.734   7.288 -0.0692  0.1903 -1.1798
 2494TIP3    H129041   1.046   6.696   7.357 -0.0518  1.0917 -0.6584
 2494TIP3    H229042   1.107   6.827   7.310  2.6993 -0.0661 -0.4486
 2495TIP3   OH229043   0.748   0.952   7.316  0.0107  0.2373  0.4764
 2495TIP3    H129044   0.769   1.002   7.238  1.4570 -1.6461 -0.4035
 2495TIP3    H229045   0.663   0.986   7.344 -0.2861  1.3180 -1.5903
 2496TIP3   OH229046   4.541   3.355   0.711 -0.2902 -0.1082 -0.1040
 2496TIP3    H129047   4.619   3.301   0.727  0.1561  0.7478  0.6688
 2496TIP3    H229048   4.487   3.340   0.788  0.9513  2.4385  1.3878
 2497TIP3   OH229049   4.116   6.729   6.571  0.0884 -0.0333  0.3382
 2497TIP3    H129050   4.075   6.692   6.493  2.2141 -0.9533 -0.4155
 2497TIP3    H229051   4.194   6.676   6.585  1.4258  2.0445  1.2816
 2498TIP3   OH229052   0.100   1.784   1.072  0.0582  0.0948 -0.4563
 2498TIP3    H129053   0.047   1.720   1.025  0.9310 -0.4958 -0.6649
 2498TIP3    H229054   0.170   1.807   1.011 -0.9449  2.2363 -0.8841
 2499TIP3   OH229055   1.541   3.474   0.518 -0.3391 -0.1139 -0.8050
 2499TIP3    H129056   1.623   3.500   0.476  0.2020  0.6411  0.6649
 2499TIP3    H229057   1.546   3.379   0.523  2.2658  0.0354  2.6275
 2500TIP3   OH229058   4.736   0.991   1.328 -0.0380  0.3715  0.4389
 2500TIP3    H129059   4.760   0.907   1.290  0.0968 -0.1399  1.6168
 2500TIP3    H229060   4.731   0.975   1.422 -1.2962  1.3652  0.5737
 2501TIP3   OH229061   2.544   2.308   8.069  0.6355 -0.1480 -0.6621
 2501TIP3    H129062   2.497   2.289   8.150  0.5077  1.5604 -0.2897
 2501TIP3    H229063   2.587   2.226   8.046  0.0803 -0.8642  0.7386
 2502TIP3   OH229064   2.133   3.642   2.191  0.7242  0.9689 -0.1818
 2502TIP3    H129065   2.187   3.575   2.233  0.7621  0.7054 -0.6369
 2502TIP3    H229066   2.047   3.601   2.181  0.6370  1.1317 -0.1065
 2503TIP3   OH229067   2.574   2.484   6.895 -0.6571  0.6176  0.2543
 2503TIP3    H129068   2.669   2.476   6.891 -0.7598 -0.2912 -1.3978
 2503TIP3    H229069   2.551   2.532   6.815 -1.5922  0.8857  0.6724
 2504TIP3   OH229070   1.864   3.451   1.673  0.2429 -0.0324  0.1293
 2504TIP3    H129071   1.786   3.486   1.630  1.6851  1.9905 -1.0011
 2504TIP3    H229072   1.841   3.449   1.766 -1.9717 -1.8901 -0.3628
 2505TIP3   OH229073   4.255   4.456   0.085 -0.4427 -0.0818 -0.5660
 2505TIP3    H129074   4.163   4.483   0.092 -0.4365  0.0978 -1.1596
 2505TIP3    H229075   4.251   4.369   0.046 -0.3363  0.1567 -1.1146
 2506TIP3   OH229076   5.981   5.105   0.365  0.0002  0.2988  0.4007
 2506TIP3    H129077   5.966   5.124   0.272  1.4435  2.1897  0.5048
 2506TIP3    H229078   5.894   5.084   0.399 -0.8510  1.4222 -0.9907
 2507TIP3   OH229079   0.849   3.528   1.317  0.2807 -0.4290 -0.0541
 2507TIP3    H129080   0.796   3.461   1.275  0.5397  0.0473 -1.1670
 2507TIP3    H229081   0.796   3.556   1.392 -1.3521  0.4486 -1.4545
 2508TIP3   OH229082   3.951   3.362   1.367  0.2663  0.2981  0.0669
 2508TIP3    H129083   3.972   3.380   1.275 -2.2234 -0.2613 -0.6718
 2508TIP3    H229084   3.917   3.445   1.400 -1.4762 -0.2168 -0.3618
 2509TIP3   OH229085   0.590   0.150   6.778 -0.9350  0.6032  0.1180
 2509TIP3    H129086   0.502   0.133   6.810 -0.2607 -0.9768  1.2765
 2509TIP3    H229087   0.646   0.091   6.829  0.6592  0.7405 -1.3812
 2510TIP3   OH229088   5.188   5.828   7.846  0.0181  0.1703 -0.0559
 2510TIP3    H129089   5.123   5.787   7.788 -0.2808  0.3080  0.1794
 2510TIP3    H229090   5.260   5.765   7.850 -0.4147 -0.3106  0.2574
 2511TIP3   OH229091   0.032   6.308   0.300  0.4201  0.1184  0.3920
 2511TIP3    H129092   0.112   6.330   0.348  1.2044 -1.6474 -0.0078
 2511TIP3    H229093   0.035   6.213   0.292 -0.9333  0.1565 -1.0167
 2512TIP3   OH229094   3.472   1.387   8.256 -0.1035 -0.5462 -0.0677
 2512TIP3    H129095   3.463   1.475   8.295  0.0400 -0.7959  0.5396
 2512TIP3    H229096   3.562   1.384   8.224 -0.7419  0.3289 -2.1158
 2513TIP3   OH229097   0.309   3.764   6.653 -0.0819 -0.4078  0.2795
 2513TIP3    H129098   0.339   3.724   6.734  0.0414 -1.1487 -0.1297
 2513TIP3    H229099   0.382   3.818   6.624 -0.1400 -0.1148  0.6760
 2514TIP3   OH229100   5.807   3.080   0.458 -0.0015  0.2562 -0.5853
 2514TIP3    H129101   5.808   3.085   0.362  0.3542 -0.2674 -0.6175
 2514TIP3    H229102   5.782   2.989   0.476 -0.2532  0.4072 -0.1801
 2515TIP3   OH229103   6.094   2.016   7.621 -0.1804  0.1191 -0.1366
 2515TIP3    H129104   6.053   1.952   7.564  2.3262 -1.1991 -0.6052
 2515TIP3    H229105   6.071   1.987   7.710 -0.5838 -0.3360 -0.3844
 2516TIP3   OH229106   4.598   5.861   1.444 -0.2121 -0.6473 -0.5155
 2516TIP3    H129107   4.572   5.952   1.429  1.4258 -0.3644 -2.0096
 2516TIP3    H229108   4.631   5.860   1.534 -1.4442 -0.0951 -0.0366
 2517TIP3   OH229109   2.381   5.544   7.943 -0.3672  0.2010  0.1675
 2517TIP3    H129110   2.468   5.505   7.944 -0.1431  0.6550 -0.7015
 2517TIP3    H229111   2.338   5.506   7.866 -1.2173 -0.5891  0.9982
 2518TIP3   OH229112   0.598   1.946   0.609  0.5666  0.2976 -0.2319
 2518TIP3    H129113   0.599   1.881   0.539  0.9800  0.0018  0.0467
 2518TIP3    H229114   0.688   1.976   0.615  1.0143 -1.2250  1.5989
 2519TIP3   OH229115   3.824   3.844   7.338 -0.3043 -0.0635  0.6071
 2519TIP3    H129116   3.768   3.768   7.354  0.0904 -1.1902 -2.6194
 2519TIP3    H229117   3.900   3.830   7.394 -0.9280 -1.2576  1.1867
 2520TIP3   OH229118   4.395   0.216   8.191 -0.3408  0.3452  0.5235
 2520TIP3    H129119   4.451   0.155   8.239 -2.3550 -1.1394  1.1113
 2520TIP3    H229120   4.454   0.259   8.129  1.2311 -2.0293  0.2617
 2521TIP3   OH229121   5.901   0.337   7.732  0.1908 -0.5211 -0.3506
 2521TIP3    H129122   5.821   0.320   7.684 -0.2731 -0.7175  0.4736
 2521TIP3    H229123   5.922   0.254   7.774  0.5819 -0.3503 -0.1997
 2522TIP3   OH229124   4.463   4.081   7.447 -0.2457  0.0754 -0.0545
 2522TIP3    H129125   4.498   4.155   7.495  2.2735 -0.4597 -0.9381
 2522TIP3    H229126   4.412   4.120   7.376 -0.3408  0.9036  0.4608
 2523TIP3   OH229127   1.260   2.513   2.076 -0.4758 -0.8170 -0.0157
 2523TIP3    H129128   1.244   2.594   2.124  0.3642  0.6898 -2.1010
 2523TIP3    H229129   1.172   2.479   2.055 -0.8520  0.0825  0.0677
 2524TIP3   OH229130   6.565   4.354   7.625 -0.5690  0.0049 -0.3164
 2524TIP3    H129131   6.637   4.385   7.679 -0.6523  0.2824 -0.3668
 2524TIP3    H229132   6.585   4.385   7.537 -0.9003  0.3423 -0.2768
 2525TIP3   OH229133   6.687   6.642   0.874 -0.1601  0.4145  0.5137
 2525TIP3    H129134   6.772   6.682   0.894 -0.0446 -0.7054  2.5642
 2525TIP3    H229135   6.623   6.706   0.903 -0.0398  1.0958 -0.6733
 2526TIP3   OH229136   3.482   4.360   1.542  0.3866 -0.0243 -0.3970
 2526TIP3    H129137   3.573   4.378   1.563  0.4973  1.2964 -1.9135
 2526TIP3    H229138   3.471   4.267   1.563  1.2402  0.4555  2.6080
 2527TIP3   OH229139   6.865   5.523   6.992  0.1395 -0.2255 -0.0365
 2527TIP3    H129140   6.850   5.440   7.037 -0.4713  0.5621  1.2746
 2527TIP3    H229141   6.943   5.507   6.938  0.4855 -1.4260  0.7705
 2528TIP3   OH229142   4.145   2.623   8.269 -0.5241  0.2140 -0.0280
 2528TIP3    H129143   4.067   2.648   8.318 -1.0695 -0.5686 -0.4680
 2528TIP3    H229144   4.183   2.551   8.320 -0.7208 -0.1533 -0.3910
 2529TIP3   OH229145   5.957   3.317   7.610 -0.4743 -0.6610 -0.0193
 2529TIP3    H129146   5.919   3.237   7.646  0.0280 -1.1154 -0.4761
 2529TIP3    H229147   6.043   3.290   7.577 -0.4207  0.0048 -0.4451
 2530TIP3   OH229148   4.457   1.523   6.404  0.0003 -0.4128 -0.2105
 2530TIP3    H129149   4.390   1.590   6.393  0.7281  0.2229 -0.8362
 2530TIP3    H229150   4.540   1.568   6.390  0.5330 -1.3428 -0.1669
 2531TIP3   OH229151   6.942   6.516   7.923 -0.5488 -0.6882 -0.0710
 2531TIP3    H129152   7.012   6.552   7.868  0.0598  0.6421  1.4852
 2531TIP3    H229153   6.959   6.553   8.010 -3.2981 -0.1584  0.3339
 2532TIP3   OH229154   4.605   4.460   6.565  0.5705  0.1919 -0.7855
 2532TIP3    H129155   4.686   4.418   6.535  0.6388  0.2898 -0.7382
 2532TIP3    H229156   4.536   4.420   6.512  0.7794  0.9666 -1.6628
 2533TIP3   OH229157   1.434   4.498   1.096  0.2734  0.5949  0.1675
 2533TIP3    H129158   1.513   4.538   1.059  0.2528  0.2229 -0.2860
 2533TIP3    H229159   1.438   4.407   1.067 -0.1006  0.4677  0.5126
 2534TIP3   OH229160   5.230   3.176   7.177  0.5512 -0.2920  0.4018
 2534TIP3    H129161   5.204   3.084   7.171 -1.0966  0.1998 -0.6652
 2534TIP3    H229162   5.231   3.207   7.087 -0.5627  1.1427  0.8404
 2535TIP3   OH229163   0.970   6.940   0.796  0.7281  0.2260  0.5632
 2535TIP3    H129164   1.024   6.990   0.734  0.8526  0.1682  0.6254
 2535TIP3    H229165   0.912   7.006   0.836  0.5256  0.2373  0.2591
 2536TIP3   OH229166   5.888   5.171   7.287 -0.6449 -0.2233 -0.6018
 2536TIP3    H129167   5.909   5.249   7.338 -1.0662 -0.1659 -0.5051
 2536TIP3    H229168   5.846   5.112   7.351  0.9432 -1.1145 -0.3271
 2537TIP3   OH229169   2.258   6.989   1.108 -0.0710 -0.3633 -0.3054
 2537TIP3    H129170   2.275   7.014   1.017  1.1283 -1.0739 -0.2961
 2537TIP3    H229171   2.284   7.066   1.159  0.0111 -0.2494 -0.5171
 2538TIP3   OH229172   6.505   4.426   1.818 -0.4911 -0.0962  0.7061
 2538TIP3    H129173   6.438   4.395   1.757 -0.9210 -0.1345  1.1975
 2538TIP3    H229174   6.461   4.432   1.902  0.2381 -0.5520  1.1337
 2539TIP3   OH229175   2.550   2.003   1.300 -0.2608  0.4215  0.7816
 2539TIP3    H129176   2.589   1.964   1.222 -1.6792 -1.6788  1.0352
 2539TIP3    H229177   2.480   2.059   1.266 -1.7897 -1.5506  0.4975
 2540TIP3   OH229178   0.536   5.924   6.686 -0.0464 -0.0551 -0.4449
 2540TIP3    H129179   0.544   6.019   6.694 -0.4631 -0.1763  2.2401
 2540TIP3    H229180   0.548   5.891   6.775 -0.3629 -2.5021 -1.2335
 2541TIP3   OH229181   0.907   0.495   6.884  0.0095  0.1025  0.3553
 2541TIP3    H129182   0.887   0.452   6.800  0.9931 -0.2171  0.2755
 2541TIP3    H229183   0.823   0.530   6.913 -0.6266 -0.9792 -0.0959
 2542TIP3   OH229184   0.646   2.181   1.980 -0.2496 -0.2348  0.5312
 2542TIP3    H129185   0.626   2.274   1.972 -0.2471 -0.0920  1.9202
 2542TIP3    H229186   0.580   2.137   1.926  1.6145  0.6601 -2.7130
 2543TIP3   OH229187   5.647   4.202   8.263  0.4927  0.7132  0.3296
 2543TIP3    H129188   5.560   4.177   8.233 -0.0263  4.2580 -1.7982
 2543TIP3    H229189   5.631   4.266   8.333  1.3701  0.9923  0.2942
 2544TIP3   OH229190   6.674   3.301   7.650  0.0430  0.3878  0.5554
 2544TIP3    H129191   6.760   3.342   7.665 -0.0881  1.0813 -0.4732
 2544TIP3    H229192   6.695   3.210   7.627  0.3667 -0.0367  2.4051
 2545TIP3   OH229193   1.513   4.362   6.683  0.5712  0.1286  0.0914
 2545TIP3    H129194   1.492   4.358   6.590  0.6394 -2.6596  0.0939
 2545TIP3    H229195   1.606   4.339   6.688  0.2679 -1.0499  0.8824
 2546TIP3   OH229196   4.187   2.242   2.043  0.4668 -0.6769  0.1683
 2546TIP3    H129197   4.245   2.166   2.042 -0.3036 -1.2775 -0.5300
 2546TIP3    H229198   4.106   2.211   2.000  0.8187  1.0508 -1.9249
 2547TIP3   OH229199   6.514   5.266   6.233 -0.0186  0.0190  0.3471
 2547TIP3    H129200   6.476   5.202   6.172  1.9767 -1.5105  0.6268
 2547TIP3    H229201   6.519   5.220   6.316  0.8694  0.7684  0.7165
 2548TIP3   OH229202   5.844   4.867   6.041 -0.6068  0.5891  0.6669
 2548TIP3    H129203   5.796   4.805   6.096 -0.8897  0.0957 -0.1196
 2548TIP3    H229204   5.786   4.943   6.035 -0.0909  1.1243  1.9567
 2549TIP3   OH229205   4.457   0.572   1.377 -0.1717  0.0368  0.1457
 2549TIP3    H129206   4.375   0.616   1.356  0.8897  2.2319  0.2234
 2549TIP3    H229207   4.472   0.593   1.470  0.7638  0.2332 -0.0340
 2550TIP3   OH229208   5.491   1.108   7.150  0.0764  0.2724  0.4333
 2550TIP3    H129209   5.471   1.143   7.063  0.7703 -0.5385 -0.0660
 2550TIP3    H229210   5.556   1.168   7.186 -1.8060  1.8835  1.3276
 2551TIP3   OH229211   3.253   6.579   5.939 -0.3098 -0.6689  0.1997
 2551TIP3    H129212   3.180   6.519   5.951  0.5681 -1.9391 -0.5507
 2551TIP3    H229213   3.288   6.593   6.027 -0.7661 -0.9527  0.4268
 2552TIP3   OH229214   1.320   3.425   6.783  0.1394 -0.6006 -0.3761
 2552TIP3    H129215   1.408   3.460   6.769 -0.5297  1.7026  0.6006
 2552TIP3    H229216   1.266   3.469   6.717 -0.8668  0.9727  1.3827
 2553TIP3   OH229217   2.781   1.413   7.979 -0.4726  0.7408  0.1267
 2553TIP3    H129218   2.815   1.325   7.966  1.9140  1.2526  2.2679
 2553TIP3    H229219   2.714   1.404   8.047  0.9162  0.7418  1.5380
 2554TIP3   OH229220   4.583   0.313   1.387  0.0354  0.1211 -0.7354
 2554TIP3    H129221   4.502   0.297   1.338 -0.2903 -2.6162  0.5141
 2554TIP3    H229222   4.560   0.380   1.451 -0.6490  0.7654 -1.6206
 2555TIP3   OH229223   4.630   0.864   7.371  0.4530 -0.1424 -0.0085
 2555TIP3    H129224   4.539   0.889   7.352  0.1619 -0.8438  0.4108
 2555TIP3    H229225   4.683   0.922   7.316 -0.2185  0.8337  0.3386
 2556TIP3   OH229226   3.796   1.980   7.771  0.3168  0.1425  0.1943
 2556TIP3    H129227   3.851   1.902   7.782 -0.3416 -0.3622 -0.0099
 2556TIP3    H229228   3.853   2.053   7.795  0.2166 -0.5774  2.9230
 2557TIP3   OH229229   6.070   6.348   6.894  0.4083 -0.0940 -0.0828
 2557TIP3    H129230   6.077   6.442   6.875 -0.9535 -0.1983 -1.2879
 2557TIP3    H229231   6.160   6.318   6.904  1.0888  0.6863 -3.0736
 2558TIP3   OH229232   1.654   4.645   1.020  0.1535  0.1872  0.1318
 2558TIP3    H129233   1.594   4.719   1.028  0.0496  0.2705 -1.1948
 2558TIP3    H229234   1.736   4.685   0.991  0.1263 -0.1930 -0.4818
 2559TIP3   OH229235   0.651   0.346   2.296  0.2137  0.5058  0.7101
 2559TIP3    H129236   0.558   0.368   2.302 -0.2685 -1.3115  0.4734
 2559TIP3    H229237   0.652   0.255   2.265  2.0783  0.5884  0.4346
 2560TIP3   OH229238   0.380   4.536   7.138 -0.1491 -0.3304  0.0137
 2560TIP3    H129239   0.351   4.617   7.179  1.6349  0.5094 -0.2732
 2560TIP3    H229240   0.437   4.565   7.067  0.6616 -1.8453  0.0091
 2561TIP3   OH229241   6.656   3.674   7.706  0.2290 -0.3991  0.3490
 2561TIP3    H129242   6.647   3.594   7.653  1.1663 -0.5503  0.3926
 2561TIP3    H229243   6.743   3.666   7.745  0.5703  0.9222 -0.1044
 2562TIP3   OH229244   1.911   0.242   6.481 -0.0809 -0.3612  0.7170
 2562TIP3    H129245   1.889   0.249   6.574 -2.0099  0.2006  0.2639
 2562TIP3    H229246   1.937   0.331   6.456 -1.3154 -0.0975  0.3312
 2563TIP3   OH229247   4.885   6.833   7.635  0.0249  0.8158 -0.1763
 2563TIP3    H129248   4.908   6.905   7.577 -1.3319  0.3190 -1.4050
 2563TIP3    H229249   4.812   6.789   7.591  0.2223 -0.7652  0.9802
 2564TIP3   OH229250   3.170   2.725   6.700 -0.4993  0.1259 -0.7555
 2564TIP3    H129251   3.173   2.723   6.796 -0.7947  1.1630 -0.7101
 2564TIP3    H229252   3.254   2.688   6.672 -0.8861 -1.2635 -0.1240
 2565TIP3   OH229253   2.742   3.220   6.726  0.0996  0.0200 -0.1413
 2565TIP3    H129254   2.829   3.249   6.754 -0.3996 -0.4436  2.0810
 2565TIP3    H229255   2.741   3.126   6.745 -1.2461  0.2244  0.9633
 2566TIP3   OH229256   5.876   3.467   1.327  0.1383 -0.1053  0.3269
 2566TIP3    H129257   5.914   3.387   1.364  0.6338 -0.6026 -1.1838
 2566TIP3    H229258   5.945   3.504   1.273 -0.7390  0.2604 -0.5795
 2567TIP3   OH229259   4.755   6.438   1.578  0.0438 -0.1181 -0.1574
 2567TIP3    H129260   4.764   6.373   1.648  0.4951 -0.0252 -0.1272
 2567TIP3    H229261   4.833   6.493   1.586  1.5727 -1.7768 -2.4509
 2568TIP3   OH229262   1.123   6.619   8.175 -0.1711  0.2112  0.0885
 2568TIP3    H129263   1.101   6.557   8.244  0.1400 -0.5350 -0.4589
 2568TIP3    H229264   1.188   6.573   8.122  1.0664  1.5167  0.4248
 2569TIP3   OH229265   4.797   0.832   2.510 -0.1541 -0.3200  1.2822
 2569TIP3    H129266   4.796   0.896   2.581 -0.8304  0.8009  0.3061
 2569TIP3    H229267   4.772   0.883   2.432 -2.1086 -2.0405  0.7055
 2570TIP3   OH229268   4.090   5.635   7.785 -0.2263 -0.0616  0.3405
 2570TIP3    H129269   4.152   5.569   7.818 -0.5650  0.9079  3.1373
 2570TIP3    H229270   4.023   5.642   7.853 -1.1029  1.9893 -0.6416
 2571TIP3   OH229271   5.202   1.333   1.694  0.1649  0.3416 -0.5292
 2571TIP3    H129272   5.237   1.412   1.737  0.3415 -0.0944  0.1505
 2571TIP3    H229273   5.234   1.261   1.748 -0.2085 -0.1824 -1.0015
 2572TIP3   OH229274   1.751   1.443   0.605  0.3930  0.1637 -0.5073
 2572TIP3    H129275   1.660   1.420   0.625  0.0125  0.9023 -1.3341
 2572TIP3    H229276   1.774   1.508   0.671  0.3051  0.0166 -0.3299
 2573TIP3   OH229277   3.238   2.582   8.330  0.2379 -0.4143 -0.1986
 2573TIP3    H129278   3.173   2.640   8.291 -1.0734 -1.3974  0.4578
 2573TIP3    H229279   3.293   2.554   8.256 -0.1892  0.2974 -0.7936
 2574TIP3   OH229280   2.786   5.773   7.456 -0.3344 -0.4272  0.4630
 2574TIP3    H129281   2.795   5.785   7.550 -0.2687 -0.2300  0.4318
 2574TIP3    H229282   2.717   5.708   7.446 -0.5557 -0.2167  0.6381
 2575TIP3   OH229283   6.504   0.103   0.947 -0.0708  0.5962  0.6266
 2575TIP3    H129284   6.537   0.165   0.882 -2.4046  1.0744 -0.2080
 2575TIP3    H229285   6.423   0.143   0.978 -2.0249 -2.2801 -0.4027
 2576TIP3   OH229286   1.532   6.682   6.795 -1.0230  0.2327 -0.0474
 2576TIP3    H129287   1.524   6.668   6.889  0.8275  1.3048  0.3315
 2576TIP3    H229288   1.511   6.598   6.755 -0.9239 -0.4948  1.3904
 2577TIP3   OH229289   3.416   4.296   8.243 -0.1420  0.0652  0.6624
 2577TIP3    H129290   3.366   4.374   8.265 -1.4654 -0.9491  1.4298
 2577TIP3    H229291   3.353   4.239   8.198  0.9735 -0.3092 -0.4817
 2578TIP3   OH229292   6.725   4.723   0.064 -0.0340 -0.0857 -0.0260
 2578TIP3    H129293   6.650   4.774   0.034  0.1181 -0.0175 -0.2871
 2578TIP3    H229294   6.739   4.658  -0.005 -0.6327 -0.8997  0.5997
 2579TIP3   OH229295   0.371   6.022   7.608  0.6519  0.2859  0.1611
 2579TIP3    H129296   0.427   6.076   7.552  1.2722  1.7479  2.0433
 2579TIP3    H229297   0.284   6.028   7.568  1.3308  0.1011 -1.3957
 2580TIP3   OH229298   5.554   4.893   7.679  0.1560  0.2989  0.1544
 2580TIP3    H129299   5.460   4.888   7.696  0.2211  0.8930  0.6957
 2580TIP3    H229300   5.594   4.901   7.765  0.7448 -0.4848 -0.0375
 2581TIP3   OH229301   2.256   5.185   0.449  0.3997  0.5443  0.4224
 2581TIP3    H129302   2.307   5.166   0.528  0.3939 -0.5859  0.1823
 2581TIP3    H229303   2.322   5.196   0.380  0.3865  0.9356  0.4751
 2582TIP3   OH229304   4.619   4.143   8.261  0.4683 -0.1618  0.1579
 2582TIP3    H129305   4.624   4.050   8.280  1.7718  0.0590  1.0351
 2582TIP3    H229306   4.644   4.186   8.343  0.0068  0.9573 -0.2674
 2583TIP3   OH229307   4.091   5.710   7.528  0.2034  0.1821 -0.6268
 2583TIP3    H129308   4.065   5.696   7.620  1.3444 -1.9259 -0.5546
 2583TIP3    H229309   4.159   5.777   7.532  0.1158  0.2386  0.0663
 2584TIP3   OH229310   6.120   3.117   8.034 -0.2855 -0.3454 -0.0782
 2584TIP3    H129311   6.169   3.169   8.098 -0.8685  0.6742 -0.4310
 2584TIP3    H229312   6.050   3.076   8.084 -0.1965 -0.2863  0.0937
 2585TIP3   OH229313   2.251   3.799   7.891  0.7392 -0.6957 -0.0272
 2585TIP3    H129314   2.178   3.741   7.869 -1.6691  1.1748  2.3603
 2585TIP3    H229315   2.278   3.837   7.808 -0.4172 -2.1041 -1.0931
 2586TIP3   OH229316   3.382   5.144   1.141 -0.4819  0.2836 -0.1517
 2586TIP3    H129317   3.339   5.149   1.055 -0.2414 -0.7713 -0.3550
 2586TIP3    H229318   3.463   5.193   1.130  0.3479 -1.2189 -1.0620
 2587TIP3   OH229319   0.282   4.335   7.550  0.0241  0.0575 -0.7865
 2587TIP3    H129320   0.225   4.281   7.604 -1.1514  1.4814 -0.5342
 2587TIP3    H229321   0.222   4.384   7.493  1.0101  1.3183 -0.7889
 2588TIP3   OH229322   4.909   6.816   7.296 -0.4442 -0.3707  0.1378
 2588TIP3    H129323   4.879   6.903   7.325 -2.2844 -0.4565 -1.2804
 2588TIP3    H229324   5.003   6.826   7.285  0.0558  0.2804  3.7479
 2589TIP3   OH229325   2.215   1.655   1.505 -0.8827 -0.5208  0.0572
 2589TIP3    H129326   2.287   1.717   1.517 -1.3407 -0.1751  1.1824
 2589TIP3    H229327   2.258   1.573   1.482 -0.2524  0.1357 -1.2172
 2590TIP3   OH229328   0.525   0.489   1.546  0.0409  0.1082 -0.3901
 2590TIP3    H129329   0.434   0.461   1.536  0.1088  0.0325 -0.8249
 2590TIP3    H229330   0.573   0.409   1.565  0.1697 -0.0207 -1.2041
 2591TIP3   OH229331   0.910   6.717   8.023 -0.3036 -0.2079 -0.3130
 2591TIP3    H129332   0.865   6.637   7.994  0.4614 -0.7331 -0.0812
 2591TIP3    H229333   0.982   6.685   8.078 -0.3386  0.6692  0.2617
 2592TIP3   OH229334   6.381   2.267   7.485  0.4770  0.4493 -0.3614
 2592TIP3    H129335   6.368   2.185   7.531  4.1716 -2.2617 -3.4807
 2592TIP3    H229336   6.307   2.272   7.423 -1.6118  1.4387  2.0422
 2593TIP3   OH229337   2.870   4.662   2.383  0.0828 -0.7369  0.1777
 2593TIP3    H129338   2.963   4.679   2.365 -0.3486 -0.8149 -2.4690
 2593TIP3    H229339   2.825   4.742   2.353 -1.0182 -2.2317 -2.4405
 2594TIP3   OH229340   1.195   1.111   0.961 -0.2295 -0.0737 -0.3097
 2594TIP3    H129341   1.265   1.166   0.995  0.0419 -0.7990  0.3373
 2594TIP3    H229342   1.221   1.022   0.985 -0.6012 -0.5028 -1.4138
 2595TIP3   OH229343   2.990   6.426   6.731 -0.4737  0.1024  0.0139
 2595TIP3    H129344   2.907   6.466   6.704 -0.6472 -0.8964 -0.9948
 2595TIP3    H229345   3.056   6.472   6.680 -0.6279 -0.5312 -0.7827
 2596TIP3   OH229346   2.612   3.422   7.364  0.0030  0.0951 -0.2030
 2596TIP3    H129347   2.561   3.464   7.295 -3.8317 -3.7303 -0.1268
 2596TIP3    H229348   2.573   3.452   7.446  0.7177  0.2685  0.0883
 2597TIP3   OH229349   6.735   1.922   5.485 -0.2032 -0.1182 -0.5772
 2597TIP3    H129350   6.682   1.888   5.557 -0.2545  2.3407  0.6490
 2597TIP3    H229351   6.806   1.970   5.528  1.4502 -0.9737 -2.1944
 2598TIP3   OH229352   2.580   5.789   7.034 -0.0840  0.4688 -0.6969
 2598TIP3    H129353   2.672   5.768   7.021 -0.8760 -2.5260 -2.5370
 2598TIP3    H229354   2.565   5.865   6.977  1.3747  1.5697  0.3157
 2599TIP3   OH229355   3.852   2.905   8.268  0.0642 -0.2147 -0.4328
 2599TIP3    H129356   3.848   2.914   8.363 -0.1343  1.9010 -0.5792
 2599TIP3    H229357   3.770   2.944   8.237  0.8461  0.6409 -1.5142
 2600TIP3   OH229358   4.380   2.210   0.248  0.0829 -0.3784  0.4543
 2600TIP3    H129359   4.406   2.293   0.289  0.0875 -0.6151  0.9435
 2600TIP3    H229360   4.458   2.155   0.255  0.5976  0.0690 -1.2499
 2601TIP3   OH229361   4.243   1.680   6.548  0.2818  0.7067 -0.6971
 2601TIP3    H129362   4.197   1.707   6.628  1.4253  1.0883 -0.1389
 2601TIP3    H229363   4.183   1.619   6.505  0.0170 -0.2464  0.9355
 2602TIP3   OH229364   3.407   6.784   7.119  0.5565 -0.5534  0.0105
 2602TIP3    H129365   3.315   6.771   7.140  0.9633 -2.1131  0.9865
 2602TIP3    H229366   3.418   6.879   7.116 -1.1334 -0.3450 -0.4523
 2603TIP3   OH229367   4.839   2.641   7.692 -0.1342 -0.1265  0.0173
 2603TIP3    H129368   4.896   2.629   7.768  1.7050 -2.3314 -1.5556
 2603TIP3    H229369   4.900   2.660   7.620 -1.9014  3.3725 -0.7628
 2604TIP3   OH229370   6.571   4.392   0.372  0.1640 -0.1617  0.7894
 2604TIP3    H129371   6.603   4.379   0.461  0.7584 -2.2630  0.3148
 2604TIP3    H229372   6.494   4.335   0.365  0.8141 -0.9297 -0.3801
 2605TIP3   OH229373   1.427   1.088   7.336  0.1429  0.1324  0.1757
 2605TIP3    H129374   1.346   1.057   7.377 -1.3729  2.2419 -1.0399
 2605TIP3    H229375   1.398   1.144   7.265  2.7098 -0.7999 -1.7511
 2606TIP3   OH229376   0.892   0.580   1.664  0.6479 -0.6879  0.2904
 2606TIP3    H129377   0.867   0.494   1.699 -0.6758 -0.5452 -0.2388
 2606TIP3    H229378   0.809   0.627   1.654  1.4834  1.4818  2.5957
 2607TIP3   OH229379   5.777   3.265   7.418  0.5740 -0.1585 -0.4113
 2607TIP3    H129380   5.802   3.334   7.480  0.2636 -0.0069 -0.4519
 2607TIP3    H229381   5.692   3.294   7.384  0.1360 -0.8866  0.0458
 2608TIP3   OH229382   2.525   6.020   6.917 -0.2347 -0.6986 -0.3722
 2608TIP3    H129383   2.571   6.089   6.871  0.7055 -0.8363  0.3189
 2608TIP3    H229384   2.499   6.060   7.001  1.4287 -1.4942  0.5769
 2609TIP3   OH229385   5.342   6.557   1.314 -0.0034  0.2313  0.0264
 2609TIP3    H129386   5.343   6.468   1.348 -1.7564  0.0022 -0.4534
 2609TIP3    H229387   5.434   6.575   1.290  0.3018 -1.5812 -0.2629
 2610TIP3   OH229388   1.095   3.304   6.797 -0.3413  0.0805  0.0513
 2610TIP3    H129389   1.183   3.333   6.819 -0.5002 -0.0627  0.9167
 2610TIP3    H229390   1.106   3.217   6.759 -0.1058  0.1062  0.0633
 2611TIP3   OH229391   0.518   3.632   7.338 -0.3788 -0.4271 -0.2381
 2611TIP3    H129392   0.504   3.639   7.244  0.1714 -0.2634 -0.3135
 2611TIP3    H229393   0.432   3.612   7.374 -0.8393  0.7492 -0.6497
 2612TIP3   OH229394   2.274   3.137   1.470  0.2862 -0.2100  0.3400
 2612TIP3    H129395   2.186   3.150   1.506  0.0037  0.1838 -0.4689
 2612TIP3    H229396   2.332   3.182   1.532 -0.5349  4.3617 -1.7654
 2613TIP3   OH229397   6.929   1.008   0.677  0.0181  0.0190 -0.2583
 2613TIP3    H129398   6.929   0.970   0.765 -0.0030  0.1579 -0.1973
 2613TIP3    H229399   6.849   1.061   0.675 -0.2270 -0.3566 -0.5242
 2614TIP3   OH229400   5.557   6.052   0.053 -0.3195 -0.3146 -0.0304
 2614TIP3    H129401   5.602   6.136   0.048 -2.7979  1.1252  0.0340
 2614TIP3    H229402   5.511   6.055   0.137  0.8102 -2.4913  0.7568
 2615TIP3   OH229403   3.166   2.290   1.449 -0.6017 -0.7416  0.7468
 2615TIP3    H129404   3.250   2.330   1.427 -1.1450 -0.6624 -1.4218
 2615TIP3    H229405   3.176   2.198   1.424 -1.4765 -0.5011 -0.6159
 2616TIP3   OH229406   2.095   3.996   8.323  0.1121 -0.1031  0.2335
 2616TIP3    H129407   2.129   4.084   8.335 -0.0143  0.0689 -0.6393
 2616TIP3    H229408   2.117   3.973   8.233 -0.2061 -0.8153  0.3260
 2617TIP3   OH229409   2.789   2.742   7.746 -0.0195  0.6845 -0.5487
 2617TIP3    H129410   2.868   2.750   7.800 -1.2938  0.8986  1.3867
 2617TIP3    H229411   2.794   2.654   7.710  2.2386  1.4715 -2.4409
 2618TIP3   OH229412   1.728   2.260   7.037  0.3267  0.7500 -0.3168
 2618TIP3    H129413   1.714   2.205   6.960  0.4351 -0.4111  0.4797
 2618TIP3    H229414   1.817   2.241   7.066 -0.5727 -0.8768  1.6424
 2619TIP3   OH229415   6.978   0.527   6.066  0.3067 -0.0467 -0.0010
 2619TIP3    H129416   6.901   0.521   6.122 -0.5141  1.5375 -0.9049
 2619TIP3    H229417   6.979   0.617   6.035  2.1492 -0.2169 -0.5593
 2620TIP3   OH229418   0.612   3.154   7.884  0.4787 -1.0098  0.1724
 2620TIP3    H129419   0.701   3.123   7.897  0.3368 -1.6104 -0.2310
 2620TIP3    H229420   0.575   3.160   7.973  1.6719  1.6598  0.5936
 2621TIP3   OH229421   4.941   0.835   1.166 -0.4742  0.0006 -0.2259
 2621TIP3    H129422   4.991   0.912   1.193 -1.9188  1.4062 -1.3529
 2621TIP3    H229423   4.973   0.815   1.077 -1.9203  0.9941 -1.0096
 2622TIP3   OH229424   3.588   1.988   7.965  0.1897  0.7608  0.2448
 2622TIP3    H129425   3.626   1.997   7.878 -1.6133  0.5124 -0.6074
 2622TIP3    H229426   3.657   1.947   8.017  1.3181  0.9812 -1.0372
 2623TIP3   OH229427   1.675   1.500   7.595  0.3409  0.3716  0.2078
 2623TIP3    H129428   1.597   1.480   7.647 -0.7651  1.6231 -0.8915
 2623TIP3    H229429   1.714   1.415   7.576 -1.3365 -0.3784 -0.0536
 2624TIP3   OH229430   5.359   5.953   2.025 -0.2939 -0.1533  0.4986
 2624TIP3    H129431   5.272   5.916   2.040 -0.5088  0.7074  1.5529
 2624TIP3    H229432   5.368   6.019   2.094 -0.1377  2.1092 -1.5740
 2625TIP3   OH229433   4.812   3.660   1.370 -0.0073  0.2045 -0.3416
 2625TIP3    H129434   4.905   3.656   1.390 -0.0380  0.0207 -0.2289
 2625TIP3    H229435   4.769   3.668   1.455 -0.0511  1.2199 -0.4466
 2626TIP3   OH229436   4.682   0.814   6.401  0.1019 -0.5759 -0.4875
 2626TIP3    H129437   4.602   0.784   6.358 -0.5963  1.3241 -0.6379
 2626TIP3    H229438   4.651   0.867   6.475  1.2605 -1.0727  0.3921
 2627TIP3   OH229439   2.345   3.181   1.069 -0.3592  0.4435  0.0247
 2627TIP3    H129440   2.266   3.133   1.092  0.1822 -0.2044  0.5786
 2627TIP3    H229441   2.409   3.114   1.044  0.9217  0.6653  2.3468
 2628TIP3   OH229442   4.880   4.737   0.612 -0.4446  0.1469 -0.5111
 2628TIP3    H129443   4.869   4.770   0.523  3.6045 -0.1340 -1.2849
 2628TIP3    H229444   4.850   4.809   0.667 -2.7421  0.4456 -2.0077
 2629TIP3   OH229445   1.285   5.675   8.259 -0.2990  0.3823 -0.5062
 2629TIP3    H129446   1.210   5.732   8.275 -0.0541  0.2521  1.4459
 2629TIP3    H229447   1.251   5.586   8.269 -0.4037  0.2151 -2.2088
 2630TIP3   OH229448   3.038   6.094   0.430 -0.3328 -0.2751  0.2128
 2630TIP3    H129449   3.130   6.084   0.454 -0.5713  0.0687  1.3185
 2630TIP3    H229450   2.993   6.024   0.477 -0.5771 -0.8536 -0.8320
 2631TIP3   OH229451   0.753   4.428   6.833 -0.2160 -0.4764  0.3986
 2631TIP3    H129452   0.671   4.475   6.820  0.1466  0.4276  1.2327
 2631TIP3    H229453   0.741   4.383   6.916  0.2457 -0.0711  0.6891
 2632TIP3   OH229454   5.613   5.453   7.399 -0.1052 -0.0514 -0.4973
 2632TIP3    H129455   5.709   5.455   7.401 -0.1166  0.2175  0.3842
 2632TIP3    H229456   5.589   5.510   7.327  0.4086 -0.4892 -1.0232
 2633TIP3   OH229457   2.341   2.610   0.358  0.5481 -0.2884 -0.3385
 2633TIP3    H129458   2.337   2.705   0.351 -2.6848 -0.2792 -0.0312
 2633TIP3    H229459   2.379   2.581   0.275  1.6028  1.2422 -0.4219
 2634TIP3   OH229460   5.232   6.515   0.966  0.4649 -0.0768  0.4516
 2634TIP3    H129461   5.228   6.463   1.046  0.9724  0.4814  0.8394
 2634TIP3    H229462   5.259   6.452   0.899  1.8541 -0.1639  1.0623
 2635TIP3   OH229463   4.525   3.058   1.555  0.2669 -0.0074 -0.3069
 2635TIP3    H129464   4.479   3.001   1.617  0.7170  0.2666  0.2979
 2635TIP3    H229465   4.462   3.128   1.536 -0.7935 -1.3971 -2.1265
 2636TIP3   OH229466   2.926   3.260   2.341 -0.3834  0.0754 -0.4532
 2636TIP3    H129467   2.950   3.347   2.371  2.3488 -0.4747 -0.8468
 2636TIP3    H229468   2.960   3.200   2.407  1.4926 -0.8683 -2.1712
 2637TIP3   OH229469   0.902   3.913   5.733 -0.1943 -0.1059 -0.1031
 2637TIP3    H129470   0.886   3.858   5.656 -1.6125 -2.1474  1.5196
 2637TIP3    H229471   0.818   3.954   5.752  0.2255  0.6472  0.1624
 2638TIP3   OH229472   3.660   6.141   0.586  0.2652  0.2994 -0.1102
 2638TIP3    H129473   3.699   6.055   0.569  0.5680  0.6676 -1.3998
 2638TIP3    H229474   3.724   6.186   0.640 -0.2661 -0.5637  1.2769
 2639TIP3   OH229475   6.662   5.633   1.969 -0.0186 -0.3913 -0.4616
 2639TIP3    H129476   6.606   5.626   1.891  0.2348 -1.6732 -0.5614
 2639TIP3    H229477   6.722   5.559   1.961  1.6546  0.9005 -0.3172
 2640TIP3   OH229478   4.460   5.720   8.342  0.0235  0.6008  0.2418
 2640TIP3    H129479   4.536   5.662   8.342 -0.3163  0.1458  0.2176
 2640TIP3    H229480   4.400   5.681   8.406 -1.4229 -0.7209 -1.7908
 2641TIP3   OH229481   2.819   0.230   1.134 -0.0646 -0.2940 -0.0978
 2641TIP3    H129482   2.795   0.166   1.068  1.3365 -1.0583  0.0923
 2641TIP3    H229483   2.790   0.191   1.217 -0.0564 -0.2432 -0.0710
 2642TIP3   OH229484   0.849   0.138   7.377  0.1956  0.1821  0.5067
 2642TIP3    H129485   0.843   0.176   7.290  0.9154 -0.3637  0.2066
 2642TIP3    H229486   0.855   0.213   7.436 -0.7112  0.5598  0.1303
 2643TIP3   OH229487   1.494   2.118   7.996 -0.4367 -0.2169 -0.0228
 2643TIP3    H129488   1.547   2.043   7.968 -1.3562 -0.2014 -1.9848
 2643TIP3    H229489   1.528   2.141   8.082  2.0705 -0.8196 -0.7780
 2644TIP3   OH229490   6.522   5.400   0.057 -0.3633 -0.4112 -0.3266
 2644TIP3    H129491   6.436   5.424   0.023  0.3005  0.6201 -1.3637
 2644TIP3    H229492   6.510   5.395   0.152 -0.8482  3.2547 -0.0460
 2645TIP3   OH229493   2.980   6.453   5.987 -0.2343 -0.2273 -0.1737
 2645TIP3    H129494   2.983   6.381   5.923 -0.7007 -0.8568  0.5000
 2645TIP3    H229495   2.888   6.479   5.989 -0.2538 -0.3379  0.3824
 2646TIP3   OH229496   0.515   0.581   1.856  0.0337  0.1925  0.3249
 2646TIP3    H129497   0.518   0.554   1.764  1.5936  0.3606  0.3088
 2646TIP3    H229498   0.449   0.523   1.895  0.4306 -0.9174 -0.5830
 2647TIP3   OH229499   4.118   1.055   8.322 -0.9992  0.3806 -0.0279
 2647TIP3    H129500   4.153   0.982   8.374 -1.7981  0.3931  0.5430
 2647TIP3    H229501   4.125   1.025   8.231 -2.8681 -1.1362  0.2729
 2648TIP3   OH229502   4.083   3.570   2.046  0.1076  0.7325  0.7749
 2648TIP3    H129503   4.096   3.595   2.138 -0.0666 -2.2851  1.7416
 2648TIP3    H229504   3.990   3.588   2.029  0.1750  1.4552  1.1131
 2649TIP3   OH229505   2.678   3.076   7.951 -0.4177  0.1502  0.4380
 2649TIP3    H129506   2.694   3.165   7.981 -1.8471  0.2615  0.9559
 2649TIP3    H229507   2.759   3.050   7.907  0.5543  1.1653  1.5575
 2650TIP3   OH229508   5.500   0.646   1.150  0.1692  0.2386 -0.4703
 2650TIP3    H129509   5.525   0.738   1.138 -0.9281  0.3113 -2.6571
 2650TIP3    H229510   5.417   0.637   1.104 -0.6575 -1.4826  1.1973
 2651TIP3   OH229511   4.260   5.492   0.625 -0.4420 -0.3506 -0.4435
 2651TIP3    H129512   4.213   5.570   0.595 -0.6483 -0.4434 -0.3636
 2651TIP3    H229513   4.261   5.435   0.548  0.7148  0.1929 -0.8554
 2652TIP3   OH229514   0.350   6.978   1.569 -0.0561  0.2563 -0.1420
 2652TIP3    H129515   0.369   7.056   1.517  1.6564  0.0626  0.1213
 2652TIP3    H229516   0.397   6.908   1.524  0.5361 -0.1206  1.0137
 2653TIP3   OH229517   0.864   2.480   7.563 -0.0722 -0.3406 -0.2856
 2653TIP3    H129518   0.862   2.458   7.470 -0.6178 -0.6977 -0.1873
 2653TIP3    H229519   0.915   2.410   7.603 -3.4076 -2.5996  0.3231
 2654TIP3   OH229520   0.702   3.510   1.542  0.1447 -0.4515 -0.3993
 2654TIP3    H129521   0.694   3.426   1.588 -2.1175  0.1780  0.4893
 2654TIP3    H229522   0.758   3.563   1.598 -0.1029 -0.6983  0.0881
 2655TIP3   OH229523   2.472   4.930   0.349  0.1543  0.5274 -0.0883
 2655TIP3    H129524   2.426   4.865   0.402 -2.3827  1.7113 -0.6608
 2655TIP3    H229525   2.452   4.905   0.258  1.0676  0.8130 -0.3740
 2656TIP3   OH229526   6.441   0.920   7.543 -0.4215  0.0070  0.1647
 2656TIP3    H129527   6.485   0.835   7.536 -1.1471 -0.4258  0.7640
 2656TIP3    H229528   6.443   0.956   7.455  0.4207 -0.3644  0.0241
 2657TIP3   OH229529   1.299   5.064   0.414 -0.4790  0.4293 -0.5883
 2657TIP3    H129530   1.323   4.976   0.386 -0.6761  0.2210 -0.1093
 2657TIP3    H229531   1.347   5.077   0.496 -2.0985 -0.0541  0.4795
 2658TIP3   OH229532   2.685   2.436   1.069 -0.6280  0.3887  0.0837
 2658TIP3    H129533   2.637   2.507   1.111 -1.0690 -0.1038  0.4287
 2658TIP3    H229534   2.656   2.437   0.978 -1.2854  0.1067  0.2846
 2659TIP3   OH229535   3.749   4.069   1.584  0.1606  0.4044 -0.2311
 2659TIP3    H129536   3.840   4.051   1.558 -0.1045 -1.1959 -0.1245
 2659TIP3    H229537   3.757   4.116   1.667  0.9135  1.6172 -0.9713
 2660TIP3   OH229538   4.780   1.010   8.281  0.0396 -0.3081 -0.3724
 2660TIP3    H129539   4.743   0.986   8.196  0.3323  1.2906 -0.9997
 2660TIP3    H229540   4.789   1.106   8.277  0.7486 -0.2704  1.1862
 2661TIP3   OH229541   3.818   1.962   6.958 -0.3813  0.0748 -0.7666
 2661TIP3    H129542   3.822   2.002   6.871  1.2633 -2.7744 -2.1724
 2661TIP3    H229543   3.757   1.889   6.947 -0.1506 -0.3314  0.4938
 2662TIP3   OH229544   3.202   2.741   1.762 -0.1734 -0.5361 -0.6581
 2662TIP3    H129545   3.149   2.674   1.806 -1.6287  1.0621  0.1798
 2662TIP3    H229546   3.230   2.799   1.833 -1.1788  1.1850 -1.5982
 2663TIP3   OH229547   1.438   1.893   8.278 -0.1571  0.1796 -0.1939
 2663TIP3    H129548   1.439   1.802   8.248  0.8596 -0.1455  0.7476
 2663TIP3    H229549   1.530   1.920   8.277 -0.3338  0.8687  0.4881
 2664TIP3   OH229550   0.304   4.081   1.575 -0.7968  0.5018  0.7984
 2664TIP3    H129551   0.217   4.040   1.573 -0.8864  0.6927  0.7952
 2664TIP3    H229552   0.317   4.105   1.667  0.5267 -2.2597  1.4494
 2665TIP3   OH229553   1.999   4.784   0.627  0.1883  0.2130  0.4211
 2665TIP3    H129554   2.079   4.829   0.600 -0.1520  0.4268 -0.2518
 2665TIP3    H229555   1.928   4.836   0.590 -0.2162 -1.1107 -0.7966
 2666TIP3   OH229556   1.032   5.286   1.356 -0.2369  0.4798  0.1107
 2666TIP3    H129557   0.938   5.287   1.372 -0.1371  1.2088  0.7009
 2666TIP3    H229558   1.071   5.301   1.441  0.3870  1.4430 -0.3352
 2667TIP3   OH229559   2.286   4.440   7.459  0.0937 -0.2853 -0.0287
 2667TIP3    H129560   2.215   4.495   7.490  0.2229  0.1984 -0.5812
 2667TIP3    H229561   2.302   4.469   7.369  0.1131 -1.2703 -0.3573
 2668TIP3   OH229562   2.052   6.905   0.447 -0.3386 -0.0565  0.1906
 2668TIP3    H129563   1.983   6.840   0.433 -0.6133  0.2974 -0.0996
 2668TIP3    H229564   2.082   6.928   0.358 -0.8453  0.8616  0.2479
 2669TIP3   OH229565   2.919   5.361   7.459 -0.1714 -0.2862  0.0045
 2669TIP3    H129566   2.985   5.315   7.510 -2.2092 -0.9989  2.1864
 2669TIP3    H229567   2.918   5.450   7.494  0.3350  0.0180 -0.7444
 2670TIP3   OH229568   4.037   1.065   1.604 -0.3069 -0.7119  0.1863
 2670TIP3    H129569   4.052   1.157   1.583  1.1942 -0.9657 -0.0048
 2670TIP3    H229570   3.952   1.063   1.647  0.0474  0.8923  1.0266
 2671TIP3   OH229571   2.230   5.719   0.995 -0.5723  0.2312 -0.2716
 2671TIP3    H129572   2.238   5.790   0.932 -3.1836  0.0160 -0.9751
 2671TIP3    H229573   2.230   5.639   0.942  1.3696 -0.2623  0.4226
 2672TIP3   OH229574   0.179   0.725   1.704  0.8527 -0.5314  0.3888
 2672TIP3    H129575   0.238   0.722   1.629  0.7264 -3.0272  0.3197
 2672TIP3    H229576   0.167   0.634   1.730  1.1121  0.2454  3.6685
 2673TIP3   OH229577   2.883   5.710   7.713  0.1687 -0.0120 -0.6199
 2673TIP3    H129578   2.889   5.775   7.783 -0.5978 -1.4214  0.8351
 2673TIP3    H229579   2.957   5.651   7.728  0.2663 -0.0624 -1.2830
 2674TIP3   OH229580   1.911   2.674   7.150  0.9765  0.0298 -0.3501
 2674TIP3    H129581   1.886   2.706   7.237  1.4546  0.6977 -0.4515
 2674TIP3    H229582   1.862   2.730   7.089  1.4542  0.2587 -0.5254
 2675TIP3   OH229583   5.297   4.290   1.231  0.1136 -0.4828  0.8560
 2675TIP3    H129584   5.384   4.296   1.191 -0.6073 -3.8233 -1.6542
 2675TIP3    H229585   5.244   4.355   1.183  0.5854 -0.3853  0.4599
 2676TIP3   OH229586   6.090   6.707   1.653  0.2094 -0.0863 -0.0033
 2676TIP3    H129587   6.091   6.623   1.608 -0.0974  0.4219 -0.9904
 2676TIP3    H229588   6.024   6.759   1.607 -1.0192  0.0659  1.7909
 2677TIP3   OH229589   4.717   3.754   1.618  0.1673  0.5004 -0.1038
 2677TIP3    H129590   4.780   3.785   1.683 -0.7052 -1.2720  1.7364
 2677TIP3    H229591   4.651   3.708   1.670 -0.8535 -0.5910 -2.2423
 2678TIP3   OH229592   5.221   6.296   0.377 -0.2111  0.2174 -0.5681
 2678TIP3    H129593   5.254   6.227   0.434 -0.6287  0.3409 -0.1687
 2678TIP3    H229594   5.190   6.364   0.437  0.2756  0.7963 -0.9537
 2679TIP3   OH229595   5.151   4.653   2.164  0.1707  0.8375 -0.1744
 2679TIP3    H129596   5.175   4.724   2.105 -0.4269  1.5257  0.3770
 2679TIP3    H229597   5.098   4.696   2.232 -0.1367 -0.1234  0.2122
 2680TIP3   OH229598   1.804   0.878   1.832 -0.5404  0.2407  0.1790
 2680TIP3    H129599   1.811   0.967   1.797 -0.6805  0.2947  0.2820
 2680TIP3    H229600   1.819   0.889   1.926 -2.1575  0.4084  0.4559
 2681TIP3   OH229601   1.895   4.284   0.022 -0.0165 -0.1864  0.1267
 2681TIP3    H129602   1.803   4.291  -0.004  0.0932 -1.0901 -0.5832
 2681TIP3    H229603   1.936   4.234  -0.049  1.1137  0.5623  0.2209
 2682TIP3   OH229604   4.304   6.821   1.178 -0.4576  0.4406  0.7673
 2682TIP3    H129605   4.363   6.892   1.151  1.2457 -0.5072  1.8615
 2682TIP3    H229606   4.286   6.839   1.270  0.5499 -0.8856  1.2534
 2683TIP3   OH229607   4.140   5.071   7.582 -0.1056 -0.5386  0.1216
 2683TIP3    H129608   4.099   5.148   7.621  1.8260  0.0961  1.0139
 2683TIP3    H229609   4.145   5.008   7.654  0.1605 -0.7234 -0.0552
 2684TIP3   OH229610   6.932   5.279   0.948  0.7242 -0.2979 -0.0598
 2684TIP3    H129611   6.836   5.281   0.951  0.7147 -0.4640 -0.2893
 2684TIP3    H229612   6.954   5.186   0.951  0.8788 -0.2620 -0.0838
 2685TIP3   OH229613   6.610   5.274   0.309 -0.2101  0.1063 -0.0930
 2685TIP3    H129614   6.590   5.227   0.390  1.8969 -1.6172 -0.4908
 2685TIP3    H229615   6.582   5.215   0.239 -0.8962  1.0630 -0.6551
 2686TIP3   OH229616   4.908   4.485   6.860  0.0140 -0.2596 -0.8747
 2686TIP3    H129617   4.880   4.498   6.950 -1.4856 -0.9548 -1.2099
 2686TIP3    H229618   4.912   4.574   6.823  2.6322  0.2395  0.3681
 2687TIP3   OH229619   4.847   3.091   1.095  0.4042  0.4271 -0.1932
 2687TIP3    H129620   4.926   3.085   1.041  0.1138 -1.5617 -0.4501
 2687TIP3    H229621   4.874   3.060   1.181 -0.2666 -1.1177 -0.5099
 2688TIP3   OH229622   4.714   2.019   7.444  0.1573 -0.4423  0.1293
 2688TIP3    H129623   4.779   1.967   7.397 -0.8344 -1.6099  0.0323
 2688TIP3    H229624   4.655   1.955   7.484 -1.6581  0.5911 -0.7780
 2689TIP3   OH229625   6.506   3.215   2.244  0.1761 -0.5528 -0.6436
 2689TIP3    H129626   6.413   3.193   2.252 -0.0582  0.8173  0.6295
 2689TIP3    H229627   6.507   3.305   2.213  1.1226 -1.2050 -2.6629
 2690TIP3   OH229628   6.018   3.874   0.637 -0.3745  0.4386  0.2385
 2690TIP3    H129629   6.090   3.888   0.698  0.2877  1.1881 -0.7012
 2690TIP3    H229630   5.951   3.829   0.689  0.7893 -0.3495  1.1053
 2691TIP3   OH229631   5.886   4.663   0.871 -0.4202 -0.0496 -0.1743
 2691TIP3    H129632   5.886   4.691   0.780 -1.2165 -0.7995 -0.4195
 2691TIP3    H229633   5.822   4.720   0.914 -1.2437 -0.7517 -0.4429
 2692TIP3   OH229634   0.675   0.118   1.843  0.1599  0.5702  0.8548
 2692TIP3    H129635   0.629   0.037   1.823 -1.7615  0.9041  3.3881
 2692TIP3    H229636   0.729   0.096   1.920  1.2279  1.1929  0.3045
 2693TIP3   OH229637   6.389   2.595   0.557  0.1121  0.1506 -0.0299
 2693TIP3    H129638   6.383   2.549   0.640  0.0283 -2.3267 -1.3293
 2693TIP3    H229639   6.471   2.564   0.518  0.0703  1.1340 -0.9623
 2694TIP3   OH229640   4.290   3.703   6.805  0.2113  0.0310  0.1973
 2694TIP3    H129641   4.310   3.743   6.720  0.1178 -2.1750 -0.9321
 2694TIP3    H229642   4.212   3.650   6.788  1.3372 -1.9952  1.1411
 2695TIP3   OH229643   2.990   4.557   1.480  0.1143  0.1984  0.0395
 2695TIP3    H129644   3.060   4.620   1.497  0.9785 -0.8645  0.5528
 2695TIP3    H229645   2.919   4.610   1.443  0.3216  1.6737  1.6024
 2696TIP3   OH229646   0.021   3.175   0.943  0.2460  0.3273  0.0301
 2696TIP3    H129647   0.098   3.127   0.973  0.2903 -0.4112 -1.2434
 2696TIP3    H229648  -0.008   3.130   0.864 -1.2594  0.8396  0.2470
 2697TIP3   OH229649   1.620   6.787   8.300  0.6019 -0.1164  0.3176
 2697TIP3    H129650   1.617   6.882   8.289 -2.8849 -0.2183 -0.5976
 2697TIP3    H229651   1.645   6.754   8.214  2.3649 -0.0820  0.7778
 2698TIP3   OH229652   2.189   0.825   6.317  0.2994  0.6270 -0.4587
 2698TIP3    H129653   2.157   0.811   6.228 -0.6944 -1.8706  0.1950
 2698TIP3    H229654   2.115   0.800   6.373  1.3691  0.7351  1.0671
 2699TIP3   OH229655   4.221   5.613   1.789  0.1439  0.1802  0.2122
 2699TIP3    H129656   4.234   5.698   1.831  1.0493  0.3781 -0.4178
 2699TIP3    H229657   4.272   5.552   1.842 -1.2339 -0.1469  1.1858
 2700TIP3   OH229658   2.696   6.852   7.435  0.3710  0.0368 -0.2611
 2700TIP3    H129659   2.713   6.758   7.427 -0.2475 -0.2769  1.6710
 2700TIP3    H229660   2.713   6.872   7.527 -3.4496  0.9196  0.4434
 2701TIP3   OH229661   4.688   3.153   7.166  0.5179 -0.1782  0.4492
 2701TIP3    H129662   4.669   3.139   7.073 -0.3328 -0.9353  0.7203
 2701TIP3    H229663   4.626   3.220   7.193  0.2535 -0.5046  0.6492
 2702TIP3   OH229664   5.618   2.799   8.141 -0.0885  0.0547  0.3700
 2702TIP3    H129665   5.617   2.892   8.164  1.7472 -0.0391  0.9721
 2702TIP3    H229666   5.540   2.788   8.085 -0.0240  2.0684 -0.2170
 2703TIP3   OH229667   2.553   6.513   2.446  0.0155 -0.5480 -0.1089
 2703TIP3    H129668   2.582   6.555   2.527 -2.4294 -2.2626  1.8246
 2703TIP3    H229669   2.494   6.576   2.405  0.2607 -0.1631  0.1293
 2704TIP3   OH229670   0.266   3.574   7.454 -0.2858  0.0105 -0.2757
 2704TIP3    H129671   0.207   3.631   7.405  1.3452 -0.0165 -2.3883
 2704TIP3    H229672   0.251   3.487   7.418  0.0582 -0.2354  0.1602
 2705TIP3   OH229673   5.162   0.584   0.430  0.1394 -0.0989  0.1700
 2705TIP3    H129674   5.239   0.618   0.385  0.5700 -1.1946  0.0495
 2705TIP3    H229675   5.187   0.496   0.459 -0.9855 -0.3939  0.3262
 2706TIP3   OH229676   0.322   4.879   6.618  0.0254  0.1754 -0.0416
 2706TIP3    H129677   0.413   4.890   6.591  1.0832  1.6490  3.4979
 2706TIP3    H229678   0.315   4.788   6.645  0.5042  0.0992 -0.1758
 2707TIP3   OH229679   0.406   0.687   0.443 -0.1178  0.4737  0.1095
 2707TIP3    H129680   0.311   0.701   0.442 -0.0474  1.3242  1.8345
 2707TIP3    H229681   0.440   0.749   0.379 -0.8049 -0.9989 -1.7835
 2708TIP3   OH229682   6.246   1.912   0.087  0.2928  0.1395  0.1413
 2708TIP3    H129683   6.227   1.912   0.181 -0.5023 -0.3488 -0.0135
 2708TIP3    H229684   6.197   1.987   0.053 -0.1405 -0.2155 -0.0216
 2709TIP3   OH229685   1.243   3.825   6.326  0.3160  0.4910 -0.0856
 2709TIP3    H129686   1.299   3.749   6.311 -0.9652 -0.4913 -0.0773
 2709TIP3    H229687   1.277   3.892   6.267  3.2188  0.9087  1.8730
 2710TIP3   OH229688   1.652   6.395   7.278 -0.0999 -0.4964 -0.6926
 2710TIP3    H129689   1.742   6.423   7.260 -0.3005  0.5689 -0.1217
 2710TIP3    H229690   1.606   6.476   7.304 -0.9024 -1.2289  0.2464
 2711TIP3   OH229691   3.185   5.804   2.168  0.4318  0.1982 -0.1762
 2711TIP3    H129692   3.251   5.736   2.176  0.9963  0.6011 -1.2760
 2711TIP3    H229693   3.160   5.824   2.259  2.1611  0.3679  0.2860
 2712TIP3   OH229694   3.510   0.023   0.226  0.7262 -0.2604 -0.2918
 2712TIP3    H129695   3.529  -0.064   0.262 -0.9678 -0.5335  0.0594
 2712TIP3    H229696   3.523   0.083   0.299 -2.7633 -0.8210  1.0013
 2713TIP3   OH229697   4.542   6.652   6.677  0.5201 -0.4178  0.4154
 2713TIP3    H129698   4.585   6.666   6.592 -1.8897 -1.0289 -0.9783
 2713TIP3    H229699   4.526   6.740   6.710  1.7424 -0.1742  0.4345
 2714TIP3   OH229700   4.926   6.493   7.225  0.4601 -0.3891  0.2382
 2714TIP3    H129701   5.004   6.548   7.230 -0.5587  1.1412  0.0267
 2714TIP3    H229702   4.883   6.504   7.310 -1.4160  1.8139 -0.8798
 2715TIP3   OH229703   4.615   5.076   6.999  0.3740 -0.1417 -0.7586
 2715TIP3    H129704   4.534   5.031   6.976  1.3922 -1.2495 -2.3802
 2715TIP3    H229705   4.590   5.168   7.008 -1.4394 -0.7360  0.9475
 2716TIP3   OH229706   3.497   2.229   8.091 -0.3783 -0.0751  0.3051
 2716TIP3    H129707   3.571   2.290   8.096 -0.7561  0.4828 -0.6105
 2716TIP3    H229708   3.528   2.157   8.037 -0.9568  0.8735 -1.3472
 2717TIP3   OH229709   2.795   5.592   6.902 -0.3239  0.2670 -0.6114
 2717TIP3    H129710   2.819   5.522   6.962  1.2773  1.4574  0.2110
 2717TIP3    H229711   2.711   5.564   6.865 -0.3527 -1.4575  0.6353
 2718TIP3   OH229712   3.248   0.323   0.921  0.2952  0.0230  0.4871
 2718TIP3    H129713   3.237   0.349   1.013  0.4333  1.0793  0.2168
 2718TIP3    H229714   3.221   0.231   0.919 -2.4354  0.7195  1.0637
 2719TIP3   OH229715   6.216   5.759   0.542  0.4202  0.0064  0.5584
 2719TIP3    H129716   6.221   5.851   0.517  0.6555 -0.0997  0.1997
 2719TIP3    H229717   6.182   5.760   0.632 -0.5648  0.3886  0.1894
 2720TIP3   OH229718   1.468   5.153   6.390 -0.0448  0.1221 -0.2042
 2720TIP3    H129719   1.376   5.143   6.365 -0.1900  0.2241  0.2825
 2720TIP3    H229720   1.510   5.073   6.358  0.0090  0.7574 -1.8003
 2721TIP3   OH229721   1.518   3.252   2.042  0.2799  0.2146 -0.1864
 2721TIP3    H129722   1.527   3.339   2.080  1.9790  0.4965 -1.1535
 2721TIP3    H229723   1.484   3.198   2.114  0.2124  1.4367  0.7347
 2722TIP3   OH229724   2.112   5.430   8.029 -0.1462 -0.6526  0.1628
 2722TIP3    H129725   2.193   5.479   8.044  0.7375 -2.2980  0.9317
 2722TIP3    H229726   2.052   5.460   8.098 -0.3644  0.8206 -0.6160
 2723TIP3   OH229727   4.503   5.237   8.037 -0.0177  0.4541  0.3045
 2723TIP3    H129728   4.451   5.202   8.109 -1.2944  0.0411 -0.7866
 2723TIP3    H229729   4.489   5.176   7.965  2.7325 -0.1879  0.1971
 2724TIP3   OH229730   4.758   2.117   0.829  0.1271  0.0732  0.0346
 2724TIP3    H129731   4.764   2.044   0.767 -0.3958 -0.1054  0.1966
 2724TIP3    H229732   4.665   2.126   0.847  0.3936 -1.6201  2.8581
 2725TIP3   OH229733   2.083   0.111   7.385 -0.1881 -0.8452  0.3988
 2725TIP3    H129734   2.120   0.100   7.473  0.9668  1.3676  0.2663
 2725TIP3    H229735   2.140   0.176   7.343 -0.8214 -1.6909 -1.9414
 2726TIP3   OH229736   5.496   3.697   7.276 -0.9427  0.0147  0.6196
 2726TIP3    H129737   5.411   3.653   7.267 -1.3396  0.7108  0.9296
 2726TIP3    H229738   5.474   3.788   7.297 -0.1506  0.5401 -0.7085
 2727TIP3   OH229739   3.340   5.382   8.010 -0.1401  0.2682  0.5849
 2727TIP3    H129740   3.284   5.448   8.051  0.9210  1.6248 -0.0428
 2727TIP3    H229741   3.428   5.404   8.041  0.4087  0.0570 -0.7696
 2728TIP3   OH229742   5.703   6.862   0.653  0.1877 -0.0441 -0.0250
 2728TIP3    H129743   5.758   6.939   0.640 -1.6090  1.5468  1.1401
 2728TIP3    H229744   5.731   6.801   0.585  0.7441  2.1683 -1.9380
 2729TIP3   OH229745   3.130   3.424   8.302 -0.2551 -0.2898  0.4930
 2729TIP3    H129746   3.114   3.348   8.246  3.1864  1.6934 -3.7996
 2729TIP3    H229747   3.085   3.496   8.258  1.3686  1.1220  1.0215
 2730TIP3   OH229748   0.008   0.352   5.867 -0.0283  0.1832 -0.1287
 2730TIP3    H129749   0.012   0.415   5.940  0.3872  0.2113 -0.1755
 2730TIP3    H229750  -0.059   0.289   5.895  2.0224 -1.3779  1.5440
 2731TIP3   OH229751   4.678   3.549   7.066 -0.5109 -0.8354 -0.0706
 2731TIP3    H129752   4.710   3.480   7.008 -0.1568 -0.2808 -0.5381
 2731TIP3    H229753   4.684   3.511   7.154 -0.3400 -1.4063 -0.3265
 2732TIP3   OH229754   0.862   6.767   1.629 -0.3977  0.1199 -0.1336
 2732TIP3    H129755   0.890   6.676   1.616 -1.0942 -0.1070 -0.1229
 2732TIP3    H229756   0.766   6.762   1.630 -0.4657  0.9696 -0.9731
 2733TIP3   OH229757   2.312   5.854   0.766 -0.6099 -0.1032  0.2711
 2733TIP3    H129758   2.404   5.881   0.768 -1.2503  2.3088  1.8958
 2733TIP3    H229759   2.315   5.760   0.752  2.1806 -0.2898  1.4899
 2734TIP3   OH229760   4.018   2.181   6.924  0.1787 -0.1682 -0.1618
 2734TIP3    H129761   3.990   2.216   7.008  0.6548  0.9475 -0.4416
 2734TIP3    H229762   3.937   2.155   6.879 -0.6086  3.5704 -1.2293
 2735TIP3   OH229763   4.247   4.834   0.555  0.7886 -0.0877 -0.3739
 2735TIP3    H129764   4.336   4.858   0.582  1.3659  0.2997 -2.4138
 2735TIP3    H229765   4.225   4.898   0.487 -1.5441  0.5304  0.8536
 2736TIP3   OH229766   1.574   0.861   7.613 -0.3002 -0.7079  0.5945
 2736TIP3    H129767   1.648   0.922   7.616  0.3542 -1.4485  0.0499
 2736TIP3    H229768   1.498   0.915   7.633  0.5194 -0.1724  2.4887
 2737TIP3   OH229769   6.155   1.691   0.406 -0.9404 -0.5216 -0.3252
 2737TIP3    H129770   6.162   1.786   0.413 -2.4880 -0.2713 -1.6604
 2737TIP3    H229771   6.133   1.675   0.314  0.1711 -2.2458 -0.3362
 2738TIP3   OH229772   6.561   5.105   1.131 -0.2470  0.4906 -0.1793
 2738TIP3    H129773   6.517   5.047   1.069 -1.9598  0.0197  1.3851
 2738TIP3    H229774   6.593   5.177   1.078  0.1551 -0.8694 -1.8812
 2739TIP3   OH229775   1.780   3.364   0.160  0.3625  0.2263  0.1307
 2739TIP3    H129776   1.749   3.318   0.238 -2.6863  0.7866 -0.6414
 2739TIP3    H229777   1.795   3.294   0.095 -2.8710  0.0671 -0.5847
 2740TIP3   OH229778   3.257   1.362   0.684  0.0687  0.2665  0.0843
 2740TIP3    H129779   3.317   1.308   0.633 -0.5398  0.8577 -1.2976
 2740TIP3    H229780   3.170   1.336   0.656 -0.2904  0.6454  0.7963
 2741TIP3   OH229781   5.634   4.626   7.119  0.1227  0.2503 -0.6555
 2741TIP3    H129782   5.662   4.599   7.032 -1.5701  0.9657 -1.4631
 2741TIP3    H229783   5.542   4.651   7.109 -0.2620 -0.0810  1.4373
 2742TIP3   OH229784   1.871   0.270   0.307  0.0511  0.2628 -0.4960
 2742TIP3    H129785   1.955   0.274   0.262  0.3046  1.2469  0.0438
 2742TIP3    H229786   1.894   0.262   0.399 -0.4645 -1.6229 -0.4882
 2743TIP3   OH229787   2.160   6.895   6.897  0.0923 -0.1302  0.2824
 2743TIP3    H129788   2.090   6.837   6.868 -0.6965  1.0083 -0.1456
 2743TIP3    H229789   2.148   6.902   6.992 -0.4353  0.1389  0.1961
 2744TIP3   OH229790   0.615   1.003   6.527  0.7663  0.3088  0.6421
 2744TIP3    H129791   0.676   1.023   6.456  0.0476  0.7440  0.1203
 2744TIP3    H229792   0.578   1.088   6.551 -0.7090 -0.0824 -0.0863
 2745TIP3   OH229793   4.545   3.784   0.365 -0.5690  0.6247  0.2600
 2745TIP3    H129794   4.522   3.745   0.280  0.1099  1.9338 -0.5685
 2745TIP3    H229795   4.535   3.713   0.428  1.0221 -1.0020 -1.2172
 2746TIP3   OH229796   1.868   4.061   1.215 -0.2235  0.8903 -0.1079
 2746TIP3    H129797   1.932   4.096   1.153 -0.3882  1.4645  0.0455
 2746TIP3    H229798   1.824   3.991   1.166  1.2077 -0.2358  0.1183
 2747TIP3   OH229799   6.189   3.233   0.047 -0.4097 -0.3180  1.1024
 2747TIP3    H129800   6.244   3.309   0.067  2.5489 -1.5851 -1.3003
 2747TIP3    H229801   6.122   3.267  -0.012 -0.6663  0.8193  2.0031
 2748TIP3   OH229802   3.339   3.083   1.304 -0.3414  0.0273  0.9110
 2748TIP3    H129803   3.388   3.137   1.243 -0.5073 -1.6024 -0.7376
 2748TIP3    H229804   3.252   3.123   1.307 -0.7357 -0.6150 -0.9899
 2749TIP3   OH229805   2.989   2.031   7.539 -0.5963 -0.3290 -0.4862
 2749TIP3    H129806   3.025   2.058   7.623 -0.8006 -0.2228 -0.4318
 2749TIP3    H229807   2.895   2.024   7.554 -0.7848  0.8425 -1.0041
 2750TIP3   OH229808   3.930   0.695   6.359 -0.6448 -0.1033  0.2914
 2750TIP3    H129809   3.940   0.774   6.307  0.8826  0.4582  1.3765
 2750TIP3    H229810   3.873   0.639   6.307 -1.4187  1.5300 -0.6845
 2751TIP3   OH229811   1.866   6.865   5.964  0.4410 -0.8364 -0.3318
 2751TIP3    H129812   1.793   6.893   6.020  0.6284 -1.4063  0.2043
 2751TIP3    H229813   1.898   6.947   5.925 -0.8361 -0.6332 -1.0256
 2752TIP3   OH229814   1.103   3.745   8.016 -0.4645 -0.2377  0.3816
 2752TIP3    H129815   1.169   3.743   8.086 -1.0228  1.4355  1.0089
 2752TIP3    H229816   1.061   3.830   8.026 -1.6605 -0.6359 -1.0008
 2753TIP3   OH229817   4.747   4.034   7.438 -0.3248  0.1685  0.0857
 2753TIP3    H129818   4.755   3.942   7.462  1.0214  0.6800  1.8242
 2753TIP3    H229819   4.682   4.070   7.498  1.1836  0.9071  1.3487
 2754TIP3   OH229820   2.251   5.455   7.719 -0.5523 -0.1334  0.8975
 2754TIP3    H129821   2.256   5.485   7.628 -0.6759  0.4546  1.0840
 2754TIP3    H229822   2.258   5.359   7.713 -2.2168 -0.2426  0.1290
 2755TIP3   OH229823   5.930   4.540   0.031  0.0559 -0.0646 -0.2886
 2755TIP3    H129824   5.854   4.489   0.057  0.5427 -1.1415 -0.9436
 2755TIP3    H229825   5.977   4.556   0.113 -1.9165  2.4537  0.4765
 2756TIP3   OH229826   1.648   1.610   7.950  0.1258  0.0190 -0.1849
 2756TIP3    H129827   1.586   1.586   7.880  0.8358  0.4286 -0.9728
 2756TIP3    H229828   1.733   1.579   7.918  0.4957  0.3965  0.4130
 2757TIP3   OH229829   5.908   4.771   0.589  0.0998  0.0379 -0.6049
 2757TIP3    H129830   5.923   4.854   0.542 -0.9453  0.6975  0.1769
 2757TIP3    H229831   5.838   4.728   0.539 -1.7358  1.2060  0.8234
 2758TIP3   OH229832   1.891   4.613   2.318 -0.0098 -0.4199  0.2586
 2758TIP3    H129833   1.876   4.555   2.243 -1.4732 -1.4195  1.2671
 2758TIP3    H229834   1.809   4.610   2.367  0.3569  1.4676  1.0769
 2759TIP3   OH229835   4.029   6.360   6.595  0.3039 -0.1446 -0.2681
 2759TIP3    H129836   3.933   6.356   6.588  0.2781  1.5361 -1.7337
 2759TIP3    H229837   4.061   6.300   6.528  0.2891 -1.0496  0.5287
 2760TIP3   OH229838   2.993   1.490   7.553  0.2569  0.2895  0.0640
 2760TIP3    H129839   3.064   1.427   7.540 -0.3189 -0.2015 -0.7797
 2760TIP3    H229840   3.027   1.551   7.619  1.2402 -0.2660  0.0900
 2761TIP3   OH229841   2.779   3.377   7.143 -0.0853  0.2317 -0.4740
 2761TIP3    H129842   2.726   3.376   7.223  0.0292  0.9713 -0.3813
 2761TIP3    H229843   2.740   3.446   7.089  0.5251  0.4978 -0.5819
 2762TIP3   OH229844   1.610   5.019   7.473  0.6858  0.0789  0.3549
 2762TIP3    H129845   1.572   4.985   7.392  1.7766 -1.1193  0.3153
 2762TIP3    H229846   1.678   5.080   7.444  1.1640 -0.4466  0.3398
 2763TIP3   OH229847   4.463   6.536   1.817  0.9883  0.3337 -0.3656
 2763TIP3    H129848   4.553   6.567   1.829  0.8696  0.5630 -0.0330
 2763TIP3    H229849   4.409   6.615   1.827  0.6769  0.0134  0.5892
 2764TIP3   OH229850   5.944   0.645   7.647 -0.3807 -0.3919  0.8214
 2764TIP3    H129851   5.873   0.598   7.690 -1.3546 -0.2267 -0.5482
 2764TIP3    H229852   5.992   0.686   7.718 -1.2873 -1.0148  1.8196
 2765TIP3   OH229853   4.745   1.936   7.741  0.5938  0.1761 -0.0979
 2765TIP3    H129854   4.656   1.972   7.747  0.3622  0.0801 -2.2585
 2765TIP3    H229855   4.800   2.012   7.721  0.6268 -0.1057 -1.1260
 2766TIP3   OH229856   6.710   5.905   6.746 -1.0963  0.5969  0.1837
 2766TIP3    H129857   6.725   5.816   6.779  2.0079  0.6177 -0.8024
 2766TIP3    H229858   6.623   5.929   6.779 -1.5201 -2.3159  1.5032
 2767TIP3   OH229859   6.455   6.347   1.254  0.0893 -0.2236  0.0553
 2767TIP3    H129860   6.428   6.336   1.345 -1.8382  0.0106 -0.4262
 2767TIP3    H229861   6.439   6.440   1.236  1.0872 -0.1207 -0.3385
 2768TIP3   OH229862   4.364   4.922   0.067 -0.4306 -1.2711 -0.3303
 2768TIP3    H129863   4.384   4.828   0.073 -0.8092 -1.3541 -0.3266
 2768TIP3    H229864   4.286   4.933   0.122  0.1904 -0.7747  0.4665
 2769TIP3   OH229865   3.378   6.201   0.582 -0.1131 -0.2531 -0.2515
 2769TIP3    H129866   3.340   6.119   0.551  1.2840 -0.9426 -0.2307
 2769TIP3    H229867   3.472   6.190   0.569  0.1477  1.1312  0.2827
 2770TIP3   OH229868   5.253   2.567   1.827 -0.1729  0.1875  0.5088
 2770TIP3    H129869   5.272   2.661   1.820  0.2541  0.0044 -1.4058
 2770TIP3    H229870   5.320   2.525   1.773 -0.7071 -1.1827  0.8653
 2771TIP3   OH229871   0.351   2.514   1.654 -0.4485 -0.0711 -0.2863
 2771TIP3    H129872   0.435   2.476   1.681  0.1950  0.9428 -0.7989
 2771TIP3    H229873   0.351   2.602   1.691  0.2230  1.1766 -2.9524
 2772TIP3   OH229874   4.667   0.919   7.096  0.1656 -0.1859 -0.3012
 2772TIP3    H129875   4.692   0.882   7.011 -0.8788  1.3591 -1.3450
 2772TIP3    H229876   4.684   1.013   7.087  0.0333  0.0029  1.2081
 2773TIP3   OH229877   1.494   0.971   0.983 -0.5161  0.2337 -0.2637
 2773TIP3    H129878   1.558   1.042   0.987  0.5509 -0.6115 -1.5256
 2773TIP3    H229879   1.482   0.944   1.074  1.4220 -0.0159 -0.0517
 2774TIP3   OH229880   1.077   4.162   1.743 -0.4515  0.1281  0.3534
 2774TIP3    H129881   0.991   4.179   1.706 -0.4923  0.7174  0.7091
 2774TIP3    H229882   1.060   4.125   1.830 -0.3602  1.7201  1.0798
 2775TIP3   OH229883   3.136   6.958   6.940  0.8286 -0.0677 -0.0476
 2775TIP3    H129884   3.062   6.898   6.950 -1.1577  2.1697 -0.5394
 2775TIP3    H229885   3.212   6.900   6.928 -0.8865 -2.4564 -0.1274
 2776TIP3   OH229886   5.780   1.143   0.039 -0.2032 -0.1498  0.2922
 2776TIP3    H129887   5.740   1.125  -0.046  0.4225  1.5721 -0.4001
 2776TIP3    H229888   5.745   1.075   0.097  0.5526 -2.3278 -1.6759
 2777TIP3   OH229889   1.487   5.149   0.638 -0.1518  0.4935 -1.0934
 2777TIP3    H129890   1.427   5.177   0.706 -0.4859  0.4760 -1.3760
 2777TIP3    H229891   1.574   5.166   0.674 -0.2505 -1.4589  0.1920
 2778TIP3   OH229892   4.627   2.580   6.898 -0.1506  0.0533  0.5465
 2778TIP3    H129893   4.600   2.672   6.895  0.3625  0.2034  0.4083
 2778TIP3    H229894   4.658   2.567   6.988  0.1560  0.1255  0.4510
 2779TIP3   OH229895   6.390   1.374   1.008 -0.4960 -0.0221  0.4348
 2779TIP3    H129896   6.376   1.411   1.096 -1.2397  1.9102 -0.4447
 2779TIP3    H229897   6.380   1.449   0.949 -1.4434 -1.5321 -1.4102
 2780TIP3   OH229898   4.781   6.065   1.073  0.2278  0.2043  0.3320
 2780TIP3    H129899   4.833   5.992   1.107 -0.3263  0.4957  1.8944
 2780TIP3    H229900   4.838   6.142   1.084 -0.6906  0.6319  2.6772
 2781TIP3   OH229901   0.259   1.269   7.792 -0.3239 -0.6230 -0.3472
 2781TIP3    H129902   0.277   1.353   7.749 -2.2328  0.3712  0.6835
 2781TIP3    H229903   0.345   1.240   7.823  0.4467  0.7013 -1.1335
 2782TIP3   OH229904   4.045   3.163   7.247  0.1895 -0.0467  0.3366
 2782TIP3    H129905   3.974   3.225   7.235 -0.1616 -0.2588  1.2739
 2782TIP3    H229906   4.044   3.142   7.340  0.1169 -1.6678  0.0098
 2783TIP3   OH229907   6.152   5.605   6.377  0.6502  0.9960  0.5701
 2783TIP3    H129908   6.240   5.586   6.345 -0.4965 -2.5091 -0.9191
 2783TIP3    H229909   6.095   5.598   6.301 -1.3351 -0.5811  2.0587
 2784TIP3   OH229910   3.952   1.665   8.042 -0.4005 -0.2310 -0.7121
 2784TIP3    H129911   3.952   1.706   7.955  0.3299 -1.4089 -1.2951
 2784TIP3    H229912   4.015   1.593   8.034  0.2664  0.1190  1.0339
 2785TIP3   OH229913   6.970   6.502   1.607  0.4315 -0.1783  0.3104
 2785TIP3    H129914   6.879   6.526   1.626  1.2370  2.8563  0.7935
 2785TIP3    H229915   7.002   6.465   1.689  0.0330  0.1487  0.6239
 2786TIP3   OH229916   0.597   6.113   6.478 -0.2159  0.0421 -0.6146
 2786TIP3    H129917   0.504   6.100   6.464 -0.5717  1.9649 -0.3304
 2786TIP3    H229918   0.613   6.204   6.452  1.9598 -0.7647 -2.4235
 2787TIP3   OH229919   5.721   0.511   0.402 -0.2393  0.0240  0.4634
 2787TIP3    H129920   5.674   0.490   0.321  3.2129 -4.5585 -0.7950
 2787TIP3    H229921   5.809   0.533   0.373  0.6250  0.0691  2.9243
 2788TIP3   OH229922   4.354   5.166   0.724  0.2471  0.2295 -0.0380
 2788TIP3    H129923   4.430   5.225   0.719 -0.7936  1.5725 -0.4900
 2788TIP3    H229924   4.350   5.140   0.816 -1.6394  4.1781  1.2012
 2789TIP3   OH229925   4.642   2.625   0.675  0.2186  0.6180  0.5204
 2789TIP3    H129926   4.546   2.616   0.674  0.1576  0.8760 -1.9575
 2789TIP3    H229927   4.674   2.535   0.668  0.1036  0.6316 -0.2733
 2790TIP3   OH229928   0.449   6.632   7.748 -0.7767 -0.0442 -0.2966
 2790TIP3    H129929   0.380   6.573   7.718 -0.0948 -0.3331 -1.3553
 2790TIP3    H229930   0.527   6.576   7.753 -0.7170  0.1582  1.3821
 2791TIP3   OH229931   2.705   0.370   6.369 -0.6144 -0.3852  0.1948
 2791TIP3    H129932   2.684   0.321   6.289  1.1105 -1.4660  0.3440
 2791TIP3    H229933   2.682   0.309   6.439 -2.3035  0.6320  0.5787
 2792TIP3   OH229934   4.697   0.158   1.585 -0.3366  0.5230  0.6746
 2792TIP3    H129935   4.676   0.207   1.505  0.4120  1.9574  1.3267
 2792TIP3    H229936   4.623   0.176   1.643 -0.1540  0.7304  0.8443
 2793TIP3   OH229937   3.830   4.774   7.661 -0.1258 -0.4233 -0.0376
 2793TIP3    H129938   3.864   4.757   7.749  0.1940 -1.5297 -0.3582
 2793TIP3    H229939   3.815   4.687   7.624 -1.8139  0.0222 -0.4935
 2794TIP3   OH229940   2.498   6.151   8.090 -0.4592  0.2086 -0.0104
 2794TIP3    H129941   2.419   6.108   8.058 -0.4000  0.1977 -0.1436
 2794TIP3    H229942   2.565   6.082   8.088 -0.6137  0.0303  0.7722
 2795TIP3   OH229943   5.277   6.854   8.145 -0.7102  0.0721  0.3343
 2795TIP3    H129944   5.226   6.818   8.072 -1.2879 -1.0967  1.2872
 2795TIP3    H229945   5.211   6.888   8.205 -0.2132  1.7714 -0.0261
 2796TIP3   OH229946   1.777   5.458   0.754  0.7883  0.1458  0.1439
 2796TIP3    H129947   1.810   5.446   0.665  1.2804  0.9296  0.2087
 2796TIP3    H229948   1.703   5.518   0.744 -0.6599 -1.5979 -0.0001
 2797TIP3   OH229949   5.803   4.889   6.692 -0.1892 -0.6767 -0.1741
 2797TIP3    H129950   5.743   4.876   6.765 -0.9311  1.2363 -0.3818
 2797TIP3    H229951   5.764   4.839   6.620 -0.8210 -0.5384  0.0639
 2798TIP3   OH229952   2.818   0.004   0.959 -0.1578 -0.0964 -0.2405
 2798TIP3    H129953   2.731  -0.029   0.979 -0.0644 -0.4616 -0.4266
 2798TIP3    H229954   2.827  -0.008   0.864 -0.2124  0.6862 -0.3531
 2799TIP3   OH229955   2.270   6.610   5.931 -0.0628  0.2008  0.3682
 2799TIP3    H129956   2.352   6.560   5.930 -0.1370  0.0822  0.0504
 2799TIP3    H229957   2.231   6.593   5.845 -0.9442 -0.6154  0.9150
 2800TIP3   OH229958   1.222   3.128   1.593 -0.2152 -0.0525 -0.1231
 2800TIP3    H129959   1.278   3.125   1.671  0.6779 -0.6439 -0.7798
 2800TIP3    H229960   1.197   3.221   1.586 -0.8427 -0.0822  1.2139
 2801TIP3   OH229961   2.406   0.338   6.938 -0.1456 -0.1029 -0.0712
 2801TIP3    H129962   2.359   0.421   6.943  0.5254  0.2328  0.9846
 2801TIP3    H229963   2.337   0.272   6.935 -0.6886  0.4841 -1.1990
 2802TIP3   OH229964   2.478   3.549   7.579  0.7864 -0.1387 -0.5396
 2802TIP3    H129965   2.473   3.609   7.653  1.3690 -0.8842  0.1100
 2802TIP3    H229966   2.387   3.522   7.563  0.7387 -0.5577  0.3899
 2803TIP3   OH229967   6.889   5.957   1.093 -0.4271 -0.3084  0.1713
 2803TIP3    H129968   6.946   5.880   1.084 -1.4799 -1.2993  1.5335
 2803TIP3    H229969   6.826   5.948   1.022 -0.1264 -0.3163 -0.0990
 2804TIP3   OH229970   4.303   1.671   1.293  0.2609  0.0526 -0.0056
 2804TIP3    H129971   4.323   1.591   1.340  0.1141 -0.3937 -0.6871
 2804TIP3    H229972   4.377   1.684   1.234 -1.1281 -1.3970 -2.2564
 2805TIP3   OH229973   5.492   3.704   0.551 -0.0150  0.4245 -0.6477
 2805TIP3    H129974   5.564   3.648   0.522 -0.2039 -0.1593 -0.0155
 2805TIP3    H229975   5.492   3.695   0.647 -1.0450  0.2720 -0.6507
 2806TIP3   OH229976   6.473   6.747   7.203  0.4231 -0.3439 -0.4704
 2806TIP3    H129977   6.389   6.793   7.208 -1.0492 -2.8825  0.4175
 2806TIP3    H229978   6.527   6.787   7.271 -1.4314 -0.9739  1.5119
 2807TIP3   OH229979   0.863   1.425   8.171  0.4845  0.8880  0.2672
 2807TIP3    H129980   0.947   1.444   8.129 -0.7532  1.7712 -2.0296
 2807TIP3    H229981   0.808   1.394   8.100 -0.8317 -0.7994  1.9390
 2808TIP3   OH229982   5.828   3.994   0.990  0.2183  0.4041 -0.5387
 2808TIP3    H129983   5.865   3.909   0.966 -0.7326 -0.0344 -0.5177
 2808TIP3    H229984   5.817   3.989   1.085  2.2651  1.4396 -0.1907
 2809TIP3   OH229985   5.212   2.701   1.083 -0.7310 -0.3386 -0.1511
 2809TIP3    H129986   5.232   2.748   1.001 -1.3906  0.2954  0.0427
 2809TIP3    H229987   5.140   2.643   1.060  0.5523 -1.8325 -0.5743
 2810TIP3   OH229988   1.181   3.082   7.772 -0.3219 -0.4810 -0.1276
 2810TIP3    H129989   1.154   3.004   7.820 -0.9208 -0.2239 -0.0316
 2810TIP3    H229990   1.180   3.056   7.680  1.5451 -1.1920  0.0092
 2811TIP3   OH229991   0.063   5.367   2.397  0.9067 -0.0060 -0.0927
 2811TIP3    H129992   0.098   5.285   2.362 -0.3919 -0.0195 -1.4996
 2811TIP3    H229993   0.074   5.430   2.326  0.2518  0.5647  0.3017
 2812TIP3   OH229994   2.881   5.812   6.062  0.7361 -0.8272 -0.1789
 2812TIP3    H129995   2.879   5.853   6.149 -0.4092 -1.5969  0.1907
 2812TIP3    H229996   2.889   5.718   6.081  0.5061 -0.9984 -0.9046
 2813TIP3   OH229997   6.351   4.473   8.087 -0.1719  0.0685 -0.0518
 2813TIP3    H129998   6.392   4.534   8.149  2.0661 -2.6003  1.3282
 2813TIP3    H229999   6.361   4.515   8.002 -0.6209  2.5184  1.0067
 2814TIP3   OH230000   0.180   3.520   6.552  0.3276 -0.8865 -0.3695
 2814TIP3    H130001   0.248   3.587   6.562 -1.4716  0.8784  0.9577
 2814TIP3    H230002   0.130   3.549   6.475  0.4537 -1.5926 -0.7202
 2815TIP3   OH230003   2.943   4.928   7.172 -0.0596 -0.9081  0.0931
 2815TIP3    H130004   2.868   4.889   7.127 -0.7093 -0.6018  0.8845
 2815TIP3    H230005   2.916   5.017   7.191  1.0084 -0.3793 -0.7419
 2816TIP3   OH230006   0.836   1.660   0.030 -0.0745  0.4754 -0.8751
 2816TIP3    H130007   0.931   1.660   0.036 -0.0907  2.5545  0.5613
 2816TIP3    H230008   0.815   1.583  -0.023  2.4125  0.2958 -1.7367
 2817TIP3   OH230009   3.011   2.163   2.172 -0.0701 -0.1043  0.6186
 2817TIP3    H130010   2.997   2.256   2.159  1.7761  0.3095  1.3143
 2817TIP3    H230011   2.965   2.121   2.099  0.5028  1.4497 -0.6856
 2818TIP3   OH230012   5.251   1.354   7.195 -0.3803 -0.8224 -0.0211
 2818TIP3    H130013   5.266   1.274   7.145  1.4011 -1.0797  0.8570
 2818TIP3    H230014   5.288   1.424   7.142  0.1911 -0.8995  0.2746
 2819TIP3   OH230015   5.211   5.754   1.081  0.1783  0.2559  0.5317
 2819TIP3    H130016   5.186   5.800   1.001  0.3369  1.9847  1.4386
 2819TIP3    H230017   5.129   5.739   1.128  0.2481  0.8051  0.8398
 2820TIP3   OH230018   1.561   5.284   6.104 -0.0254  0.2887 -0.1945
 2820TIP3    H130019   1.501   5.321   6.040  1.6306  0.2107 -1.8712
 2820TIP3    H230020   1.585   5.198   6.070  0.3306 -0.0733  0.9006
 2821TIP3   OH230021   4.124   5.575   1.223  0.3752 -0.3628  0.5287
 2821TIP3    H130022   4.043   5.625   1.211  0.7870  0.0994 -0.4396
 2821TIP3    H230023   4.095   5.489   1.253 -0.4701 -0.1946  0.2244
 2822TIP3   OH230024   0.789   6.164   7.561  0.3989 -0.7768 -0.5143
 2822TIP3    H130025   0.844   6.132   7.632  0.3210 -1.0040 -0.5565
 2822TIP3    H230026   0.757   6.085   7.517  0.8463 -0.6379 -1.1114
 2823TIP3   OH230027   6.641   5.291   0.947 -0.5266 -0.1106 -0.2804
 2823TIP3    H130028   6.652   5.383   0.924  0.0488 -0.3519 -1.0410
 2823TIP3    H230029   6.571   5.260   0.889 -2.2686  0.3525  1.4881
 2824TIP3   OH230030   5.094   1.820   1.174  0.0265  0.4161 -0.2189
 2824TIP3    H130031   5.141   1.740   1.200 -0.2700  0.2120 -0.3052
 2824TIP3    H230032   5.044   1.845   1.251  0.0432  0.4623 -0.2230
 2825TIP3   OH230033   5.074   6.703   7.814 -0.4870 -0.1815  0.6918
 2825TIP3    H130034   5.015   6.726   7.742 -1.3376 -1.0083  1.1066
 2825TIP3    H230035   5.016   6.686   7.888  0.4034  4.0606  2.6996
 2826TIP3   OH230036   0.938   6.109   1.180  0.6770  0.2794 -0.1687
 2826TIP3    H130037   0.855   6.063   1.190 -0.2850  1.3309 -2.5666
 2826TIP3    H230038   0.915   6.202   1.190  1.6704  0.5541 -0.3614
 2827TIP3   OH230039   0.329   6.273   1.046  0.5987  0.4653  0.0158
 2827TIP3    H130040   0.240   6.240   1.053  1.3888 -1.4913  1.7418
 2827TIP3    H230041   0.327   6.332   0.970 -2.1525  0.5840  0.0854
 2828TIP3   OH230042   2.911   6.817   8.127  0.0985  0.1029  0.1869
 2828TIP3    H130043   2.870   6.886   8.076 -0.4194 -0.5696 -0.3266
 2828TIP3    H230044   2.874   6.827   8.215 -1.9869 -1.0995 -0.4886
 2829TIP3   OH230045   0.934   5.616   8.126 -0.5387 -0.4582  0.0911
 2829TIP3    H130046   1.003   5.681   8.137 -1.1214  0.0189  1.0727
 2829TIP3    H230047   0.861   5.648   8.180  0.0298 -3.1604  2.7994
 2830TIP3   OH230048   6.439   2.859   1.013 -0.6167 -0.4549 -0.1241
 2830TIP3    H130049   6.486   2.913   0.949  1.7984 -2.9791 -0.6397
 2830TIP3    H230050   6.452   2.904   1.096 -1.4200  1.3902 -0.9302
 2831TIP3   OH230051   5.254   3.603   7.332 -0.3752  0.1886  0.3468
 2831TIP3    H130052   5.264   3.654   7.413  3.2824 -0.6445  0.6047
 2831TIP3    H230053   5.224   3.517   7.361  0.6634 -0.0238  0.8613
 2832TIP3   OH230054   1.642   6.422   2.138 -0.1401 -0.7992  0.6828
 2832TIP3    H130055   1.560   6.470   2.147  0.3517  0.5176 -1.1235
 2832TIP3    H230056   1.706   6.475   2.185 -0.2822 -1.8141  2.0739
 2833TIP3   OH230057   0.405   4.514   0.255  0.4975 -0.6797 -0.3535
 2833TIP3    H130058   0.326   4.471   0.222  0.0863  0.0147 -0.2723
 2833TIP3    H230059   0.378   4.602   0.279  0.7089 -1.2031  2.1006
 2834TIP3   OH230060   2.358   4.584   8.003 -0.3970  0.1667  0.1871
 2834TIP3    H130061   2.373   4.646   8.074  0.9836 -3.6935  3.6448
 2834TIP3    H230062   2.435   4.594   7.947  2.1594 -1.2317  3.1504
 2835TIP3   OH230063   2.935   0.008   6.491  0.2337  0.4858  0.4152
 2835TIP3    H130064   2.905  -0.016   6.578 -1.4353 -0.4204 -0.3463
 2835TIP3    H230065   3.027  -0.018   6.488 -0.1859 -1.2130  1.2974
 2836TIP3   OH230066   4.221   5.208   6.771  0.1168  0.2426 -0.5380
 2836TIP3    H130067   4.132   5.209   6.736 -0.0948  0.3394 -0.0111
 2836TIP3    H230068   4.262   5.131   6.731 -0.7328 -0.7923  0.5146
 2837TIP3   OH230069   3.935   3.552   7.199 -0.5175 -0.6970  0.4513
 2837TIP3    H130070   3.938   3.548   7.294  0.7254 -1.2816  0.4074
 2837TIP3    H230071   3.876   3.481   7.174 -2.3170  0.6157  0.8283
 2838TIP3   OH230072   2.471   0.505   0.021  0.2414 -0.4152 -0.5726
 2838TIP3    H130073   2.393   0.451   0.009  0.2121 -0.8240  1.2682
 2838TIP3    H230074   2.512   0.470   0.100  1.8108  0.3792 -1.0094
 2839TIP3   OH230075   2.742   5.991   0.490 -0.5942  0.0857  0.6572
 2839TIP3    H130076   2.673   5.925   0.487  0.2237 -0.7719 -0.1237
 2839TIP3    H230077   2.793   5.969   0.568  0.9639 -1.6051 -0.7596
 2840TIP3   OH230078   5.921   5.121   0.095 -0.1979  0.5709  0.2891
 2840TIP3    H130079   5.899   5.059   0.025  1.9019 -0.2582  0.2988
 2840TIP3    H230080   5.927   5.206   0.050  1.1809  0.0434 -0.6036
 2841TIP3   OH230081   3.815   4.731   7.295  0.1919  0.0028  0.1832
 2841TIP3    H130082   3.862   4.794   7.350  0.9130  0.0194 -0.4445
 2841TIP3    H230083   3.842   4.645   7.328 -1.1492 -0.0122  1.3475
 2842TIP3   OH230084   3.100   3.878   7.793  0.2178 -0.3659  0.4633
 2842TIP3    H130085   3.093   3.972   7.782 -0.7963 -0.6199 -1.5566
 2842TIP3    H230086   3.191   3.863   7.820  0.1291  1.2219  1.7443
 2843TIP3   OH230087   1.402   3.425   0.783  0.1848  0.1632  0.1448
 2843TIP3    H130088   1.408   3.415   0.688  0.8464 -0.3009  0.2259
 2843TIP3    H230089   1.492   3.441   0.811  0.2138 -1.0504  0.8297
 2844TIP3   OH230090   5.819   4.098   7.843  0.0832  0.4647 -0.6416
 2844TIP3    H130091   5.847   4.127   7.929  2.7299  0.3611 -1.3766
 2844TIP3    H230092   5.756   4.164   7.814 -2.8315 -0.8097  2.2918
 2845TIP3   OH230093   6.476   1.963   1.329 -0.3394  0.1693  0.6765
 2845TIP3    H130094   6.433   1.996   1.407  0.0314 -0.4120  1.1329
 2845TIP3    H230095   6.479   1.868   1.341 -0.4678  0.0553 -0.1375
 2846TIP3   OH230096   0.642   1.448   2.125 -0.1627 -0.3750  0.5352
 2846TIP3    H130097   0.705   1.519   2.132  0.8944 -1.3085  0.7200
 2846TIP3    H230098   0.667   1.386   2.194  0.0373 -1.7686 -0.7379
 2847TIP3   OH230099   4.574   0.679   7.172 -0.4006  0.1114 -0.4879
 2847TIP3    H130100   4.593   0.648   7.261  2.5343 -2.0219 -1.7062
 2847TIP3    H230101   4.628   0.758   7.162 -1.2194  0.7213 -0.2184
 2848TIP3   OH230102   2.982   4.650   7.565 -0.5258 -0.2014  0.8437
 2848TIP3    H130103   3.075   4.648   7.588 -0.3218  0.2044  0.0797
 2848TIP3    H230104   2.937   4.657   7.649  0.1091 -0.8946  1.2595
 2849TIP3   OH230105   3.307   5.676   7.338  0.0870  0.4247  0.0485
 2849TIP3    H130106   3.351   5.718   7.263  0.0378  0.3872 -0.0020
 2849TIP3    H230107   3.214   5.697   7.325 -0.1347 -0.9645 -0.8043
 2850TIP3   OH230108   2.719   0.100   0.221 -0.3801  0.1124 -0.6116
 2850TIP3    H130109   2.699   0.007   0.223 -1.8649  0.4043  0.4264
 2850TIP3    H230110   2.814   0.105   0.231 -0.4061 -1.2709  0.6498
 2851TIP3   OH230111   2.917   5.556   6.096 -0.1625  0.1854 -0.5406
 2851TIP3    H130112   2.972   5.530   6.170 -0.6337  1.2807  0.2370
 2851TIP3    H230113   2.841   5.497   6.100  0.2743 -0.3937 -0.7500
 2852TIP3   OH230114   4.018   1.628   6.930 -0.0388  0.0633 -0.1024
 2852TIP3    H130115   4.017   1.556   6.867 -1.7089  0.0603 -0.1035
 2852TIP3    H230116   3.935   1.620   6.977  0.2107  1.3863  0.5996
 2853TIP3   OH230117   3.885   2.411   0.959 -0.0839  0.2026  0.0828
 2853TIP3    H130118   3.962   2.430   1.013 -1.1865  0.2393  1.7184
 2853TIP3    H230119   3.833   2.492   0.962 -0.4874 -0.0282 -0.4735
 2854TIP3   OH230120   0.315   1.181   0.246  0.1368  0.0960  0.6790
 2854TIP3    H130121   0.393   1.129   0.226  1.5184  0.8046  3.6397
 2854TIP3    H230122   0.330   1.264   0.201  0.2028 -0.3998 -0.2288
 2855TIP3   OH230123   2.840   3.811   7.851  0.5892  0.2617 -0.5881
 2855TIP3    H130124   2.932   3.825   7.870  0.5483  0.2534 -0.3769
 2855TIP3    H230125   2.818   3.877   7.786  0.1254  1.9712  1.1874
 2856TIP3   OH230126   4.010   2.902   1.048  0.4773  0.9479  0.2126
 2856TIP3    H130127   3.926   2.884   1.005 -0.3204 -0.4604  2.1991
 2856TIP3    H230128   4.074   2.852   0.997 -0.1952  0.5303 -0.2409
 2857TIP3   OH230129   1.257   3.462   1.918 -0.0207 -0.1814  0.6651
 2857TIP3    H130130   1.195   3.390   1.931  0.6585 -1.1480 -1.1095
 2857TIP3    H230131   1.207   3.531   1.875 -0.1016 -0.5754  0.1261
 2858TIP3   OH230132   2.899   3.226   1.104  0.0590 -0.0106  0.0061
 2858TIP3    H130133   2.863   3.309   1.136 -1.3527 -0.5056 -0.2285
 2858TIP3    H230134   2.860   3.160   1.160 -0.2941 -0.6654 -0.9861
 2859TIP3   OH230135   0.571   2.092   1.261  0.0304 -0.2931 -0.2828
 2859TIP3    H130136   0.518   2.096   1.340  0.3194 -0.2869 -0.0903
 2859TIP3    H230137   0.548   2.008   1.221  0.5389 -0.6958  0.2628
 2860TIP3   OH230138   2.025   5.021   0.457  0.1361 -0.0809  0.0274
 2860TIP3    H130139   2.104   5.049   0.412  0.5204 -2.1038 -0.6771
 2860TIP3    H230140   1.978   5.102   0.476  1.1332  1.0127 -1.8564
 2861TIP3   OH230141   0.310   5.290   1.177 -0.1583  0.6492  0.3535
 2861TIP3    H130142   0.337   5.315   1.265 -1.0520  0.6854  0.6308
 2861TIP3    H230143   0.319   5.195   1.174 -2.0260  0.4024  1.1860
 2862TIP3   OH230144   5.344   1.478   6.708  0.5493 -0.0383 -0.4705
 2862TIP3    H130145   5.296   1.423   6.769 -0.2872  0.0815 -0.9968
 2862TIP3    H230146   5.322   1.443   6.621  0.5433  0.7008 -0.7744
 2863TIP3   OH230147   2.682   5.560   7.818  0.7624 -0.0394  0.5317
 2863TIP3    H130148   2.752   5.601   7.767  1.4538  0.2767  1.6866
 2863TIP3    H230149   2.695   5.593   7.907  0.3544 -1.5405  1.1711
 2864TIP3   OH230150   5.618   6.046   7.364  0.1081  0.2483 -0.1461
 2864TIP3    H130151   5.683   6.109   7.334 -0.3133  0.0402 -1.5580
 2864TIP3    H230152   5.540   6.065   7.312 -0.2478 -0.9609 -0.0881
 2865TIP3   OH230153   0.255   0.945   6.926 -0.4937 -0.4733  0.1793
 2865TIP3    H130154   0.257   1.040   6.938 -0.0820 -0.2732 -1.2269
 2865TIP3    H230155   0.176   0.916   6.971 -0.4158  0.4760  0.9641
 2866TIP3   OH230156   6.196   0.825   0.165  0.7317 -0.2327  0.1758
 2866TIP3    H130157   6.138   0.772   0.111  1.2409 -1.1319  0.4764
 2866TIP3    H230158   6.160   0.914   0.160  0.9952 -0.1991 -1.9466
 2867TIP3   OH230159   5.049   3.205   6.620  0.2812  0.4495 -0.5640
 2867TIP3    H130160   5.048   3.296   6.650  0.3244  0.7280 -1.3675
 2867TIP3    H230161   5.090   3.209   6.533 -3.0786  0.2239 -2.3199
 2868TIP3   OH230162   3.678   1.590   8.019  0.6155  0.1375 -0.0334
 2868TIP3    H130163   3.751   1.649   8.040  0.9510  0.4057 -1.8021
 2868TIP3    H230164   3.600   1.643   8.034  0.8720  0.6447 -0.4807
 2869TIP3   OH230165   6.295   2.182   0.227 -0.0127 -0.0128  0.3011
 2869TIP3    H130166   6.209   2.212   0.196  0.4301 -1.1002 -2.2416
 2869TIP3    H230167   6.356   2.246   0.191  0.3383  0.1655  1.2076
 2870TIP3   OH230168   3.526   3.742   7.626 -0.4932  0.6663  0.3430
 2870TIP3    H130169   3.608   3.742   7.577 -0.4582 -0.3542  0.3889
 2870TIP3    H230170   3.457   3.753   7.560 -0.4552 -0.8325  0.0239
 2871TIP3   OH230171   5.042   6.662   0.080  0.0811  0.0394  0.2446
 2871TIP3    H130172   5.049   6.591   0.143  0.0245 -1.1744 -1.0566
 2871TIP3    H230173   4.975   6.633   0.018  0.9093  0.6580 -1.0028
 2872TIP3   OH230174   1.644   5.438   8.134 -0.0987  0.1997 -0.2833
 2872TIP3    H130175   1.716   5.378   8.152 -1.0925 -1.7557 -2.3134
 2872TIP3    H230176   1.632   5.434   8.039 -2.7125  0.6090 -0.0527
 2873TIP3   OH230177   2.444   1.597   7.021  0.1623  0.2151  0.3485
 2873TIP3    H130178   2.450   1.584   6.927 -2.1027  2.9586 -0.3147
 2873TIP3    H230179   2.353   1.625   7.036  0.5104  0.1443  3.3152
 2874TIP3   OH230180   5.991   0.325   0.813 -0.5260 -0.5878  0.3865
 2874TIP3    H130181   5.931   0.380   0.762 -0.1162 -0.2840  0.2322
 2874TIP3    H230182   6.028   0.383   0.878 -1.2772 -1.0460  1.2456
 2875TIP3   OH230183   0.822   3.941   0.721 -0.0322  0.5150 -0.5976
 2875TIP3    H130184   0.901   3.898   0.755  0.0866  1.0753 -0.1401
 2875TIP3    H230185   0.752   3.879   0.738  0.3668 -0.1387 -1.3364
 2876TIP3   OH230186   1.537   1.832   7.707 -0.3667 -0.0198 -0.4343
 2876TIP3    H130187   1.532   1.753   7.654 -1.2490  0.2281 -0.7369
 2876TIP3    H230188   1.630   1.856   7.705 -0.4129  0.1507 -2.1253
 2877TIP3   OH230189   3.776   4.453   0.413  0.2036 -0.1215 -0.6943
 2877TIP3    H130190   3.815   4.534   0.445  0.6220 -0.2628 -0.8354
 2877TIP3    H230191   3.715   4.426   0.482  1.2034 -0.5101  0.0706
 2878TIP3   OH230192   6.084   5.569   8.132  0.4228  0.0195  0.1487
 2878TIP3    H130193   6.036   5.651   8.145  1.3366  0.7154 -0.7284
 2878TIP3    H230194   6.159   5.594   8.078  1.0604 -1.2884  0.4121
 2879TIP3   OH230195   6.148   3.075   1.770 -0.3748 -0.3897 -0.7696
 2879TIP3    H130196   6.230   3.058   1.817 -0.5400  1.0727  0.1262
 2879TIP3    H230197   6.116   3.156   1.808 -2.6885 -1.3651 -0.5053
 2880TIP3   OH230198   2.743   4.253   7.022  0.2428  0.1350  0.4459
 2880TIP3    H130199   2.676   4.188   7.000  0.8527 -0.3046 -0.1968
 2880TIP3    H230200   2.819   4.227   6.968  0.4930  1.3903  0.1714
 2881TIP3   OH230201   2.272   4.505   6.880 -0.1009 -0.3630 -0.3583
 2881TIP3    H130202   2.298   4.525   6.970  0.9466 -0.5073 -0.6219
 2881TIP3    H230203   2.290   4.586   6.832  0.2367 -0.5973 -0.6234
 2882TIP3   OH230204   5.193   6.775   6.905  0.6474  0.9653 -0.1270
 2882TIP3    H130205   5.157   6.700   6.858  1.6454  0.6856 -0.4566
 2882TIP3    H230206   5.163   6.851   6.855  0.0266  0.7790 -0.0571
 2883TIP3   OH230207   6.637   5.160   1.615  0.0305 -0.3553  0.2929
 2883TIP3    H130208   6.663   5.076   1.578  0.7117 -0.1948  0.4032
 2883TIP3    H230209   6.547   5.146   1.646  0.1820 -1.0707  0.4117
 2884TIP3   OH230210   6.499   5.442   5.951  0.0592 -0.1778  0.3513
 2884TIP3    H130211   6.574   5.415   6.003  1.5348  0.4285 -1.3318
 2884TIP3    H230212   6.524   5.420   5.861 -2.2018 -0.8351 -0.1658
 2885TIP3   OH230213   6.787   0.031   8.308 -0.2164 -0.0320 -0.4277
 2885TIP3    H130214   6.812   0.022   8.400 -1.2082 -0.4914 -0.1897
 2885TIP3    H230215   6.832   0.110   8.278 -1.6325  1.3998  1.0732
 2886TIP3   OH230216   3.736   2.748   7.774 -0.1921 -0.3763 -0.2705
 2886TIP3    H130217   3.660   2.768   7.720 -1.6841 -0.1046  1.8378
 2886TIP3    H230218   3.764   2.832   7.810 -0.8144 -0.8354  1.3646
 2887TIP3   OH230219   6.465   3.080   1.549  0.1131  0.6930 -0.3348
 2887TIP3    H130220   6.457   2.987   1.566  0.2508  0.2481 -2.4449
 2887TIP3    H230221   6.559   3.096   1.544  0.0849  0.8864 -0.2882
 2888TIP3   OH230222   1.687   6.167   0.508 -0.4562  0.2890  0.0457
 2888TIP3    H130223   1.624   6.153   0.438 -0.2909  0.0164 -0.0490
 2888TIP3    H230224   1.699   6.081   0.549 -0.1834  0.3468  0.0941
 2889TIP3   OH230225   5.222   1.117   0.129 -0.6062  0.2754 -0.2925
 2889TIP3    H130226   5.243   1.164   0.210 -1.5755 -0.9284  0.7001
 2889TIP3    H230227   5.301   1.066   0.110 -1.0401 -1.0129  1.0899
 2890TIP3   OH230228   1.380   4.409   7.543  0.5111 -0.5710 -0.3871
 2890TIP3    H130229   1.326   4.353   7.487 -1.5985  0.3159  0.6378
 2890TIP3    H230230   1.320   4.440   7.611  2.3422  0.5058  0.8211
 2891TIP3   OH230231   0.296   2.894   1.500 -0.1760  0.6954 -0.1868
 2891TIP3    H130232   0.323   2.949   1.573  2.1797 -0.0762 -0.3767
 2891TIP3    H230233   0.363   2.907   1.434 -0.1227 -1.5384 -0.6621
 2892TIP3   OH230234   3.177   0.131   1.295  0.6280 -0.7363 -0.8974
 2892TIP3    H130235   3.131   0.207   1.259  0.5329 -1.1836 -1.7555
 2892TIP3    H230236   3.262   0.165   1.322 -0.0441  0.0304  0.3784
 2893TIP3   OH230237   4.191   0.676   0.344 -0.3377 -0.0134 -0.0014
 2893TIP3    H130238   4.170   0.632   0.262 -3.8223  0.1175  0.6438
 2893TIP3    H230239   4.179   0.608   0.411 -1.3711  0.7712  0.6472
 2894TIP3   OH230240   5.354   3.457   7.943 -0.1374  0.0440 -0.5672
 2894TIP3    H130241   5.338   3.537   7.992  0.6367  0.9091 -1.6910
 2894TIP3    H230242   5.269   3.432   7.908 -0.7263 -0.6472  1.2452
 2895TIP3   OH230243   6.615   3.897   0.722  0.2243  0.2306  0.3922
 2895TIP3    H130244   6.650   3.902   0.811  0.2684 -1.8562  0.5384
 2895TIP3    H230245   6.538   3.954   0.723  0.8335  1.0672  1.4470
 2896TIP3   OH230246   5.696   2.810   7.584  0.4422 -0.1488  0.1876
 2896TIP3    H130247   5.776   2.861   7.574 -0.4372  0.9838 -1.6332
 2896TIP3    H230248   5.684   2.766   7.500 -0.8184 -0.3492  0.4447
 2897TIP3   OH230249   1.121   0.385   7.144 -0.1888  0.9601  0.5048
 2897TIP3    H130250   1.203   0.371   7.192 -0.5174  0.9838  1.0847
 2897TIP3    H230251   1.075   0.452   7.194  0.7122  3.1396 -1.4487
 2898TIP3   OH230252   2.092   0.806   1.784  0.1077  0.1719  0.3661
 2898TIP3    H130253   2.116   0.806   1.877  0.7410  1.3964  0.2241
 2898TIP3    H230254   2.019   0.867   1.778 -1.1824 -1.3073  0.3189
 2899TIP3   OH230255   3.104   2.786   8.229 -0.2166 -0.0514 -0.4258
 2899TIP3    H130256   3.022   2.751   8.194  0.9988 -2.2305 -1.3142
 2899TIP3    H230257   3.141   2.838   8.158  0.6400 -1.7252 -1.2810
 2900TIP3   OH230258   2.997   2.774   1.427 -0.2996 -0.1616  0.1546
 2900TIP3    H130259   3.002   2.803   1.336  1.1090  1.4716  0.6898
 2900TIP3    H230260   2.904   2.770   1.447 -0.6008  0.6305 -1.0186
 2901TIP3   OH230261   6.342   1.083   6.943  0.1106 -0.3218 -0.3337
 2901TIP3    H130262   6.422   1.070   6.893 -0.0644 -1.0309 -0.4464
 2901TIP3    H230263   6.280   1.122   6.881 -0.3124 -1.7914 -0.8862
 2902TIP3   OH230264   4.318   2.694   7.131  0.2453  0.1640  0.9241
 2902TIP3    H130265   4.258   2.724   7.200  0.5634 -0.0937  1.3148
 2902TIP3    H230266   4.262   2.645   7.071  0.0178  0.1416  1.1495
 2903TIP3   OH230267   5.719   2.366   1.027  0.0077  0.7486 -0.4112
 2903TIP3    H130268   5.650   2.304   1.050  0.3494  1.2985  2.4340
 2903TIP3    H230269   5.674   2.435   0.979 -1.1876  0.4497  0.2485
 2904TIP3   OH230270   4.703   2.114   7.148 -0.0787  0.1038 -0.2179
 2904TIP3    H130271   4.778   2.064   7.178 -0.4148 -0.7746 -0.8091
 2904TIP3    H230272   4.628   2.055   7.161 -0.7716  1.1694  0.9303
 2905TIP3   OH230273   6.101   1.915   1.521 -0.2329  0.5398 -0.6039
 2905TIP3    H130274   6.141   2.002   1.514  0.4945  0.2689  0.0242
 2905TIP3    H230275   6.082   1.905   1.614 -0.4739  0.0910 -0.6986
 2906TIP3   OH230276   0.017   0.162   8.031 -0.5039  0.0720  0.4592
 2906TIP3    H130277   0.067   0.240   8.006 -2.4969  0.3212 -3.4774
 2906TIP3    H230278  -0.074   0.189   8.026 -1.2179 -1.8027  1.9960
 2907TIP3   OH230279   2.529   6.536   8.102  0.1276 -0.0219  0.0103
 2907TIP3    H130280   2.535   6.630   8.087 -0.0815 -0.2551 -1.8074
 2907TIP3    H230281   2.527   6.498   8.014 -1.5313 -1.6164  0.6724
 2908TIP3   OH230282   3.559   5.408   7.079  0.3653  0.3887  0.1037
 2908TIP3    H130283   3.475   5.401   7.034  0.9042 -0.3878 -0.8221
 2908TIP3    H230284   3.609   5.472   7.029  0.5482  0.3916  0.2867
 2909TIP3   OH230285   1.604   2.764   1.881 -0.8010  0.3666 -0.1581
 2909TIP3    H130286   1.660   2.695   1.917 -1.4953 -0.0823  0.0831
 2909TIP3    H230287   1.644   2.845   1.912  1.0962  0.1985 -1.9681
 2910TIP3   OH230288   2.785   6.079   0.160 -0.8017  0.0539 -0.1897
 2910TIP3    H130289   2.737   6.065   0.241 -1.5943 -1.1785 -0.8574
 2910TIP3    H230290   2.718   6.098   0.094 -0.1750  0.9722 -0.5844
 2911TIP3   OH230291   4.416   5.049   0.948  0.2308 -0.3779  0.4594
 2911TIP3    H130292   4.383   4.960   0.942  0.2983 -0.3013 -1.5582
 2911TIP3    H230293   4.509   5.039   0.966  0.0992 -0.6895  0.9813
 2912TIP3   OH230294   2.965   5.235   0.038  0.0439  0.5569  0.2147
 2912TIP3    H130295   2.888   5.242   0.094 -1.1547  0.0831 -1.2998
 2912TIP3    H230296   2.932   5.198  -0.044  1.6348  1.6635 -0.9883
 2913TIP3   OH230297   3.484   0.405   6.609 -0.5608 -0.4904 -0.7044
 2913TIP3    H130298   3.435   0.385   6.529 -1.7727  2.4810 -0.8237
 2913TIP3    H230299   3.573   0.422   6.579 -1.2949  1.9184 -1.6912
 2914TIP3   OH230300   6.645   3.717   0.483 -0.3285 -0.4300  0.0522
 2914TIP3    H130301   6.653   3.781   0.554  1.0098  0.5094 -0.9106
 2914TIP3    H230302   6.553   3.723   0.457 -0.5520  0.0876  0.9154
 2915TIP3   OH230303   1.118   2.617   0.516  0.0706 -0.2841  0.0391
 2915TIP3    H130304   1.101   2.566   0.595 -1.3251  0.2474  0.1178
 2915TIP3    H230305   1.048   2.683   0.515  0.1902 -0.1444 -1.5115
 2916TIP3   OH230306   0.189   5.242   6.425 -0.6100 -0.3749  0.0451
 2916TIP3    H130307   0.256   5.288   6.475 -0.1670  0.3261 -1.1573
 2916TIP3    H230308   0.195   5.279   6.336 -3.3337  0.5196  0.1421
 2917TIP3   OH230309   6.253   1.537   6.314 -0.0856  0.3116 -0.6184
 2917TIP3    H130310   6.239   1.533   6.219 -1.6039 -0.0395 -0.4095
 2917TIP3    H230311   6.165   1.530   6.351  0.5715 -0.5516  0.8476
 2918TIP3   OH230312   4.658   5.655   7.007 -0.2922  0.1891 -0.8553
 2918TIP3    H130313   4.684   5.725   6.947 -2.4298  1.0583 -0.8429
 2918TIP3    H230314   4.674   5.691   7.095 -0.2662  0.2105 -0.8688
 2919TIP3   OH230315   5.938   2.099   1.243 -0.0644  0.1363 -0.4163
 2919TIP3    H130316   5.887   2.044   1.183  0.6188 -1.1823  0.1531
 2919TIP3    H230317   5.967   2.173   1.190 -0.6858 -0.2552 -1.3253
 2920TIP3   OH230318   2.409   0.507   7.637  0.2782  0.0763 -0.2725
 2920TIP3    H130319   2.396   0.576   7.572 -0.9350  0.1832  0.0704
 2920TIP3    H230320   2.468   0.545   7.702 -0.9184  1.0515  0.2734
 2921TIP3   OH230321   2.103   2.547   1.072  0.1495 -0.7336 -0.2186
 2921TIP3    H130322   2.165   2.576   1.140  2.3366 -2.3052 -1.3999
 2921TIP3    H230323   2.154   2.550   0.991 -1.7313 -1.0041 -1.4586
 2922TIP3   OH230324   0.815   2.364   6.318 -0.1865  0.1351 -0.3817
 2922TIP3    H130325   0.781   2.451   6.295 -0.4265 -0.4114 -2.2749
 2922TIP3    H230326   0.890   2.351   6.260 -0.2548 -0.9756 -0.2511
 2923TIP3   OH230327   3.794   1.559   7.070  0.2031  0.3792  0.5516
 2923TIP3    H130328   3.797   1.467   7.045 -0.8724  0.5872 -0.4813
 2923TIP3    H230329   3.712   1.591   7.032  1.0710  2.0216 -0.0232
 2924TIP3   OH230330   6.812   1.668   7.377 -0.1841  0.2582 -0.2613
 2924TIP3    H130331   6.748   1.737   7.362 -0.4104 -0.1134 -1.0954
 2924TIP3    H230332   6.762   1.595   7.413 -0.6285 -0.6825 -2.5703
 2925TIP3   OH230333   0.326   6.915   0.035  0.3015  0.2855  0.0698
 2925TIP3    H130334   0.323   6.993  -0.021  0.1090  0.8033  0.7910
 2925TIP3    H230335   0.309   6.948   0.123 -0.4393 -0.6661  0.2956
 2926TIP3   OH230336   0.312   0.335   1.507  0.0736  0.0415  0.1622
 2926TIP3    H130337   0.308   0.266   1.441  1.6729 -0.9321  1.0248
 2926TIP3    H230338   0.233   0.323   1.560 -0.0812 -0.6050 -0.2102
 2927TIP3   OH230339   1.020   3.534   6.330 -1.1092  0.4061 -0.3537
 2927TIP3    H130340   0.958   3.468   6.361 -2.2885  1.2575 -0.7742
 2927TIP3    H230341   0.999   3.543   6.237  0.8753 -0.5425 -0.9324
 2928TIP3   OH230342   0.360   6.031   7.060 -0.4817  0.8014 -0.0101
 2928TIP3    H130343   0.409   5.953   7.033 -0.2378  1.2996 -1.0895
 2928TIP3    H230344   0.288   5.998   7.112  0.5178 -0.0208  0.8901
 2929TIP3   OH230345   5.128   1.500   7.693 -0.2355  0.1220  0.3500
 2929TIP3    H130346   5.185   1.534   7.624 -0.8808  1.0035  0.2239
 2929TIP3    H230347   5.083   1.426   7.653  1.1527 -0.8887  0.6025
 2930TIP3   OH230348   2.746   6.931   1.885  0.4428  0.3053  0.2883
 2930TIP3    H130349   2.752   6.842   1.849 -0.7598 -0.7375  2.4996
 2930TIP3    H230350   2.655   6.957   1.871  0.8809  1.4186 -0.7311
 2931TIP3   OH230351   4.688   5.230   7.790  0.7511 -0.3315 -0.3916
 2931TIP3    H130352   4.618   5.241   7.855 -0.3477  1.7920 -1.8055
 2931TIP3    H230353   4.661   5.156   7.737 -0.2221  0.1920 -0.6474
 2932TIP3   OH230354   2.727   4.009   0.448 -0.2768  0.0449  0.0884
 2932TIP3    H130355   2.699   3.936   0.394  0.5315 -0.3050  0.1244
 2932TIP3    H230356   2.722   4.085   0.389 -1.3586  0.0197  0.1271
 2933TIP3   OH230357   5.857   2.955   2.091 -0.5917  0.0485  0.5296
 2933TIP3    H130358   5.912   2.891   2.046 -0.4588  0.9196 -0.6070
 2933TIP3    H230359   5.785   2.904   2.127  0.1159 -0.8865  0.6429
 2934TIP3   OH230360   1.410   5.777   2.413 -0.3067  0.0232  0.2806
 2934TIP3    H130361   1.494   5.770   2.366 -0.2920  2.8355 -0.2918
 2934TIP3    H230362   1.423   5.726   2.493  1.5282 -0.5766 -0.3418
 2935TIP3   OH230363   5.451   4.702   7.986  0.2755 -0.1033 -0.1551
 2935TIP3    H130364   5.490   4.788   7.997  1.1545 -0.5147  0.0591
 2935TIP3    H230365   5.526   4.643   7.975 -0.1863 -1.1361  1.7588
 2936TIP3   OH230366   2.929   3.084   7.385  0.7382  0.3657  1.0336
 2936TIP3    H130367   2.980   3.062   7.463 -0.4624  0.0728  1.7774
 2936TIP3    H230368   2.889   3.001   7.359  1.1200  0.4648  0.0940
 2937TIP3   OH230369   3.588   6.504   8.110 -0.2876 -0.3428  0.0274
 2937TIP3    H130370   3.674   6.524   8.071 -0.8378  0.4474 -0.8169
 2937TIP3    H230371   3.589   6.409   8.121  0.8390 -0.3103  0.3740
 2938TIP3   OH230372   0.118   5.114   7.242 -0.0783 -0.6296 -0.3612
 2938TIP3    H130373   0.147   5.026   7.218  0.5996 -0.1401 -1.4039
 2938TIP3    H230374   0.199   5.164   7.251 -0.4373 -0.1830  0.5916
 2939TIP3   OH230375   3.793   6.097   7.109 -0.1411 -0.0709 -0.3924
 2939TIP3    H130376   3.764   6.188   7.106 -0.9718 -0.3290 -0.3426
 2939TIP3    H230377   3.783   6.072   7.201  1.6115  0.2623 -0.0752
 2940TIP3   OH230378   2.269   6.425   6.464 -0.3042  0.4350 -0.9495
 2940TIP3    H130379   2.310   6.375   6.535  0.9127 -1.3346 -2.7938
 2940TIP3    H230380   2.213   6.362   6.420 -3.0532  2.1376 -0.1442
 2941TIP3   OH230381   0.874   6.079   6.369 -0.2503 -0.0804 -0.0225
 2941TIP3    H130382   0.948   6.029   6.333  0.3986  0.7022  0.1789
 2941TIP3    H230383   0.900   6.170   6.358 -1.0865  0.2049  0.2971
 2942TIP3   OH230384   4.982   5.117   1.634 -0.1139 -0.0111  0.1156
 2942TIP3    H130385   4.989   5.033   1.681  3.2345  0.9445  1.6463
 2942TIP3    H230386   4.923   5.169   1.688 -0.9967 -0.8434 -0.0102
 2943TIP3   OH230387   1.713   3.753   7.086 -0.2033  0.1078  0.0396
 2943TIP3    H130388   1.740   3.678   7.139 -0.3122  0.1466  0.1504
 2943TIP3    H230389   1.792   3.806   7.079 -0.4062  0.5421  0.9020
 2944TIP3   OH230390   5.751   3.695   1.411 -0.1416 -0.0725 -0.4949
 2944TIP3    H130391   5.783   3.611   1.376  0.6990  0.5236 -1.1964
 2944TIP3    H230392   5.809   3.713   1.485 -1.0550 -0.6590  0.3894
 2945TIP3   OH230393   0.818   2.825   8.224 -0.7226  0.0974  0.3080
 2945TIP3    H130394   0.909   2.853   8.230 -1.1687  1.5325  0.7859
 2945TIP3    H230395   0.798   2.825   8.131  0.0382 -1.2338  0.1181
 2946TIP3   OH230396   3.762   2.847   0.968  0.1218 -0.0242  0.1310
 2946TIP3    H130397   3.675   2.885   0.978  0.1587  0.1879 -0.3552
 2946TIP3    H230398   3.746   2.753   0.959 -0.1846  0.1726 -1.6430
 2947TIP3   OH230399   5.710   6.611   0.131 -0.2557 -0.0805  0.0363
 2947TIP3    H130400   5.692   6.687   0.076 -0.7665 -0.7409 -0.7165
 2947TIP3    H230401   5.803   6.620   0.154 -0.3603  0.8742  0.1363
 2948TIP3   OH230402   1.565   4.080   0.426  0.3454  0.5658 -0.8795
 2948TIP3    H130403   1.626   4.082   0.353  0.1306 -0.6085 -1.1051
 2948TIP3    H230404   1.538   3.989   0.433 -0.3620  0.8277  0.0680
 2949TIP3   OH230405   2.538   3.846   1.092 -0.1987  0.5604 -0.3710
 2949TIP3    H130406   2.515   3.917   1.152  0.0166 -0.5055  1.0258
 2949TIP3    H230407   2.629   3.825   1.113 -0.9849 -1.8050  1.1004
 2950TIP3   OH230408   2.257   2.600   1.293  0.0831 -0.0056  0.8007
 2950TIP3    H130409   2.341   2.613   1.249  0.4968  0.8505  1.8146
 2950TIP3    H230410   2.246   2.677   1.348 -1.7121  0.2528  0.1619
 2951TIP3   OH230411   4.350   2.877   2.563  0.0790 -0.5450 -0.3039
 2951TIP3    H130412   4.293   2.803   2.539  1.5807 -2.3287  1.3170
 2951TIP3    H230413   4.437   2.837   2.574  1.1565  1.6703 -0.3522
 2952TIP3   OH230414   3.752   1.258   8.307  0.4755 -0.0603  0.3314
 2952TIP3    H130415   3.797   1.341   8.291 -0.3045  0.2366 -0.3852
 2952TIP3    H230416   3.802   1.193   8.258 -0.1175  0.3428 -0.8406
 2953TIP3   OH230417   1.892   5.393   0.512 -0.2336 -0.2572 -0.3483
 2953TIP3    H130418   1.856   5.323   0.458  0.7788  0.1370 -1.5799
 2953TIP3    H230419   1.958   5.435   0.457 -1.9062  2.7239 -0.2818
 2954TIP3   OH230420   6.921   3.335   8.015 -0.7448  0.0028 -1.3719
 2954TIP3    H130421   6.954   3.326   7.926  1.1860  0.6162 -0.7739
 2954TIP3    H230422   6.938   3.427   8.038  0.0636 -0.4712  0.0775
 2955TIP3   OH230423   4.401   3.010   1.033  0.1871  0.5752 -0.3464
 2955TIP3    H130424   4.416   2.978   1.122 -1.6300 -0.0190 -0.2298
 2955TIP3    H230425   4.462   3.084   1.024  1.2163 -0.0628  0.9649
 2956TIP3   OH230426   6.683   3.039   7.631 -0.4148  0.1335  0.1637
 2956TIP3    H130427   6.772   3.012   7.654 -1.1634 -0.5549  2.4602
 2956TIP3    H230428   6.627   2.968   7.664 -1.8236  0.2590 -1.7432
 2957TIP3   OH230429   3.560   0.305   1.803  0.1527  0.7302 -0.0267
 2957TIP3    H130430   3.608   0.232   1.842 -0.0687  0.9589  0.6863
 2957TIP3    H230431   3.487   0.264   1.757  0.0069  0.5017  0.4032
 2958TIP3   OH230432   3.883   5.173   0.194 -0.0666  0.1205 -0.0776
 2958TIP3    H130433   3.798   5.136   0.217  0.2789  0.6216  2.2646
 2958TIP3    H230434   3.916   5.210   0.276  2.8039 -0.8370 -0.6756
 2959TIP3   OH230435   1.030   2.536   7.304  0.7171  0.3268 -0.3060
 2959TIP3    H130436   0.974   2.562   7.231  0.7239  2.3323  0.3297
 2959TIP3    H230437   0.990   2.456   7.338 -0.5041  0.5223 -1.2107
 2960TIP3   OH230438   5.940   2.498   7.843  0.7933 -0.3360  0.0629
 2960TIP3    H130439   5.876   2.560   7.810  2.5983  0.4256 -2.2509
 2960TIP3    H230440   5.892   2.415   7.849 -0.9734  0.6924  0.6954
 2961TIP3   OH230441   5.647   5.162   6.560  0.5110 -0.2016 -0.0917
 2961TIP3    H130442   5.657   5.253   6.534 -1.9298 -0.2486 -1.5377
 2961TIP3    H230443   5.694   5.112   6.493 -1.1435 -0.0818 -1.4183
 2962TIP3   OH230444   4.762   3.794   1.115 -0.1191  0.2820  0.0625
 2962TIP3    H130445   4.674   3.799   1.077 -0.1148 -0.8668 -0.1237
 2962TIP3    H230446   4.749   3.755   1.201  0.2237 -0.0090 -0.0166
 2963TIP3   OH230447   5.893   5.196   5.816 -0.0519  0.5491  0.1836
 2963TIP3    H130448   5.942   5.115   5.811 -1.8570 -0.5919  0.0663
 2963TIP3    H230449   5.955   5.260   5.851  1.3837 -0.8808  0.3385
 2964TIP3   OH230450   3.408   5.986   1.041 -0.0622 -0.3552 -0.3581
 2964TIP3    H130451   3.383   5.976   0.949 -0.2613 -1.2821 -0.2135
 2964TIP3    H230452   3.485   6.043   1.039 -0.0181 -0.4328 -1.1135
 2965TIP3   OH230453   6.933   4.762   7.219  0.1626 -0.2024 -0.1462
 2965TIP3    H130454   7.021   4.779   7.187  0.1366 -0.2009 -0.2156
 2965TIP3    H230455   6.937   4.782   7.313 -0.1053  1.0772 -0.3964
 2966TIP3   OH230456   4.821   3.990   6.158 -0.2729 -0.4431  0.1837
 2966TIP3    H130457   4.817   4.029   6.071  2.0925  0.2495  0.3258
 2966TIP3    H230458   4.784   3.903   6.146 -1.9659  0.3671 -1.0094
 2967TIP3   OH230459   6.809   1.674   0.972  0.1659  0.0343 -0.4874
 2967TIP3    H130460   6.823   1.707   0.883  0.8119  1.1932  0.0234
 2967TIP3    H230461   6.789   1.752   1.024 -1.5896 -0.7840  0.1401
 2968TIP3   OH230462   5.615   2.082   0.444 -0.3253  0.3561 -0.3346
 2968TIP3    H130463   5.640   1.990   0.442 -0.2132  0.3231  1.1423
 2968TIP3    H230464   5.520   2.081   0.427 -0.0817  0.1295 -1.8280
 2969TIP3   OH230465   5.316   2.739   6.622  0.6202  0.2237 -0.1070
 2969TIP3    H130466   5.260   2.812   6.650  0.3018  0.4786 -1.3320
 2969TIP3    H230467   5.316   2.679   6.696  0.4253  1.2015  0.7157
 2970TIP3   OH230468   6.545   0.195   8.072  0.4771  0.1645 -0.1054
 2970TIP3    H130469   6.535   0.164   8.162 -1.2516  0.2288 -0.2431
 2970TIP3    H230470   6.553   0.115   8.020 -3.0961 -0.1730 -0.3570
 2971TIP3   OH230471   6.836   2.678   0.620 -0.1896 -0.3026 -0.2739
 2971TIP3    H130472   6.883   2.597   0.599 -1.5752 -1.0258 -0.6894
 2971TIP3    H230473   6.775   2.653   0.689 -1.5783  0.0363 -1.3423
 2972TIP3   OH230474   2.761   6.395   8.269 -0.2976 -0.2196  0.3826
 2972TIP3    H130475   2.767   6.400   8.173  0.7111 -1.0887  0.3707
 2972TIP3    H230476   2.669   6.375   8.286 -0.2017 -1.5859 -0.5150
 2973TIP3   OH230477   2.045   1.242   6.949 -0.0686  0.0520  0.0258
 2973TIP3    H130478   2.009   1.203   7.028  0.1213  0.3194  0.2439
 2973TIP3    H230479   1.969   1.278   6.903 -0.2607 -0.6440 -0.2242
 2974TIP3   OH230480   0.275   1.067   6.663  0.2140 -0.0656  0.7912
 2974TIP3    H130481   0.215   1.066   6.588  0.8155 -1.6599  0.2878
 2974TIP3    H230482   0.263   0.982   6.705  0.9100  0.2569  1.6669
 2975TIP3   OH230483   4.895   1.884   7.981  0.4399  0.3756  0.3420
 2975TIP3    H130484   4.845   1.888   7.899 -1.4270 -0.4570  1.3885
 2975TIP3    H230485   4.968   1.826   7.961 -1.3576 -1.8785 -0.1006
 2976TIP3   OH230486   0.724   1.616   6.195 -0.1745  0.1513  0.2187
 2976TIP3    H130487   0.717   1.656   6.282 -0.8044 -0.0762  0.2779
 2976TIP3    H230488   0.657   1.548   6.195  0.5117 -0.5327 -0.0811
 2977TIP3   OH230489   5.685   1.238   0.834 -0.0509 -0.1234 -0.1679
 2977TIP3    H130490   5.646   1.185   0.764 -1.8410  1.7368 -0.6695
 2977TIP3    H230491   5.612   1.256   0.894  0.4949  1.8026 -0.0431
 2978TIP3   OH230492   5.605   5.354   1.090  0.0377  0.1072  0.4669
 2978TIP3    H130493   5.519   5.395   1.094  0.0287  0.1223  0.1602
 2978TIP3    H230494   5.600   5.294   1.015  0.3285  0.1908  0.3772
 2979TIP3   OH230495   1.884   5.433   6.699  0.0456  0.0988 -0.2060
 2979TIP3    H130496   1.956   5.476   6.745 -0.4937  0.9079 -0.0935
 2979TIP3    H230497   1.826   5.403   6.769  0.2726 -0.5573 -0.2964
 2980TIP3   OH230498   5.813   4.684   7.986  0.5779  1.1038  0.3582
 2980TIP3    H130499   5.799   4.778   8.001  0.2566  0.8594  1.8179
 2980TIP3    H230500   5.731   4.653   7.948  0.9152  1.5254 -0.7213
 2981TIP3   OH230501   0.490   6.674   6.815  0.3312  0.7055 -0.1837
 2981TIP3    H130502   0.546   6.648   6.889  0.8235 -3.1078 -1.6837
 2981TIP3    H230503   0.412   6.620   6.824  0.2492  0.4315 -2.2366
 2982TIP3   OH230504   6.038   5.569   0.789 -0.6447 -0.5672  0.0955
 2982TIP3    H130505   5.989   5.543   0.867 -0.5305 -1.0311  0.0146
 2982TIP3    H230506   5.978   5.624   0.740 -1.1146 -1.1945 -0.0398
 2983TIP3   OH230507   6.911   0.965   0.947 -0.3019  0.8805  0.7495
 2983TIP3    H130508   6.915   0.996   1.038 -0.5949  0.9736  0.7315
 2983TIP3    H230509   6.820   0.939   0.934 -0.0308 -0.1176  0.7976
 2984TIP3   OH230510   2.690   6.568   1.498 -0.0992 -0.1617  0.2746
 2984TIP3    H130511   2.644   6.603   1.421 -1.5256  0.9454  1.5474
 2984TIP3    H230512   2.783   6.581   1.479 -0.4535  0.7633 -0.9603
 2985TIP3   OH230513   4.673   4.225   7.230  0.1194 -0.3583  0.2323
 2985TIP3    H130514   4.760   4.186   7.230  0.5819  0.6705  0.4017
 2985TIP3    H230515   4.614   4.150   7.235  1.0016 -1.0303  0.7504
 2986TIP3   OH230516   0.760   5.896   7.429  0.3329 -1.0846  0.1154
 2986TIP3    H130517   0.836   5.860   7.383 -0.0268 -2.4246  0.5086
 2986TIP3    H230518   0.764   5.856   7.516  0.4249  0.5996  0.9292
 2987TIP3   OH230519   5.193   2.314   1.054  0.0913  0.1344  0.3067
 2987TIP3    H130520   5.134   2.281   0.986  0.1858  1.5521 -0.5013
 2987TIP3    H230521   5.278   2.323   1.009 -0.0122  1.7585  0.3826
 2988TIP3   OH230522   4.984   0.748   0.908 -0.2284  0.0834  0.4643
 2988TIP3    H130523   5.067   0.701   0.898  0.6125  1.6890 -0.5781
 2988TIP3    H230524   4.921   0.696   0.858  0.4597 -0.4319  0.1161
 2989TIP3   OH230525   4.254   1.741   7.862 -0.4288 -0.3529  0.1076
 2989TIP3    H130526   4.308   1.707   7.934 -0.8076 -2.3092 -0.4568
 2989TIP3    H230527   4.237   1.664   7.807 -0.8129  0.9289 -1.6539
 2990TIP3   OH230528   4.836   1.560   7.814  0.1627 -0.4180  0.1800
 2990TIP3    H130529   4.794   1.475   7.805  0.0871 -0.4277  0.6261
 2990TIP3    H230530   4.908   1.545   7.876 -1.2233  0.3319  2.0467
 2991TIP3   OH230531   0.849   4.549   7.436 -0.3619 -0.1502  0.0021
 2991TIP3    H130532   0.829   4.642   7.450 -0.5329 -0.4417  1.9144
 2991TIP3    H230533   0.935   4.550   7.394 -0.0905  0.8713  0.5411
 2992TIP3   OH230534   4.725   3.804   7.587  0.2461 -0.1718 -0.3769
 2992TIP3    H130535   4.794   3.742   7.564  0.9088  0.7485 -0.9106
 2992TIP3    H230536   4.734   3.815   7.682 -1.2332 -2.4561  0.1330
 2993TIP3   OH230537   2.040   1.624   0.131  0.3020 -0.0855 -0.5074
 2993TIP3    H130538   1.987   1.551   0.164 -1.6721  2.2787  2.0394
 2993TIP3    H230539   2.000   1.702   0.169  3.3117  2.2599 -1.7061
 2994TIP3   OH230540   2.098   1.078   7.382 -0.0028  0.1389  0.0265
 2994TIP3    H130541   2.074   1.048   7.470  0.1979 -0.7418 -0.2065
 2994TIP3    H230542   2.135   1.165   7.395 -0.3342  0.1754  0.7697
 2995TIP3   OH230543   4.421   3.495   0.287  0.8074 -0.4894  0.0355
 2995TIP3    H130544   4.346   3.463   0.338  0.4157 -0.3278 -0.4281
 2995TIP3    H230545   4.492   3.500   0.350  0.4723 -0.8101  0.4491
 2996TIP3   OH230546   2.414   1.334   7.172 -0.3657 -0.1083  0.1982
 2996TIP3    H130547   2.422   1.416   7.122 -0.0141 -0.2352  0.0470
 2996TIP3    H230548   2.403   1.267   7.105 -4.6343  0.1801  0.3021
 2997TIP3   OH230549   2.809   2.908   0.611 -0.2478  0.3861  0.0562
 2997TIP3    H130550   2.767   2.845   0.553  1.0633 -0.5946  0.1313
 2997TIP3    H230551   2.876   2.858   0.656  2.0856  2.1807 -1.2009
 2998TIP3   OH230552   3.912   1.701   6.641 -0.6899 -0.2080 -0.0802
 2998TIP3    H130553   3.828   1.740   6.665 -1.1712 -0.4769 -1.2389
 2998TIP3    H230554   3.891   1.613   6.611  0.0824 -0.4977  0.1898
 2999TIP3   OH230555   4.255   0.204   7.900  0.4020  0.0427  0.1788
 2999TIP3    H130556   4.347   0.221   7.881 -0.6755  5.0837 -2.0534
 2999TIP3    H230557   4.249   0.209   7.995  2.3362 -0.2854  0.3679
 3000TIP3   OH230558   4.686   1.028   8.021  0.7087  0.1691  0.5920
 3000TIP3    H130559   4.777   1.019   7.993  0.6551  0.1137  0.4364
 3000TIP3    H230560   4.635   1.024   7.940  0.4945 -0.8291  0.7636
 3001TIP3   OH230561   5.677   4.435   0.615 -0.5879 -0.3789 -0.8450
 3001TIP3    H130562   5.660   4.432   0.709  1.4526 -0.2656 -0.4264
 3001TIP3    H230563   5.610   4.494   0.580 -0.1925  1.1851  0.8529
 3002TIP3   OH230564   6.107   1.941   8.109 -0.3130 -0.2350 -0.6541
 3002TIP3    H130565   6.030   1.943   8.053  0.1413 -0.4640 -1.2926
 3002TIP3    H230566   6.164   1.876   8.069 -0.6657 -1.6390  0.9982
 3003TIP3   OH230567   6.211   6.017   2.091 -0.1138  0.1358  0.0910
 3003TIP3    H130568   6.283   5.965   2.127  0.8644  0.8091 -0.8399
 3003TIP3    H230569   6.137   5.956   2.087  0.5897 -0.7651  0.4145
 3004TIP3   OH230570   5.661   4.792   1.007 -0.2526 -0.2845  0.4693
 3004TIP3    H130571   5.582   4.772   0.958 -0.4643 -0.2820  0.8067
 3004TIP3    H230572   5.640   4.872   1.056  0.7451  1.1146 -1.2369
 3005TIP3   OH230573   2.598   5.437   6.762  0.6100  0.4778  0.0844
 3005TIP3    H130574   2.544   5.430   6.684 -0.3834  0.4245  0.7598
 3005TIP3    H230575   2.622   5.346   6.783  0.7328  0.4772 -0.0577
 3006TIP3   OH230576   4.832   5.703   0.430  0.1277  0.0906 -0.3411
 3006TIP3    H130577   4.772   5.733   0.498  0.5472  1.0579 -0.3907
 3006TIP3    H230578   4.817   5.608   0.426  0.0160  0.0315  1.0170
 3007TIP3   OH230579   2.402   1.741   0.684 -0.0438 -0.3037  0.4792
 3007TIP3    H130580   2.489   1.766   0.715  0.7441 -1.1619 -0.8919
 3007TIP3    H230581   2.410   1.648   0.663 -1.3833 -0.4675  0.6009
 3008TIP3   OH230582   4.862   6.402   0.440 -0.3539 -0.1668 -0.3372
 3008TIP3    H130583   4.917   6.330   0.409 -0.0209 -0.3464  0.6432
 3008TIP3    H230584   4.923   6.473   0.459 -0.2326 -0.8510  2.1578
 3009TIP3   OH230585   5.014   1.918   0.710 -0.8788 -0.1251 -0.4722
 3009TIP3    H130586   5.058   1.834   0.725  0.8068  0.3497 -2.2153
 3009TIP3    H230587   4.930   1.895   0.672 -0.5015 -1.0558 -0.7806
 3010TIP3   OH230588   2.286   6.583   0.644 -0.0833  0.0257 -0.3260
 3010TIP3    H130589   2.217   6.536   0.691  1.5065  0.2603  2.4437
 3010TIP3    H230590   2.321   6.519   0.582 -2.4355 -0.2149 -1.5315
 3011TIP3   OH230591   6.577   6.866   1.038  0.4849  0.2652  0.5391
 3011TIP3    H130592   6.498   6.821   1.066  0.7586 -0.9508 -0.5088
 3011TIP3    H230593   6.548   6.954   1.013 -0.3960  0.0776  0.8897
 3012TIP3   OH230594   2.814   6.938   0.683 -0.3489  0.7186 -0.2523
 3012TIP3    H130595   2.895   6.901   0.648 -0.2622  0.0809  0.6125
 3012TIP3    H230596   2.757   6.863   0.697  0.5046  0.5711  3.3023
 3013TIP3   OH230597   1.090   6.871   6.908  0.5906 -0.5155  0.0264
 3013TIP3    H130598   1.128   6.843   6.825  1.8070 -1.2726  0.8109
 3013TIP3    H230599   1.154   6.932   6.944  0.6406 -1.0993  0.9505
 3014TIP3   OH230600   4.955   6.108   7.042  0.8280 -0.0223  0.0925
 3014TIP3    H130601   4.957   6.202   7.057 -0.0787  0.0603 -0.2476
 3014TIP3    H230602   4.890   6.096   6.973  1.1497 -0.8696 -0.0780
 3015TIP3   OH230603   0.433   0.893   1.255 -0.1266  0.0877  0.0202
 3015TIP3    H130604   0.494   0.958   1.290 -1.5685  0.1705  2.5889
 3015TIP3    H230605   0.359   0.944   1.223  0.3091 -0.1234 -1.3846
 3016TIP3   OH230606   1.631   1.481   6.105  0.5035 -0.5269  0.1580
 3016TIP3    H130607   1.559   1.509   6.162 -0.8240 -0.9273 -1.2610
 3016TIP3    H230608   1.600   1.400   6.065  0.6492  0.5554 -2.3567
 3017TIP3   OH230609   4.175   5.379   1.579  0.7800  0.4049  0.0144
 3017TIP3    H130610   4.167   5.369   1.674  0.1249 -0.0089 -0.0827
 3017TIP3    H230611   4.189   5.473   1.567 -0.0332  0.5967  0.4654
 3018TIP3   OH230612   6.478   6.452   7.734  0.1828 -0.1251 -0.5595
 3018TIP3    H130613   6.536   6.376   7.738 -0.1719 -0.3295  2.0144
 3018TIP3    H230614   6.525   6.514   7.678  1.4252 -1.4293 -1.0335
 3019TIP3   OH230615   2.585   4.022   6.958  0.4795 -0.4880 -0.7291
 3019TIP3    H130616   2.622   3.993   6.874 -0.2645 -1.3619 -0.7723
 3019TIP3    H230617   2.500   3.978   6.963 -0.0182  0.5153 -0.0687
 3020TIP3   OH230618   1.583   3.322   6.257  0.1377 -0.1855 -0.1865
 3020TIP3    H130619   1.522   3.291   6.191  0.1615  1.6844 -1.1464
 3020TIP3    H230620   1.644   3.379   6.210  0.1153  1.2721  1.4122
 3021TIP3   OH230621   3.641   2.373   2.724  0.0964 -0.0908 -0.1882
 3021TIP3    H130622   3.701   2.298   2.724  0.4411  0.1615 -1.3359
 3021TIP3    H230623   3.689   2.441   2.771  1.1728  0.4246 -1.9341
 3022TIP3   OH230624   3.632   2.590   6.750 -0.5688 -0.4586 -0.4539
 3022TIP3    H130625   3.680   2.657   6.702  1.5960 -1.7365 -0.1807
 3022TIP3    H230626   3.603   2.528   6.682 -1.4890  0.0650 -0.5628
 3023TIP3   OH230627   4.136   5.204   8.046 -0.8668 -0.5030  0.4359
 3023TIP3    H130628   4.165   5.130   8.100  0.1688  0.5277  1.3544
 3023TIP3    H230629   4.052   5.176   8.010  0.0623 -2.6042 -0.2366
 3024TIP3   OH230630   0.487   0.644   1.070 -0.1912 -0.2539  0.0747
 3024TIP3    H130631   0.396   0.626   1.047 -0.4326  1.0234 -0.0449
 3024TIP3    H230632   0.481   0.692   1.153  0.3781 -0.2223  0.0969
 3025TIP3   OH230633   3.243   1.240   8.182  0.4237 -0.6770 -0.5186
 3025TIP3    H130634   3.204   1.318   8.143 -0.8302 -1.4414 -0.8531
 3025TIP3    H230635   3.315   1.273   8.236  0.8277  0.5754 -1.7787
 3026TIP3   OH230636   1.425   4.767   6.688  0.6453 -0.3847 -0.2088
 3026TIP3    H130637   1.520   4.766   6.676  0.6855  2.2771 -0.9161
 3026TIP3    H230638   1.393   4.820   6.615 -1.0879  0.8966  1.3866
 3027TIP3   OH230639   4.910   1.118   6.865 -0.0579 -0.5806 -0.0457
 3027TIP3    H130640   4.881   1.057   6.798  3.1965 -2.5777  0.1397
 3027TIP3    H230641   4.937   1.197   6.817 -0.6691 -0.7888 -0.7297
 3028TIP3   OH230642   2.804   2.588   2.012  0.1565 -0.3338  0.3754
 3028TIP3    H130643   2.739   2.583   2.081 -0.2947  2.1416  0.2214
 3028TIP3    H230644   2.884   2.552   2.051 -0.8201 -1.7448  1.1504
 3029TIP3   OH230645   5.778   5.431   0.115 -0.6405  0.0274 -0.7644
 3029TIP3    H130646   5.857   5.433   0.169 -1.4057  1.5447  0.3874
 3029TIP3    H230647   5.711   5.396   0.174 -1.1683  0.2700 -1.2172
 3030TIP3   OH230648   0.840   3.326   8.139 -0.3434 -0.0747  1.0302
 3030TIP3    H130649   0.804   3.409   8.109 -1.2308  0.0719  2.4299
 3030TIP3    H230650   0.848   3.273   8.059 -0.4136  1.1016  0.2263
 3031TIP3   OH230651   1.205   6.420   1.813  0.0428 -0.3355 -0.1117
 3031TIP3    H130652   1.161   6.461   1.738  1.7788  0.1805 -0.9278
 3031TIP3    H230653   1.194   6.326   1.799 -0.7557 -0.2190 -0.3099
 3032TIP3   OH230654   3.796   0.673   7.962  0.8521  0.1111  0.4358
 3032TIP3    H130655   3.745   0.602   7.922  0.1428  1.9239 -2.1191
 3032TIP3    H230656   3.878   0.675   7.913  0.6407  1.3715  0.0914
 3033TIP3   OH230657   3.544   4.683   7.824  0.0212  0.8257 -0.1398
 3033TIP3    H130658   3.482   4.672   7.896  1.4321 -0.1530  0.9807
 3033TIP3    H230659   3.621   4.632   7.850  0.6215  0.5088 -2.3149
 3034TIP3   OH230660   2.756   4.663   2.032  0.4595 -0.0625  0.4614
 3034TIP3    H130661   2.726   4.728   1.968 -1.7548 -0.6485  0.7865
 3034TIP3    H230662   2.680   4.651   2.090  0.6870 -3.0337  0.3070
 3035TIP3   OH230663   4.293   5.203   7.126  0.5580 -0.9829 -0.0645
 3035TIP3    H130664   4.350   5.136   7.163  0.1166 -1.2973  0.0504
 3035TIP3    H230665   4.237   5.156   7.065 -0.9734 -1.0538  1.3307
 3036TIP3   OH230666   0.278   0.919   0.307 -0.1041  0.1706 -0.2457
 3036TIP3    H130667   0.271   1.009   0.275 -0.5721  0.4903  0.7358
 3036TIP3    H230668   0.196   0.902   0.353 -0.5120 -1.1607 -1.3676
 3037TIP3   OH230669   3.405   3.737   6.034  0.3818 -0.3538 -0.3416
 3037TIP3    H130670   3.489   3.706   6.000 -0.3377 -1.3011 -1.3070
 3037TIP3    H230671   3.382   3.674   6.102  0.6349  0.1362  0.2064
 3038TIP3   OH230672   0.044   2.977   8.162 -0.4271 -0.6134  0.1519
 3038TIP3    H130673   0.027   2.964   8.256  1.0380  0.2222  0.5587
 3038TIP3    H230674   0.097   3.056   8.158  0.6805 -1.3895 -1.2848
 3039TIP3   OH230675   6.752   4.613   7.007  0.7587 -0.1147 -0.0839
 3039TIP3    H130676   6.802   4.686   7.043 -0.4676  0.4637  0.5348
 3039TIP3    H230677   6.679   4.655   6.960  0.6272 -0.9275 -0.6331
 3040TIP3   OH230678   0.291   3.031   7.825  0.4270  0.1549  0.4378
 3040TIP3    H130679   0.289   2.973   7.749 -1.3446  0.8654 -0.1163
 3040TIP3    H230680   0.349   2.987   7.887 -0.4657 -1.9840 -0.1404
 3041TIP3   OH230681   4.313   0.302   0.850  0.3057  0.0870  0.1709
 3041TIP3    H130682   4.386   0.254   0.811 -0.0055 -0.4084  0.1900
 3041TIP3    H230683   4.341   0.393   0.850 -0.2273  0.3260 -2.4860
 3042TIP3   OH230684   0.523   2.889   1.296 -0.3103  0.0691  0.2555
 3042TIP3    H130685   0.485   2.852   1.217 -1.1197 -0.6543  0.9669
 3042TIP3    H230686   0.581   2.821   1.330 -1.9598 -0.7012  1.6760
 3043TIP3   OH230687   4.347   4.238   7.260 -0.3221  0.2211  0.5699
 3043TIP3    H130688   4.276   4.291   7.297  0.6234  1.7854  0.2224
 3043TIP3    H230689   4.327   4.234   7.166  1.1422  2.5950  0.0599
 3044TIP3   OH230690   3.402   0.276   1.327  0.4821 -0.3298  0.8465
 3044TIP3    H130691   3.443   0.216   1.265 -2.0121 -1.4945  0.2226
 3044TIP3    H230692   3.400   0.360   1.281  0.3876 -0.7320  0.0933
 3045TIP3   OH230693   5.617   2.598   0.908  0.3792  0.6475 -0.0369
 3045TIP3    H130694   5.564   2.658   0.960  0.8362  0.0242  1.1709
 3045TIP3    H230695   5.704   2.638   0.907  0.5831  0.2122  0.4133
 3046TIP3   OH230696   3.518   2.125   6.227 -0.6766  0.2336  0.5811
 3046TIP3    H130697   3.537   2.071   6.150 -2.8303  0.8649 -0.4624
 3046TIP3    H230698   3.454   2.189   6.197  0.0746  1.9474  2.3689
 3047TIP3   OH230699   2.887   5.886   1.302  0.5703 -0.4090  0.2048
 3047TIP3    H130700   2.968   5.835   1.292  0.1232 -1.3630  1.2587
 3047TIP3    H230701   2.835   5.837   1.364 -0.8910  0.1444 -0.5294
 3048TIP3   OH230702   4.742   0.981   0.997  0.1299  0.0091 -0.3745
 3048TIP3    H130703   4.813   0.919   1.013 -0.4007 -0.8164 -1.0727
 3048TIP3    H230704   4.785   1.062   0.972  0.8353 -0.7796 -1.8472
 3049TIP3   OH230705   3.838   1.935   7.402 -0.1375  0.2761  0.3832
 3049TIP3    H130706   3.903   1.899   7.462 -0.5205 -0.5492  0.3179
 3049TIP3    H230707   3.797   1.858   7.362  0.7730  0.7686 -1.6696
 3050TIP3   OH230708   4.937   4.583   1.295  0.0556 -0.1583  0.2181
 3050TIP3    H130709   5.019   4.571   1.247  0.8674  0.2143  1.4785
 3050TIP3    H230710   4.945   4.529   1.373 -0.3193  0.8955  1.0274
 3051TIP3   OH230711   4.549   0.859   6.804  0.0449  0.1123  0.3477
 3051TIP3    H130712   4.468   0.853   6.854 -0.3174 -2.8248 -0.4010
 3051TIP3    H230713   4.533   0.929   6.740 -2.3121 -1.0113 -0.3938
 3052TIP3   OH230714   3.084   2.089   1.123 -0.5625 -0.2159 -0.6286
 3052TIP3    H130715   3.060   2.029   1.194 -0.6112  0.2570 -0.2427
 3052TIP3    H230716   3.003   2.100   1.073 -0.6641 -0.1274 -0.4441
 3053TIP3   OH230717   2.225   4.103   6.859 -0.2181  0.6391 -0.2409
 3053TIP3    H130718   2.234   4.017   6.900 -1.2287  0.4028 -0.4945
 3053TIP3    H230719   2.306   4.149   6.882 -0.1505  0.0177  0.8109
 3054TIP3   OH230720   5.069   1.111   1.317 -0.4708 -0.2395 -0.3948
 3054TIP3    H130721   5.081   1.091   1.409  0.4493 -0.8469 -0.6294
 3054TIP3    H230722   4.974   1.112   1.304 -0.6536  0.9083  0.7668
 3055TIP3   OH230723   0.277   4.417   0.540 -0.6736  0.1906  0.1143
 3055TIP3    H130724   0.344   4.466   0.587  0.6590 -0.4013 -1.1096
 3055TIP3    H230725   0.274   4.457   0.453 -0.4708 -1.0539 -0.4903
 3056TIP3   OH230726   3.912   1.347   0.942 -0.3054  0.4631  0.4088
 3056TIP3    H130727   3.990   1.370   0.892 -1.4194  0.0978 -1.5958
 3056TIP3    H230728   3.857   1.425   0.937 -0.7526  0.1500  0.3936
 3057TIP3   OH230729   5.363   4.773   1.113  0.1791  0.2418 -0.3148
 3057TIP3    H130730   5.449   4.757   1.151  0.5412  0.0394 -1.2051
 3057TIP3    H230731   5.328   4.847   1.163  0.5556 -0.1342  0.5360
 3058TIP3   OH230732   4.865   5.633   7.332  0.6656  0.2305  0.2161
 3058TIP3    H130733   4.954   5.641   7.367  0.7294 -1.8894  0.6382
 3058TIP3    H230734   4.874   5.572   7.258 -0.3393  0.5817 -0.2074
 3059TIP3   OH230735   4.322   2.263   6.936  0.3159  0.3276 -0.0934
 3059TIP3    H130736   4.237   2.225   6.962 -0.0249  2.3825  2.1504
 3059TIP3    H230737   4.304   2.307   6.854 -0.7470  0.5401  0.2356
 3060TIP3   OH230738   1.617   4.265   7.894  0.1177  0.1691  0.1186
 3060TIP3    H130739   1.646   4.313   7.817  1.7855  0.8778  1.1332
 3060TIP3    H230740   1.524   4.247   7.878 -0.5522  3.5049 -0.4549
 3061TIP3   OH230741   0.006   4.563   8.122  0.3361 -0.5429 -0.2380
 3061TIP3    H130742   0.036   4.609   8.201  1.5304 -3.0138  0.8712
 3061TIP3    H230743  -0.080   4.527   8.146 -0.1197  0.2125 -0.7224
 3062TIP3   OH230744   1.149   6.622   6.250  0.2597 -0.1240 -0.6028
 3062TIP3    H130745   1.093   6.649   6.177  0.2752  1.8122  0.0442
 3062TIP3    H230746   1.223   6.683   6.247  1.3479 -1.3885 -0.2453
 3063TIP3   OH230747   4.957   3.692   7.503 -0.1178  0.2657  0.1351
 3063TIP3    H130748   5.048   3.720   7.502  0.2244 -0.7109  1.1495
 3063TIP3    H230749   4.931   3.689   7.411  0.1158  2.8385 -0.0706
 3064TIP3   OH230750   0.723   5.144   0.819  0.4376 -0.0810 -0.2701
 3064TIP3    H130751   0.813   5.135   0.787  0.7139  0.3926  0.3556
 3064TIP3    H230752   0.728   5.118   0.911 -0.0309  0.1357 -0.1820
 3065TIP3   OH230753   5.431   4.063   7.781  0.1256  0.0797 -0.3746
 3065TIP3    H130754   5.487   3.998   7.739 -0.5891 -0.5151 -0.4224
 3065TIP3    H230755   5.489   4.138   7.796  0.7372 -0.2174 -1.1509
 3066TIP3   OH230756   1.916   6.228   7.860  0.7019  0.2345  0.2635
 3066TIP3    H130757   1.832   6.257   7.895  0.1445 -1.0910  0.1012
 3066TIP3    H230758   1.899   6.139   7.829  1.8868  0.3737 -0.8338
 3067TIP3   OH230759   2.849   4.624   0.806  0.2815  0.0396  0.0098
 3067TIP3    H130760   2.829   4.539   0.765 -2.8378  1.1396 -1.0300
 3067TIP3    H230761   2.769   4.648   0.852  1.6807  1.6859  1.7277
 3068TIP3   OH230762   6.629   5.056   0.502 -0.0719 -0.1754 -0.0312
 3068TIP3    H130763   6.631   5.024   0.412 -0.4335  0.8768 -0.4253
 3068TIP3    H230764   6.721   5.051   0.531  0.3476  1.1580 -1.0778
 3069TIP3   OH230765   4.805   5.016   0.679  0.1991 -0.0911 -0.2643
 3069TIP3    H130766   4.797   5.105   0.645 -2.6529 -0.5814 -1.2108
 3069TIP3    H230767   4.822   5.027   0.773  1.1496  1.3914 -0.5793
 3070TIP3   OH230768   2.757   4.182   0.251  0.2471  0.5622  0.0041
 3070TIP3    H130769   2.701   4.259   0.244 -1.9240 -0.9890 -0.9597
 3070TIP3    H230770   2.744   4.135   0.168  1.0468 -1.0973  0.7570
 3071TIP3   OH230771   5.534   1.664   0.005 -0.6063 -0.0961  0.1604
 3071TIP3    H130772   5.619   1.628   0.030 -1.0216 -0.8269  0.5534
 3071TIP3    H230773   5.545   1.759   0.011  0.8927 -0.0523 -2.1316
 3072TIP3   OH230774   4.432   1.249   7.584  0.0166 -0.2664  0.1759
 3072TIP3    H130775   4.379   1.311   7.534 -0.4516  0.3775  1.4169
 3072TIP3    H230776   4.434   1.286   7.673 -0.7945 -2.3475  1.1128
 3073TIP3   OH230777   5.128   3.499   1.127  0.7031  0.5674  0.5493
 3073TIP3    H130778   5.101   3.590   1.139 -0.4883  0.8950 -3.2818
 3073TIP3    H230779   5.048   3.449   1.134  1.1756 -0.0755  1.5141
 3074TIP3   OH230780   1.996   1.937   7.250  0.3046 -0.7406  0.3476
 3074TIP3    H130781   1.957   1.873   7.190 -0.5314  0.7962 -0.8323
 3074TIP3    H230782   1.996   2.019   7.200 -0.2007  0.5494  2.3652
 3075TIP3   OH230783   1.497   4.037   7.381  0.9253  0.4538 -0.0049
 3075TIP3    H130784   1.554   4.025   7.457  1.0950  1.6515  0.0619
 3075TIP3    H230785   1.555   4.069   7.312  0.4933  0.8270 -0.1995
 3076TIP3   OH230786   6.966   1.101   1.282  0.1753  0.3177 -0.3794
 3076TIP3    H130787   6.880   1.142   1.284 -0.2723 -0.6139  1.2694
 3076TIP3    H230788   6.955   1.019   1.330  2.2863  0.8232  1.1177
 3077TIP3   OH230789   3.604   0.961   8.103  0.4780  0.7927 -0.0952
 3077TIP3    H130790   3.671   0.983   8.038  0.4406  1.0642 -0.0428
 3077TIP3    H230791   3.522   0.985   8.061  0.3206 -0.5243 -0.5795
 3078TIP3   OH230792   2.513   4.762   2.178  0.0967  0.0449 -0.0090
 3078TIP3    H130793   2.451   4.710   2.230 -1.4531  1.6418 -0.1741
 3078TIP3    H230794   2.457   4.812   2.119  1.7253 -0.4775 -2.0988
 3079TIP3   OH230795   5.485   6.744   6.955  0.0742 -0.0077  0.1273
 3079TIP3    H130796   5.393   6.717   6.962 -0.2826  1.2896  0.7041
 3079TIP3    H230797   5.509   6.724   6.864 -0.9252  0.0923 -0.1695
 3080TIP3   OH230798   2.499   6.481   1.908  0.4232  0.2735  0.4712
 3080TIP3    H130799   2.592   6.475   1.930  0.5025 -1.2934 -0.1132
 3080TIP3    H230800   2.496   6.470   1.813 -0.2665  1.9894  0.2594
 3081TIP3   OH230801   3.447   0.148   6.846 -0.1260  0.6295  0.1421
 3081TIP3    H130802   3.485   0.062   6.864  0.3886  0.8015 -0.0898
 3081TIP3    H230803   3.523   0.207   6.842 -0.2310  0.6959 -2.0473
 3082TIP3   OH230804   5.439   0.278   6.176 -0.2209  0.8527  0.2081
 3082TIP3    H130805   5.358   0.321   6.148  0.5931  1.4532 -1.3124
 3082TIP3    H230806   5.507   0.343   6.159  0.7699 -0.2262 -0.0060
 3083TIP3   OH230807   1.562   5.325   2.151 -0.3160 -0.0789 -0.2705
 3083TIP3    H130808   1.630   5.356   2.212 -1.6421  1.3082  0.5796
 3083TIP3    H230809   1.610   5.300   2.072  1.2476  0.1350  0.5712
 3084TIP3   OH230810   0.237   3.103   0.681  0.1039 -0.0323 -0.0843
 3084TIP3    H130811   0.144   3.117   0.697 -0.4540 -1.5173 -1.7732
 3084TIP3    H230812   0.245   3.097   0.586  2.1998  1.6972 -0.1020
 3085TIP3   OH230813   1.265   4.895   7.416  0.3876 -0.4908 -0.3979
 3085TIP3    H130814   1.319   4.816   7.419 -0.2377 -0.9494 -0.8872
 3085TIP3    H230815   1.287   4.936   7.332 -0.1917 -0.8115 -0.7147
 3086TIP3   OH230816   6.461   1.710   7.604 -0.0677 -0.1872 -0.1267
 3086TIP3    H130817   6.409   1.733   7.681 -0.1279 -0.3077 -0.1310
 3086TIP3    H230818   6.545   1.682   7.639  0.6266  1.6420 -0.1895
 3087TIP3   OH230819   1.000   5.296   1.741  0.4909  0.2837 -0.2720
 3087TIP3    H130820   0.993   5.214   1.693  2.3206 -1.1631  1.7002
 3087TIP3    H230821   1.093   5.302   1.765  0.2558  2.5311  0.3605
 3088TIP3   OH230822   3.241   2.284   7.203  0.0960  0.2372  0.0749
 3088TIP3    H130823   3.173   2.217   7.199  0.3124 -0.0335  0.8342
 3088TIP3    H230824   3.241   2.314   7.294  0.9216  0.3088  0.0614
 3089TIP3   OH230825   5.993   4.605   7.226 -0.7031 -0.0950  0.5206
 3089TIP3    H130826   6.082   4.640   7.221 -0.7594 -0.0640 -0.3900
 3089TIP3    H230827   5.937   4.682   7.236 -0.8831  0.2081 -2.1208
 3090TIP3   OH230828   2.474   4.949   0.850 -0.1549 -0.8462 -0.0019
 3090TIP3    H130829   2.417   4.983   0.782 -0.4026  0.6661  0.8997
 3090TIP3    H230830   2.562   4.951   0.811 -0.3918 -0.7539 -0.5396
 3091TIP3   OH230831   2.832   2.821   1.186  0.4331  0.1468  0.2642
 3091TIP3    H130832   2.792   2.905   1.210 -1.0006 -0.0421 -1.2734
 3091TIP3    H230833   2.758   2.759   1.185  1.5320 -1.2789  1.8352
 3092TIP3   OH230834   2.103   3.649   8.153 -0.1047  0.6368  0.3592
 3092TIP3    H130835   2.117   3.653   8.248 -2.0284  1.1353  0.6737
 3092TIP3    H230836   2.152   3.723   8.118 -2.6422  3.0824  1.5248
 3093TIP3   OH230837   1.074   4.755   8.325  0.7185 -0.4194 -0.5117
 3093TIP3    H130838   1.074   4.832   8.383 -0.1691 -1.0883  0.4144
 3093TIP3    H230839   0.982   4.736   8.310  0.8369 -2.6056  1.0783
 3094TIP3   OH230840   5.712   2.568   0.345  0.0153 -0.2132  0.1515
 3094TIP3    H130841   5.652   2.502   0.377 -0.3077  0.1686  0.3495
 3094TIP3    H230842   5.787   2.519   0.312 -0.2791 -0.6779  0.1685
 3095TIP3   OH230843   5.264   3.499   1.644 -0.2703 -0.0877  0.2842
 3095TIP3    H130844   5.278   3.579   1.695 -0.2360 -0.6391  1.1516
 3095TIP3    H230845   5.352   3.473   1.617 -0.3085  0.3241 -0.2465
 3096TIP3   OH230846   2.391   0.421   8.000  0.7098  0.1313 -0.3545
 3096TIP3    H130847   2.475   0.394   7.963  0.9490 -0.9686  0.8962
 3096TIP3    H230848   2.413   0.453   8.088  0.0015  1.3077 -0.5876
 3097TIP3   OH230849   1.150   0.280   2.144  0.1037  0.4342 -1.0255
 3097TIP3    H130850   1.224   0.340   2.152 -1.1237  1.7849  1.9033
 3097TIP3    H230851   1.119   0.269   2.234 -1.1732 -2.8334 -1.7101
 3098TIP3   OH230852   6.159   4.920   6.931  0.2202  0.1288 -0.0221
 3098TIP3    H130853   6.085   4.937   6.989  0.3656 -2.4402  1.0278
 3098TIP3    H230854   6.228   4.978   6.962 -1.0003  1.8937 -0.4333
 3099TIP3   OH230855   5.615   6.011   0.921 -0.1622  0.0899  0.2502
 3099TIP3    H130856   5.625   5.916   0.919 -1.3740 -0.0615  0.4975
 3099TIP3    H230857   5.658   6.037   1.002 -1.3670 -0.4826  1.1141
 3100TIP3   OH230858   5.093   1.736   1.726 -0.3380 -0.9552 -0.1878
 3100TIP3    H130859   5.036   1.767   1.796  0.0632 -0.2672 -0.1593
 3100TIP3    H230860   5.042   1.667   1.683 -1.1928 -0.3571 -0.1636
 3101TIP3   OH230861   0.166   1.275   8.236  0.9333 -0.2315 -0.0484
 3101TIP3    H130862   0.209   1.231   8.309  1.9518 -1.4896 -1.3528
 3101TIP3    H230863   0.235   1.331   8.199  0.2976  0.7380  0.1973
 3102TIP3   OH230864   4.551   0.672   0.540  0.2472 -0.0923 -0.3116
 3102TIP3    H130865   4.600   0.752   0.559 -0.3520  0.1097  0.4148
 3102TIP3    H230866   4.615   0.602   0.554  1.6307  0.3140 -3.6338
 3103TIP3   OH230867   5.229   1.884   7.679 -0.2718 -0.3578 -0.5776
 3103TIP3    H130868   5.171   1.944   7.632  0.1873 -0.3015 -1.0821
 3103TIP3    H230869   5.301   1.940   7.710 -1.9433  0.2161  2.7532
 3104TIP3   OH230870   3.411   1.698   6.499  0.1452 -0.7409  0.1471
 3104TIP3    H130871   3.380   1.788   6.490 -0.4815 -0.7274  1.9347
 3104TIP3    H230872   3.373   1.652   6.424 -0.7061  0.1895 -0.0172
 3105TIP3   OH230873   1.847   4.833   1.004 -0.7204 -0.0136  0.5481
 3105TIP3    H130874   1.863   4.905   0.943 -2.6368  0.6678  0.7658
 3105TIP3    H230875   1.808   4.875   1.081 -0.8572 -1.1599  1.1278
 3106TIP3   OH230876   2.266   5.498   0.843 -0.3547  0.2949 -0.7897
 3106TIP3    H130877   2.334   5.537   0.788 -0.2748 -0.6572 -1.3890
 3106TIP3    H230878   2.205   5.458   0.781 -0.4611 -0.4609 -0.2113
 3107TIP3   OH230879   4.967   4.320   0.010 -0.1614  0.0606 -0.0595
 3107TIP3    H130880   4.985   4.362  -0.074  0.5176 -1.8771 -0.9357
 3107TIP3    H230881   4.872   4.331   0.022 -0.2367  0.5259 -0.9804
 3108TIP3   OH230882   5.042   3.988   0.912 -0.9736  0.0391 -0.0526
 3108TIP3    H130883   5.087   4.069   0.936 -3.1771  1.7362 -1.2856
 3108TIP3    H230884   5.108   3.939   0.862  0.5096  0.8794  0.9948
 3109TIP3   OH230885   5.796   6.723   6.644  0.1255  0.2136  0.4011
 3109TIP3    H130886   5.703   6.744   6.642  0.2294  0.6434 -0.4727
 3109TIP3    H230887   5.839   6.805   6.621  0.7182 -0.0058  0.7182
 3110TIP3   OH230888   1.490   1.903   1.662 -0.0598  0.2108  0.4716
 3110TIP3    H130889   1.472   1.974   1.722 -1.2506  0.0190  0.3597
 3110TIP3    H230890   1.422   1.838   1.680 -0.0711 -0.1122 -0.6519
 3111TIP3   OH230891   6.451   3.446   7.553 -0.2753  0.7798 -0.5794
 3111TIP3    H130892   6.519   3.394   7.597  0.6628  1.2667 -1.4264
 3111TIP3    H230893   6.471   3.439   7.460 -2.1693 -0.1282 -0.9762
 3112TIP3   OH230894   0.880   5.631   6.633 -0.0518 -0.0340  0.8574
 3112TIP3    H130895   0.929   5.713   6.635 -1.1386  0.6228  2.2914
 3112TIP3    H230896   0.888   5.595   6.721 -1.5293 -0.2566  0.9349
 3113TIP3   OH230897   0.760   4.596   8.031  0.2820 -0.6202  0.1956
 3113TIP3    H130898   0.682   4.541   8.031 -0.6327  0.6354 -0.2936
 3113TIP3    H230899   0.832   4.534   8.018 -0.6862 -1.7299 -0.0909
 3114TIP3   OH230900   5.630   0.441   2.177 -0.0308 -0.0788 -0.2903
 3114TIP3    H130901   5.606   0.379   2.247 -1.2577 -0.3420 -0.9092
 3114TIP3    H230902   5.651   0.386   2.102 -1.4674  0.2212 -0.9495
 3115TIP3   OH230903   5.601   6.168   0.706 -0.1305 -0.1074 -0.2594
 3115TIP3    H130904   5.677   6.178   0.649  0.0583 -0.8015 -0.1282
 3115TIP3    H230905   5.636   6.128   0.786 -0.4462  0.5671  0.2322
 3116TIP3   OH230906   0.788   0.372   1.810  0.6084  0.0542 -0.1278
 3116TIP3    H130907   0.750   0.285   1.801  1.4207 -0.1974 -1.5668
 3116TIP3    H230908   0.780   0.393   1.903  0.5345 -1.6098  0.2725
 3117TIP3   OH230909   4.038   4.559   0.668 -0.4216  0.2544  0.2362
 3117TIP3    H130910   3.985   4.610   0.606  0.0753 -0.2654 -0.6404
 3117TIP3    H230911   4.128   4.576   0.641 -0.0446  1.8481  2.2631
 3118TIP3   OH230912   4.679   4.547   0.873 -0.7197  0.5077 -0.1410
 3118TIP3    H130913   4.655   4.469   0.923 -1.5285  0.6516 -0.2840
 3118TIP3    H230914   4.733   4.598   0.933 -1.4639  0.5526  0.5058
 3119TIP3   OH230915   6.807   3.597   0.139 -0.1645  0.1997  0.2329
 3119TIP3    H130916   6.823   3.668   0.200  2.5280 -1.0353  1.0918
 3119TIP3    H230917   6.816   3.517   0.191  0.6002 -0.8563 -1.4169
 3120TIP3   OH230918   1.505   5.325   7.657 -0.7084  0.7938  0.1702
 3120TIP3    H130919   1.551   5.242   7.668 -1.3770  0.4634  0.5080
 3120TIP3    H230920   1.473   5.322   7.566 -0.2176  0.9465 -0.0080
 3121TIP3   OH230921   4.124   2.149   6.443 -0.2903  0.0791 -0.0090
 3121TIP3    H130922   4.144   2.199   6.364 -0.0238  0.9618  0.5944
 3121TIP3    H230923   4.188   2.078   6.444 -0.0767  0.2621 -0.4019
 3122TIP3   OH230924   0.979   3.950   0.415 -0.4395  0.2310  0.1935
 3122TIP3    H130925   0.961   3.989   0.329 -1.9917 -0.1440  0.3314
 3122TIP3    H230926   0.900   3.967   0.466  0.7683  1.2005  1.8557
 3123TIP3   OH230927   3.915   3.666   1.782  0.3721 -0.1161  0.1378
 3123TIP3    H130928   3.867   3.641   1.860 -0.8001  2.9639  0.5191
 3123TIP3    H230929   3.903   3.761   1.775  4.1197  0.4381 -1.3066
 3124TIP3   OH230930   6.024   5.173   6.766 -0.8083  0.8372  0.0172
 3124TIP3    H130931   6.096   5.115   6.790 -1.4080 -0.0050 -0.1512
 3124TIP3    H230932   6.065   5.257   6.748  0.3346  0.0129 -1.4882
 3125TIP3   OH230933   6.545   2.567   1.055  0.4851  0.1116 -0.5341
 3125TIP3    H130934   6.486   2.634   1.090  0.1014  0.2298 -1.3911
 3125TIP3    H230935   6.525   2.489   1.106  1.9804  0.9882  1.5171
 3126TIP3   OH230936   1.354   6.226   1.593  0.4765 -0.3005  0.0809
 3126TIP3    H130937   1.385   6.136   1.598  0.5739 -0.2250  1.0542
 3126TIP3    H230938   1.433   6.279   1.610  0.3474 -0.0471 -0.1079
 3127TIP3   OH230939   6.614   2.264   7.690  0.0527  0.2367  0.5916
 3127TIP3    H130940   6.682   2.324   7.721  0.2545  0.4115 -0.1777
 3127TIP3    H230941   6.562   2.316   7.629 -0.3637 -0.0942  0.6624
 3128TIP3   OH230942   4.754   6.616   7.899  0.0146 -0.2588 -0.1876
 3128TIP3    H130943   4.730   6.703   7.930 -1.5478 -0.8919  0.5379
 3128TIP3    H230944   4.836   6.596   7.943 -1.1295 -0.3136  2.0760
 3129TIP3   OH230945   2.869   3.471   1.660 -0.2790 -0.4711  0.6888
 3129TIP3    H130946   2.954   3.477   1.703 -0.2142  1.3721  0.3771
 3129TIP3    H230947   2.819   3.545   1.695 -1.7217 -1.4287  0.7454
 3130TIP3   OH230948   3.472   3.091   0.371  0.2161  0.0481  0.1429
 3130TIP3    H130949   3.395   3.129   0.329  0.2876  0.0901  0.0488
 3130TIP3    H230950   3.537   3.085   0.301 -0.0434 -0.9703 -0.0287
 3131TIP3   OH230951   3.679   0.579   6.872 -0.0054 -0.0757  0.3233
 3131TIP3    H130952   3.757   0.575   6.816  0.0385  0.8923  0.2972
 3131TIP3    H230953   3.659   0.487   6.891 -1.6942 -0.7475 -3.5951
 3132TIP3   OH230954   1.653   6.234   6.563  0.1358 -0.2479 -0.1163
 3132TIP3    H130955   1.730   6.259   6.513 -1.0635 -1.0691 -2.5338
 3132TIP3    H230956   1.610   6.168   6.509 -3.2459  1.4934  0.1857
 3133TIP3   OH230957   3.064   3.870   7.526  0.1751 -0.5549 -0.2916
 3133TIP3    H130958   3.045   3.808   7.596 -0.1589 -0.1491 -0.0184
 3133TIP3    H230959   3.121   3.935   7.566  0.2785 -0.5218 -0.4927
 3134TIP3   OH230960   2.041   6.827   0.103 -0.2438  0.5217 -0.0600
 3134TIP3    H130961   2.036   6.744   0.056  0.6478 -0.3787  1.3681
 3134TIP3    H230962   2.012   6.892   0.039  1.7620 -0.5019 -2.1667
 3135TIP3   OH230963   1.052   4.194   7.790 -0.0525  0.1394 -0.2283
 3135TIP3    H130964   1.045   4.168   7.698  2.3639 -1.0302 -0.1873
 3135TIP3    H230965   1.080   4.285   7.787  0.8303 -0.1331 -0.7096
 3136TIP3   OH230966   0.337   2.346   6.461  0.2615  0.0139 -0.0988
 3136TIP3    H130967   0.258   2.292   6.455 -1.0794  1.7865  0.7125
 3136TIP3    H230968   0.401   2.301   6.405 -1.8450 -0.5665 -2.2379
 3137TIP3   OH230969   6.538   6.958   6.735 -0.3103  0.8148 -0.1166
 3137TIP3    H130970   6.491   6.993   6.811  0.0954  1.0924  0.0166
 3137TIP3    H230971   6.482   6.977   6.661 -1.7920 -1.4724  0.3248
 3138TIP3   OH230972   2.514   0.034   7.852 -0.4969  0.6285 -0.0348
 3138TIP3    H130973   2.538   0.125   7.867  0.8271  0.4689 -1.0396
 3138TIP3    H230974   2.422   0.029   7.880  0.3103  1.4459  3.1418
 3139TIP3   OH230975   6.705   2.711   7.322  0.3079  0.1542  0.0167
 3139TIP3    H130976   6.741   2.646   7.262 -0.4579 -0.2878  0.0279
 3139TIP3    H230977   6.733   2.795   7.285  1.9625 -0.1677  0.4277
 3140TIP3   OH230978   1.981   6.594   0.003 -0.2509  0.0905 -0.4049
 3140TIP3    H130979   1.964   6.543   0.082  1.8163  0.4011  0.3157
 3140TIP3    H230980   1.946   6.541  -0.068 -0.8575 -0.8908  0.6003
 3141TIP3   OH230981   3.591   0.685   1.263  0.1819 -0.2429 -0.0847
 3141TIP3    H130982   3.513   0.643   1.227 -0.3234 -0.0035  0.6956
 3141TIP3    H230983   3.661   0.663   1.201 -0.7526  0.6342 -1.5043
 3142TIP3   OH230984   5.761   0.132   2.204  0.1600  0.3210 -0.3396
 3142TIP3    H130985   5.717   0.177   2.132 -0.2866  0.0482 -0.2470
 3142TIP3    H230986   5.852   0.159   2.198  0.3371 -0.4628 -1.6082
 3143TIP3   OH230987   6.678   5.734   6.504  0.2147 -0.0916 -0.2020
 3143TIP3    H130988   6.693   5.778   6.420  1.3995 -1.0680 -0.5318
 3143TIP3    H230989   6.696   5.800   6.570 -0.7726  0.7040 -0.7104
 3144TIP3   OH230990   0.096   4.221   0.586 -0.3169  0.3977 -0.0274
 3144TIP3    H130991   0.149   4.301   0.593  0.7725 -0.1685 -1.3467
 3144TIP3    H230992   0.009   4.252   0.560 -0.1666  1.2040  0.3905
 3145TIP3   OH230993   1.573   3.686   0.811  0.3820  0.4006  0.2436
 3145TIP3    H130994   1.651   3.653   0.855  0.0283 -0.0911  0.5012
 3145TIP3    H230995   1.598   3.690   0.719  0.6935  0.2025  0.3174
 3146TIP3   OH230996   4.905   1.884   7.242  0.0729 -0.4190 -0.6826
 3146TIP3    H130997   4.999   1.903   7.228 -0.2005  0.7308 -1.1471
 3146TIP3    H230998   4.873   1.863   7.154  0.2035 -2.4050 -0.2812
 3147TIP3   OH230999   5.130   4.941   0.540 -0.4293  0.5361 -0.4487
 3147TIP3    H131000   5.190   4.867   0.526  0.8676  1.6021 -0.6468
 3147TIP3    H231001   5.055   4.921   0.483 -0.9925 -1.5474  0.8996
 3148TIP3   OH231002   2.716   6.240   0.404 -0.5266 -0.2567  0.2968
 3148TIP3    H131003   2.739   6.148   0.421 -2.1272 -0.7766 -0.2113
 3148TIP3    H231004   2.795   6.277   0.365  0.9473 -0.7809  2.5670
 3149TIP3   OH231005   6.549   0.450   0.934 -0.8419 -0.0016  0.1280
 3149TIP3    H131006   6.640   0.480   0.923 -1.0192 -0.0408 -1.9241
 3149TIP3    H231007   6.499   0.531   0.945 -0.3746 -0.0538  3.8502
 3150TIP3   OH231008   4.370   6.721   7.325  0.3425  0.0949  0.6344
 3150TIP3    H131009   4.276   6.711   7.310  0.2236 -0.5565  1.7650
 3150TIP3    H231010   4.411   6.652   7.272  0.0503 -0.8968  1.6707
 3151TIP3   OH231011   1.907   3.587   6.761 -0.3749  0.1806 -0.2566
 3151TIP3    H131012   1.968   3.565   6.691  0.0257  2.1760 -0.6087
 3151TIP3    H231013   1.856   3.660   6.725 -1.2536  0.1840  0.9561
 3152TIP3   OH231014   3.004   6.300   0.021  0.3692 -0.0730  0.5250
 3152TIP3    H131015   2.910   6.305   0.003  0.2793 -1.2941  0.5713
 3152TIP3    H231016   3.025   6.386   0.058 -0.1728  1.2102 -1.9202
 3153TIP3   OH231017   3.652   5.881   1.400 -0.7467 -0.5063  0.2026
 3153TIP3    H131018   3.725   5.943   1.392  0.7763 -2.2139  0.3803
 3153TIP3    H231019   3.593   5.923   1.463  0.1103  0.8660  0.1507
 3154TIP3   OH231020   4.984   5.220   6.956 -0.1976  0.2266  0.3548
 3154TIP3    H131021   4.917   5.158   6.928 -1.8989  2.6016 -1.2619
 3154TIP3    H231022   5.034   5.240   6.877  0.7136  0.4678  0.9776
 3155TIP3   OH231023   0.273   0.950   2.006  0.3643  0.3248  0.2295
 3155TIP3    H131024   0.359   0.980   2.036  0.4014  0.3913  0.0564
 3155TIP3    H231025   0.272   0.856   2.028  1.1518 -0.0694 -1.2653
 3156TIP3   OH231026   6.798   2.892   1.982 -0.3334  0.4160  0.0328
 3156TIP3    H131027   6.755   2.943   2.050 -1.2300 -0.2715 -0.0038
 3156TIP3    H231028   6.862   2.838   2.029  0.9017  1.8150  0.0300
 3157TIP3   OH231029   2.530   5.580   7.568  0.5753  0.1918 -0.1482
 3157TIP3    H131030   2.541   5.578   7.663 -0.6165 -1.7185 -0.0039
 3157TIP3    H231031   2.484   5.663   7.552 -1.2989 -0.5014  1.2531
 3158TIP3   OH231032   4.842   6.097   7.825 -0.4685  0.2331  0.0217
 3158TIP3    H131033   4.869   6.146   7.902 -0.5741 -0.3916  0.4605
 3158TIP3    H231034   4.774   6.038   7.857 -0.2352 -0.3065 -0.4699
 3159TIP3   OH231035   4.090   1.882   0.576  0.3777 -0.3425  0.1605
 3159TIP3    H131036   4.130   1.795   0.573 -0.9944 -1.0119  0.7127
 3159TIP3    H231037   4.165   1.942   0.587  1.1919 -1.6314  2.4399
 3160TIP3   OH231038   0.030   0.153   0.034  0.3960 -0.4280  0.0022
 3160TIP3    H131039   0.097   0.198   0.086  1.4980 -1.7677 -0.2029
 3160TIP3    H231040   0.044   0.060   0.053 -1.3434 -0.7514 -0.1496
 3161TIP3   OH231041   6.274   4.160   1.875 -0.0317 -0.5545 -0.1021
 3161TIP3    H131042   6.340   4.198   1.932 -0.5693  2.0096 -1.0442
 3161TIP3    H231043   6.272   4.218   1.799 -1.4580 -2.1246 -1.3350
 3162TIP3   OH231044   3.829   4.341   7.112  0.2986  0.7549 -0.0368
 3162TIP3    H131045   3.760   4.356   7.177 -0.7989 -0.2255 -0.9305
 3162TIP3    H231046   3.889   4.415   7.123  1.7868 -0.7952  4.0354
 3163TIP3   OH231047   1.373   1.955   0.560  0.1886  0.0804  0.2832
 3163TIP3    H131048   1.464   1.950   0.588  0.2167  1.3489  0.4791
 3163TIP3    H231049   1.378   1.959   0.464  0.3097 -0.3450  0.2711
 3164TIP3   OH231050   2.920   6.263   6.958  0.3017 -0.0874 -0.4008
 3164TIP3    H131051   2.986   6.206   6.999 -0.2315  0.7910  1.8376
 3164TIP3    H231052   2.970   6.338   6.925  0.6497 -0.3638 -0.5040
 3165TIP3   OH231053   1.493   2.647   1.180  0.0638  0.9707  0.2889
 3165TIP3    H131054   1.433   2.574   1.165 -0.5526  1.4233  0.5140
 3165TIP3    H231055   1.508   2.646   1.274  0.8761  0.5089  0.1663
 3166TIP3   OH231056   5.671   1.194   1.479  0.8062 -0.0060 -0.6999
 3166TIP3    H131057   5.598   1.248   1.508 -1.7156 -2.4260 -2.0340
 3166TIP3    H231058   5.701   1.149   1.558  0.6247  0.7547 -0.1896
 3167TIP3   OH231059   1.438   2.747   8.067 -0.6355 -0.1691  0.5724
 3167TIP3    H131060   1.450   2.803   7.991  1.5647 -1.6518 -0.2704
 3167TIP3    H231061   1.465   2.801   8.141 -0.0559  0.4023 -0.0419
 3168TIP3   OH231062   3.517   2.185   1.795  0.4304  0.2195 -0.2339
 3168TIP3    H131063   3.500   2.279   1.784 -0.0654  0.0148 -1.4617
 3168TIP3    H231064   3.463   2.144   1.727 -0.0789 -1.0252  0.8945
 3169TIP3   OH231065   0.008   1.467   7.542 -0.2152  0.0375 -0.4956
 3169TIP3    H131066  -0.030   1.541   7.494 -0.4445 -0.2816 -0.8058
 3169TIP3    H231067  -0.017   1.482   7.633 -0.1140  0.4348 -0.5316
 3170TIP3   OH231068   2.786   3.918   6.785 -0.8958 -0.2604  0.6189
 3170TIP3    H131069   2.843   3.841   6.782  1.0196  1.1177 -1.2424
 3170TIP3    H231070   2.839   3.986   6.825  0.3475  2.0278 -4.1074
 3171TIP3   OH231071   0.340   4.386   5.790 -0.1916  0.6485 -0.1732
 3171TIP3    H131072   0.422   4.388   5.740  0.8131  0.7906  1.4214
 3171TIP3    H231073   0.328   4.293   5.812 -0.0197  0.7369  0.2922
 3172TIP3   OH231074   2.789   6.055   1.074  0.6521  0.5189  0.0112
 3172TIP3    H131075   2.840   6.017   1.145  1.3184  1.2990 -0.0360
 3172TIP3    H231076   2.711   6.091   1.118  0.5039  0.0049  0.1838
 3173TIP3   OH231077   0.935   4.171   7.344 -0.3272 -0.1252  0.4226
 3173TIP3    H131078   0.944   4.240   7.278  1.9793  0.4550  1.2367
 3173TIP3    H231079   0.854   4.192   7.390 -1.0850  0.4336 -1.1076
 3174TIP3   OH231080   3.102   0.803   0.585 -0.5377  0.3036 -0.9177
 3174TIP3    H131081   3.053   0.792   0.503 -0.8848 -0.4858 -0.6077
 3174TIP3    H231082   3.167   0.732   0.584 -0.3490  0.4712 -0.6450
 3175TIP3   OH231083   1.262   0.399   0.708  0.1552  0.0385 -0.2985
 3175TIP3    H131084   1.313   0.422   0.630  1.7593 -0.0429  0.6916
 3175TIP3    H231085   1.281   0.468   0.771 -1.9750  0.6861 -0.2934
 3176TIP3   OH231086   2.414   6.630   2.762  0.4301 -0.2157 -0.2878
 3176TIP3    H131087   2.465   6.693   2.711  2.1027 -0.0289  1.4973
 3176TIP3    H231088   2.346   6.683   2.804  0.4471  0.0138 -0.5465
 3177TIP3   OH231089   4.619   5.320   0.655 -0.0088 -0.1168  0.6101
 3177TIP3    H131090   4.638   5.275   0.573 -1.5152  1.0736 -0.4583
 3177TIP3    H231091   4.705   5.347   0.688  0.5863  0.0346 -0.9773
 3178TIP3   OH231092   2.456   1.365   0.919  0.4188 -0.4407 -0.3901
 3178TIP3    H131093   2.480   1.430   0.854 -0.3344  0.2029 -0.0417
 3178TIP3    H231094   2.539   1.334   0.954  0.7775  0.7704 -0.1477
 3179TIP3   OH231095   6.672   0.214   7.416 -0.5338 -0.5408  0.7769
 3179TIP3    H131096   6.757   0.250   7.442  0.7618 -2.3032 -0.7024
 3179TIP3    H231097   6.671   0.226   7.321  0.1669 -4.4911  0.1090
 3180TIP3   OH231098   0.016   1.044   7.488 -0.1237  0.0334 -0.6302
 3180TIP3    H131099  -0.008   1.101   7.561 -0.1480 -0.4253 -0.2704
 3180TIP3    H231100   0.002   1.097   7.410  0.0226  0.5756 -0.2931
 3181TIP3   OH231101   5.707   4.644   6.826 -0.3227  0.4490 -0.4463
 3181TIP3    H131102   5.705   4.642   6.730  1.4705 -1.7805 -0.5231
 3181TIP3    H231103   5.781   4.588   6.850 -1.2858  0.1819  2.2703
 3182TIP3   OH231104   0.018   0.375   0.284 -0.2243  0.1942 -0.5235
 3182TIP3    H131105   0.051   0.465   0.289  0.9680 -0.2878  2.0287
 3182TIP3    H231106  -0.076   0.383   0.298 -0.2506  1.1085 -1.1528
 3183TIP3   OH231107   4.101   2.837   6.446 -0.0203  0.3580  0.1099
 3183TIP3    H131108   4.087   2.760   6.391  1.6448 -0.1715  0.3770
 3183TIP3    H231109   4.015   2.880   6.450 -1.2706 -2.0111  0.7696
 3184TIP3   OH231110   6.793   3.362   1.025 -0.4418  0.2481 -0.4565
 3184TIP3    H131111   6.746   3.417   0.962  0.8259 -0.9398 -2.5638
 3184TIP3    H231112   6.877   3.343   0.982 -1.2284 -4.3059 -0.5041
 3185TIP3   OH231113   4.252   2.398   1.279 -0.2815 -0.3147  0.1557
 3185TIP3    H131114   4.204   2.403   1.362 -0.0473 -2.0640  0.4530
 3185TIP3    H231115   4.191   2.355   1.219 -0.1512  0.1846 -0.3388
 3186TIP3   OH231116   4.859   0.482   1.346 -0.4660  0.4745  0.4272
 3186TIP3    H131117   4.868   0.553   1.410  1.8015 -1.2852  2.2722
 3186TIP3    H231118   4.784   0.431   1.377 -1.9058  1.7742 -0.7286
 3187TIP3   OH231119   2.560   5.440   8.116  0.4462 -0.3630  0.5248
 3187TIP3    H131120   2.602   5.431   8.202 -0.0025  1.5799  1.0017
 3187TIP3    H231121   2.466   5.442   8.135  0.2147 -2.2036 -0.2779
 3188TIP3   OH231122   1.374   3.014   1.019  0.5755 -0.2937  0.0090
 3188TIP3    H131123   1.362   3.108   1.003  0.2993 -0.4357 -0.6572
 3188TIP3    H231124   1.373   3.005   1.114  0.0074  0.3044  0.0626
 3189TIP3   OH231125   3.341   0.155   7.822 -0.6160 -0.0552  0.7088
 3189TIP3    H131126   3.364   0.135   7.731  2.1506  0.3197  1.2450
 3189TIP3    H231127   3.248   0.176   7.819 -0.3989  0.9267 -2.2039
 3190TIP3   OH231128   1.043   2.754   6.203  0.0758  0.1783 -0.1183
 3190TIP3    H131129   1.096   2.816   6.153 -2.0906  0.8384 -1.7432
 3190TIP3    H231130   1.057   2.779   6.294  0.4381  2.1043 -0.6528
 3191TIP3   OH231131   6.891   4.535   6.210  0.8846 -0.2004  0.2487
 3191TIP3    H131132   6.940   4.615   6.191  0.9318 -0.3133 -0.1101
 3191TIP3    H231133   6.943   4.491   6.278  1.1335 -0.1823  0.0700
 3192TIP3   OH231134   1.760   1.070   7.613  0.0745 -0.5856 -0.7494
 3192TIP3    H131135   1.849   1.040   7.592  1.1511  1.3640  0.7897
 3192TIP3    H231136   1.765   1.099   7.704 -2.4150 -1.3026 -0.3095
 3193TIP3   OH231137   2.833   1.874   7.086  0.1854 -0.4564 -0.3502
 3193TIP3    H131138   2.838   1.848   7.178  0.3884 -0.0517 -0.2505
 3193TIP3    H231139   2.739   1.877   7.068  0.1424 -0.3352 -0.1033
 3194TIP3   OH231140   5.616   6.206   7.134 -0.0321  0.5380 -0.0081
 3194TIP3    H131141   5.548   6.231   7.073  0.4170  1.0959 -0.2865
 3194TIP3    H231142   5.677   6.280   7.135  1.2917 -0.4868 -0.7940
 3195TIP3   OH231143   3.830   0.052   1.334  0.0333 -0.0468 -0.5099
 3195TIP3    H131144   3.827  -0.035   1.294 -1.4226  0.7434 -2.2706
 3195TIP3    H231145   3.738   0.075   1.347  0.4346  0.7985  0.9700
 3196TIP3   OH231146   0.364   5.569   1.728  0.3699 -0.0962 -0.4534
 3196TIP3    H131147   0.278   5.587   1.691  0.6998 -0.8292 -1.6372
 3196TIP3    H231148   0.358   5.479   1.760  0.9305 -0.4431 -1.2954
 3197TIP3   OH231149   1.105   5.895   1.285 -0.0044 -0.4602  0.0660
 3197TIP3    H131150   1.078   5.972   1.235 -0.6567 -0.8425 -0.1804
 3197TIP3    H231151   1.195   5.880   1.259  0.7733  1.3120  1.4918
 3198TIP3   OH231152   0.907   2.303   7.367  0.2852  0.0228 -0.3078
 3198TIP3    H131153   0.879   2.263   7.285  0.3063 -0.3459 -0.1351
 3198TIP3    H231154   0.859   2.255   7.435  1.2361 -0.5422 -0.0186
 3199TIP3   OH231155   1.713   3.844   8.340 -0.6564  0.5363  0.0692
 3199TIP3    H131156   1.649   3.776   8.317  1.7229 -1.6114 -0.5877
 3199TIP3    H231157   1.783   3.833   8.277  1.6501  0.9260  2.4098
 3200TIP3   OH231158   4.438   5.695   7.318  0.3427  0.0570 -0.5453
 3200TIP3    H131159   4.432   5.625   7.382  0.5348  0.5257  0.0009
 3200TIP3    H231160   4.527   5.731   7.330 -0.5278  1.9484  0.8852
 3201TIP3   OH231161   5.954   0.347   6.540  0.1006  0.2376  0.0648
 3201TIP3    H131162   6.031   0.377   6.588 -0.1268 -0.3064  0.7827
 3201TIP3    H231163   5.977   0.259   6.510 -0.5967 -0.3518  1.1654
 3202TIP3   OH231164   0.392   5.630   0.046 -0.4269 -0.1235  0.9949
 3202TIP3    H131165   0.311   5.583   0.024 -0.1021  1.0955 -3.7698
 3202TIP3    H231166   0.361   5.714   0.082 -1.3881  0.3965 -0.9236
 3203TIP3   OH231167   3.359   0.497   1.143  0.2519 -0.1943 -0.0285
 3203TIP3    H131168   3.273   0.526   1.171 -0.4424 -1.4925 -0.7254
 3203TIP3    H231169   3.372   0.538   1.058  1.0013  1.2086  0.7258
 3204TIP3   OH231170   4.251   2.391   8.352  0.1326 -0.4724 -0.0995
 3204TIP3    H131171   4.193   2.318   8.329  1.1707 -1.7112  1.0162
 3204TIP3    H231172   4.322   2.350   8.402  1.5612  1.0938 -0.7481
 3205TIP3   OH231173   1.176   2.562   6.780  0.4802 -0.1389 -0.2663
 3205TIP3    H131174   1.223   2.645   6.775 -0.7230  0.4845 -1.6450
 3205TIP3    H231175   1.142   2.547   6.692 -0.0392 -1.6812  0.1533
 3206TIP3   OH231176   1.524   2.429   7.013 -0.2223  0.9723 -0.4874
 3206TIP3    H131177   1.465   2.371   6.963  1.9381 -1.4626 -0.4245
 3206TIP3    H231178   1.597   2.373   7.038  0.3440  2.9067  2.7273
 3207TIP3   OH231179   4.866   0.561   2.051  0.5900 -0.5386 -0.0162
 3207TIP3    H131180   4.890   0.578   1.960  1.5933 -1.5435  0.0456
 3207TIP3    H231181   4.884   0.643   2.097  1.9316 -0.6168 -0.3732
 3208TIP3   OH231182   3.805   0.406   0.053 -0.3249  0.0505 -0.3055
 3208TIP3    H131183   3.785   0.363  -0.030 -1.6721  3.0692 -1.6719
 3208TIP3    H231184   3.781   0.498   0.039  2.7217  1.4102  2.2653
 3209TIP3   OH231185   0.248   1.180   7.088 -0.4661 -0.1925  0.9460
 3209TIP3    H131186   0.160   1.160   7.121 -1.0074  1.2914  0.4716
 3209TIP3    H231187   0.278   1.253   7.142  0.7827 -1.1247  1.5513
 3210TIP3   OH231188   4.784   1.362   0.639 -0.2488 -0.1445 -0.1620
 3210TIP3    H131189   4.840   1.426   0.682 -0.5883 -0.9499  1.5450
 3210TIP3    H231190   4.839   1.324   0.570  0.4363  0.8791 -0.2030
 3211TIP3   OH231191   1.354   6.708   1.133  0.1190  0.0867 -0.3214
 3211TIP3    H131192   1.385   6.743   1.050  1.0692  1.1728  0.4653
 3211TIP3    H231193   1.349   6.784   1.191  1.4164 -0.9148  1.2007
 3212TIP3   OH231194   0.260   3.104   0.407 -0.1319 -0.0987  0.0239
 3212TIP3    H131195   0.314   3.143   0.339 -0.9423 -0.8248 -1.0663
 3212TIP3    H231196   0.225   3.024   0.368  1.4577 -1.9954  2.1490
 3213TIP3   OH231197   3.596   5.286   1.092 -0.1462 -0.6409 -0.5313
 3213TIP3    H131198   3.687   5.261   1.080 -0.3806 -2.3813  0.9179
 3213TIP3    H231199   3.594   5.331   1.177 -0.7968 -1.6905  0.0314
 3214TIP3   OH231200   4.197   3.014   6.111  0.5292 -0.3403  0.1740
 3214TIP3    H131201   4.231   3.101   6.132 -0.5943 -0.5344  3.2282
 3214TIP3    H231202   4.218   2.961   6.187 -1.6372 -1.9207 -0.2365
 3215TIP3   OH231203   5.681   0.567   7.964  0.1206  0.1037 -0.4932
 3215TIP3    H131204   5.732   0.612   8.031 -0.1266 -0.6801  0.2414
 3215TIP3    H231205   5.715   0.477   7.964 -1.9939 -0.7960  0.8941
 3216TIP3   OH231206   5.463   4.878   0.489  0.5830 -0.3901 -0.6426
 3216TIP3    H131207   5.536   4.933   0.461  0.0176  0.0376 -1.3200
 3216TIP3    H231208   5.399   4.886   0.418  0.2431 -1.4517 -0.4661
 3217TIP3   OH231209   4.231   0.858   7.666  0.0038  0.0351  0.1448
 3217TIP3    H131210   4.251   0.948   7.692 -0.2020  0.1131  0.0317
 3217TIP3    H231211   4.287   0.805   7.722  0.0874  0.2310  0.2508
 3218TIP3   OH231212   6.488   4.176   7.870 -0.0131  0.4451 -0.2893
 3218TIP3    H131213   6.548   4.238   7.909 -0.5017  0.4952  0.4002
 3218TIP3    H231214   6.504   4.094   7.916 -0.0439  0.3024 -0.5288
 3219TIP3   OH231215   0.033   4.623   0.785  0.0025 -0.3117 -0.4061
 3219TIP3    H131216   0.127   4.639   0.776  0.1014 -0.4850  0.3130
 3219TIP3    H231217   0.007   4.674   0.862 -0.7763  0.8672 -1.4023
 3220TIP3   OH231218   4.962   5.767   8.129 -0.2622 -0.4921  0.1936
 3220TIP3    H131219   4.929   5.782   8.218 -1.9759 -3.4969  0.2073
 3220TIP3    H231220   4.885   5.736   8.080  0.7336  0.6286 -2.2859
 3221TIP3   OH231221   6.343   1.790   6.215  0.5851  0.0510 -0.4229
 3221TIP3    H131222   6.263   1.739   6.209  0.9881 -0.7839  0.7990
 3221TIP3    H231223   6.398   1.740   6.276  1.0707  1.8315  0.6653
 3222TIP3   OH231224   5.641   5.254   5.900  0.1759 -0.1428 -0.2462
 3222TIP3    H131225   5.576   5.191   5.869 -0.2513  0.5277 -0.7368
 3222TIP3    H231226   5.720   5.236   5.849 -0.7241  1.4185 -2.3295
 3223TIP3   OH231227   1.589   4.139   1.341 -0.4844  0.2611  0.7571
 3223TIP3    H131228   1.586   4.134   1.437  1.5854  5.2397  1.3954
 3223TIP3    H231229   1.676   4.106   1.318 -0.7995 -0.4808  0.6012
 3224TIP3   OH231230   6.437   3.973   8.091 -0.5014  0.2478  0.3554
 3224TIP3    H131231   6.457   4.007   8.178  2.5204  1.9814 -0.8632
 3224TIP3    H231232   6.481   3.888   8.088  0.2767  0.6512  0.1982
 3225TIP3   OH231233   5.099   3.349   7.341  0.2792  0.5346 -0.3041
 3225TIP3    H131234   5.018   3.362   7.292 -0.7174 -0.7253  0.9493
 3225TIP3    H231235   5.153   3.294   7.284  0.2426  1.2943 -1.0997
 3226TIP3   OH231236   5.035   2.242   1.629 -0.6920 -0.0511 -0.1480
 3226TIP3    H131237   4.964   2.178   1.638 -0.3523 -0.2585  1.2491
 3226TIP3    H231238   5.055   2.269   1.719  0.5047  0.5557 -0.5734
 3227TIP3   OH231239   3.360   2.544   1.148  0.5140  0.3344 -0.5084
 3227TIP3    H131240   3.313   2.610   1.097 -0.2077  0.8777  0.8130
 3227TIP3    H231241   3.306   2.465   1.142 -0.0998  0.6909  0.2407
 3228TIP3   OH231242   3.146   2.909   0.437  0.4643 -0.1798 -0.1229
 3228TIP3    H131243   3.134   2.831   0.382 -0.7019 -0.5800  0.6633
 3228TIP3    H231244   3.126   2.879   0.526 -0.6606  1.1534  0.1152
 3229TIP3   OH231245   3.023   0.821   0.300  0.3446  0.0601 -0.0566
 3229TIP3    H131246   3.017   0.735   0.341  1.9427  0.1149  0.3636
 3229TIP3    H231247   3.102   0.817   0.247  0.6754  1.3798  0.2878
 3230TIP3   OH231248   3.237   2.540   2.262  0.0619  0.1788 -0.1436
 3230TIP3    H131249   3.211   2.608   2.324  1.1475 -1.5462  2.3880
 3230TIP3    H231250   3.316   2.576   2.220  0.5080  0.6139  1.0071
 3231TIP3   OH231251   5.334   0.163   7.154  0.0796 -0.1462 -0.0944
 3231TIP3    H131252   5.386   0.155   7.074  1.5714 -2.5986  0.9883
 3231TIP3    H231253   5.302   0.074   7.170  0.2312  0.1631  2.2511
 3232TIP3   OH231254   4.902   0.384   1.042  0.2828 -0.1659  0.9371
 3232TIP3    H131255   4.944   0.298   1.038 -2.6247 -1.7132  0.4517
 3232TIP3    H231256   4.919   0.416   1.130  1.8349 -0.9571  0.9611
 3233TIP3   OH231257   2.480   3.627   0.103 -0.8731  0.3441 -0.6329
 3233TIP3    H131258   2.522   3.637   0.018 -1.0320 -0.8972 -0.8756
 3233TIP3    H231259   2.408   3.566   0.088  1.4771 -3.2661  1.0565
 3234TIP3   OH231260   3.222   3.090   0.254 -0.1251 -0.1362  0.2292
 3234TIP3    H131261   3.218   3.029   0.327 -1.6353 -0.9698 -0.5026
 3234TIP3    H231262   3.256   3.038   0.181 -0.6481  0.1044 -0.1942
 3235TIP3   OH231263   2.600   4.752   1.543 -0.2859 -0.4861 -0.0112
 3235TIP3    H131264   2.604   4.658   1.561 -0.2566 -0.2086  1.6241
 3235TIP3    H231265   2.573   4.791   1.626 -0.9538  0.9011 -0.8500
 3236TIP3   OH231266   3.420   1.120   0.749 -0.2793  0.3518  0.5198
 3236TIP3    H131267   3.503   1.167   0.750 -0.7574  1.2632 -0.2731
 3236TIP3    H231268   3.435   1.042   0.802  0.4926  1.4856  2.0418
 3237TIP3   OH231269   4.468   0.135   1.737  0.1353  0.2556  0.2695
 3237TIP3    H131270   4.387   0.185   1.740  1.4823  2.5766  0.6529
 3237TIP3    H231271   4.456   0.064   1.799 -2.3096 -0.6924 -1.1730
 3238TIP3   OH231272   2.651   4.792   1.115 -0.2003 -0.2077 -0.2163
 3238TIP3    H131273   2.556   4.802   1.109 -0.1479  0.4021 -0.1479
 3238TIP3    H231274   2.676   4.744   1.037 -0.6641 -1.1337  0.1899
 3239TIP3   OH231275   6.157   6.306   1.087 -0.4575  0.1591  0.0032
 3239TIP3    H131276   6.242   6.269   1.062 -0.2466  1.0036 -0.5587
 3239TIP3    H231277   6.139   6.268   1.173  0.9722  0.7325  0.5903
 3240TIP3   OH231278   2.746   1.182   7.193 -0.0732 -0.4646 -0.2368
 3240TIP3    H131279   2.778   1.266   7.160  1.4321 -0.2761  1.5415
 3240TIP3    H231280   2.808   1.117   7.161 -0.6104 -0.7634 -0.6906
 3241TIP3   OH231281   3.625   6.151   7.331  0.0003  0.5049  0.2730
 3241TIP3    H131282   3.629   6.150   7.427  0.0447 -0.9971  0.2934
 3241TIP3    H231283   3.534   6.128   7.311 -0.7721  3.5165 -0.0923
 3242TIP3   OH231284   1.502   0.828   1.589 -0.0392  0.4323  0.1494
 3242TIP3    H131285   1.557   0.904   1.610  1.3475 -0.6570  0.5680
 3242TIP3    H231286   1.459   0.807   1.671 -0.3798  0.7251  0.0476
 3243TIP3   OH231287   6.856   1.398   6.638  0.0092  0.1650 -0.5364
 3243TIP3    H131288   6.789   1.465   6.625 -0.5595 -0.1935  0.4031
 3243TIP3    H231289   6.817   1.319   6.601  1.4490  0.7011 -3.4018
 3244TIP3   OH231290   2.538   3.505   0.697 -0.1886  0.1559 -0.5029
 3244TIP3    H131291   2.551   3.482   0.789  0.6257  0.6366 -0.4891
 3244TIP3    H231292   2.446   3.531   0.691 -0.4748 -0.7169 -0.0144
 3245TIP3   OH231293   4.779   3.116   0.811 -0.2088 -0.5314 -0.3952
 3245TIP3    H131294   4.731   3.037   0.786 -2.1442  0.3510  0.3538
 3245TIP3    H231295   4.817   3.096   0.896 -1.7145 -0.2736  0.3593
 3246TIP3   OH231296   6.352   1.991   7.561  0.2215 -0.2057  0.1997
 3246TIP3    H131297   6.257   1.995   7.571  0.0757 -0.7229 -0.8341
 3246TIP3    H231298   6.377   1.906   7.598  0.5288  0.6735  2.1060
 3247TIP3   OH231299   6.640   2.643   0.439  0.4622 -0.2751 -0.1878
 3247TIP3    H131300   6.714   2.672   0.492 -0.7132  1.0704  0.7952
 3247TIP3    H231301   6.649   2.693   0.358 -0.3278  1.3088  0.6411
 3248TIP3   OH231302   0.089   0.146   7.022  0.5902 -0.5611 -0.2955
 3248TIP3    H131303   0.064   0.109   6.937  0.0006 -0.5978 -0.1086
 3248TIP3    H231304   0.076   0.240   7.012  1.6549 -0.4306 -0.6212
 3249TIP3   OH231305   1.637   1.145   2.073 -0.0491 -0.0307 -0.4714
 3249TIP3    H131306   1.723   1.112   2.100 -0.0423 -0.1363 -0.6209
 3249TIP3    H231307   1.575   1.101   2.131  0.0949  1.0700  0.5544
 3250TIP3   OH231308   4.944   2.773   2.335  0.2611 -0.1566 -0.2503
 3250TIP3    H131309   4.983   2.741   2.416  1.6007 -0.8243 -1.1190
 3250TIP3    H231310   4.861   2.813   2.362 -0.4432 -2.4019  1.1652
 3251TIP3   OH231311   1.095   5.330   0.838  0.6130 -0.4526  0.0185
 3251TIP3    H131312   1.033   5.289   0.779 -0.9444  1.0038  0.5736
 3251TIP3    H231313   1.066   5.421   0.845  3.1836  0.4613 -0.1732
 3252TIP3   OH231314   0.138   4.003   6.587  0.2748 -0.0025 -0.2076
 3252TIP3    H131315   0.160   4.076   6.645 -0.6900 -0.0141  0.1769
 3252TIP3    H231316   0.198   3.933   6.613  1.6243  0.8258 -0.9807
 3253TIP3   OH231317   2.648   3.123   6.209  0.4843  0.1910  0.3015
 3253TIP3    H131318   2.586   3.171   6.154  0.7580  0.5491  0.3024
 3253TIP3    H231319   2.599   3.047   6.239  1.1591 -1.6211 -2.7638
 3254TIP3   OH231320   5.170   4.555   1.689  0.0191  0.4715  0.2058
 3254TIP3    H131321   5.261   4.583   1.677 -0.2469  1.0132 -0.6002
 3254TIP3    H231322   5.120   4.636   1.697 -0.1871  0.1806  2.5236
 3255TIP3   OH231323   6.234   6.063   6.034 -0.1398 -0.3663  0.1689
 3255TIP3    H131324   6.283   6.137   6.071  1.3993 -1.7687  1.0992
 3255TIP3    H231325   6.184   6.028   6.108 -0.7081 -0.3911 -0.2202
 3256TIP3   OH231326   2.236   5.632   2.237  0.1843  0.1053 -0.2004
 3256TIP3    H131327   2.281   5.590   2.310  0.6117  0.5392 -0.2148
 3256TIP3    H231328   2.306   5.664   2.180 -0.1371  0.5053 -0.3777
 3257TIP3   OH231329   4.088   0.144   1.340  0.1122 -0.2926 -0.6340
 3257TIP3    H131330   4.116   0.104   1.257  0.6623 -3.2503  0.8293
 3257TIP3    H231331   3.999   0.112   1.353  0.5755 -1.1509  0.6054
 3258TIP3   OH231332   3.822   1.684   0.409  0.0847  0.0692 -0.2045
 3258TIP3    H131333   3.807   1.651   0.497 -1.0234 -0.6991 -0.6598
 3258TIP3    H231334   3.914   1.663   0.391  1.0590  2.3976  1.6352
 3259TIP3   OH231335   5.334   4.657   6.165 -0.2353  0.4122  0.1261
 3259TIP3    H131336   5.379   4.698   6.091  0.3377  0.7439  0.6509
 3259TIP3    H231337   5.330   4.564   6.141 -0.3319  0.5602 -0.4545
 3260TIP3   OH231338   2.682   1.222   1.037 -0.2326 -0.0265 -0.0626
 3260TIP3    H131339   2.708   1.193   0.950 -0.1496  2.5234 -0.9714
 3260TIP3    H231340   2.754   1.278   1.066  0.4474 -1.9825  2.3524
 3261TIP3   OH231341   5.374   6.352   0.800 -0.8100 -0.1633 -0.0947
 3261TIP3    H131342   5.343   6.390   0.719  0.0568 -0.0717 -0.4001
 3261TIP3    H231343   5.427   6.277   0.773 -1.8783 -1.1470  0.4646
 3262TIP3   OH231344   4.456   4.819   7.540  0.6215  0.5883 -0.1204
 3262TIP3    H131345   4.518   4.837   7.470 -0.5528 -0.0906 -1.3938
 3262TIP3    H231346   4.375   4.797   7.494 -0.2168  0.2610  1.4661
 3263TIP3   OH231347   3.573   2.515   7.799 -0.1920 -0.4568 -0.5547
 3263TIP3    H131348   3.511   2.577   7.762  0.2187  0.4195  0.2171
 3263TIP3    H231349   3.650   2.522   7.742  0.8793  1.7220  1.0252
 3264TIP3   OH231350   4.233   2.676   2.877 -0.5713  0.1246 -0.3348
 3264TIP3    H131351   4.200   2.766   2.876 -0.7388  0.0692  0.2784
 3264TIP3    H231352   4.167   2.626   2.827 -1.1167  0.1203  0.3806
 3265TIP3   OH231353   6.039   0.647   0.749 -0.1547 -0.2159  0.2826
 3265TIP3    H131354   6.079   0.600   0.823  1.1264  0.9372  0.3698
 3265TIP3    H231355   5.971   0.588   0.717  1.0934 -1.9479  0.6590
 3266TIP3   OH231356   6.459   4.258   1.127 -0.6629 -0.2458  0.1996
 3266TIP3    H131357   6.513   4.279   1.051  0.4781 -0.8710  0.8220
 3266TIP3    H231358   6.489   4.317   1.196  0.2270 -1.5237  0.9566
 3267TIP3   OH231359   4.573   5.587   1.912  0.5498 -0.0542  0.5605
 3267TIP3    H131360   4.495   5.548   1.951 -0.4401 -2.7093 -3.5144
 3267TIP3    H231361   4.635   5.515   1.904  1.4639  0.8331 -0.7963
 3268TIP3   OH231362   5.895   5.797   0.710  0.5104  0.3732  0.3155
 3268TIP3    H131363   5.869   5.839   0.792  0.7831 -0.6540  0.9421
 3268TIP3    H231364   5.952   5.861   0.668  0.6360  0.7838  1.0810
 3269TIP3   OH231365   1.866   5.779   6.224  0.1803  0.6018 -0.3621
 3269TIP3    H131366   1.782   5.810   6.258  0.7299  1.5447  0.1845
 3269TIP3    H231367   1.896   5.849   6.166  0.3441  0.0360 -0.9665
 3270TIP3   OH231368   1.899   0.829   0.009 -0.1916 -0.2456  0.6375
 3270TIP3    H131369   1.973   0.878   0.044  0.4895 -0.9269  0.1688
 3270TIP3    H231370   1.913   0.739   0.039 -1.5527 -0.1377  1.6873
 3271TIP3   OH231371   5.964   5.418   0.997  0.0482 -0.3303  0.0087
 3271TIP3    H131372   5.885   5.380   1.035  0.8087 -0.5678  1.4498
 3271TIP3    H231373   5.983   5.364   0.921 -1.3631 -0.0372 -0.5804
 3272TIP3   OH231374   0.235   4.135   6.818  0.1573  0.0727 -0.4240
 3272TIP3    H131375   0.212   4.225   6.794 -0.5255  0.6762  2.1676
 3272TIP3    H231376   0.330   4.137   6.830  0.2326  0.2635 -1.0238
 3273TIP3   OH231377   2.490   3.286   1.575 -0.3703  0.5781  0.2768
 3273TIP3    H131378   2.475   3.380   1.576 -1.4571  0.4204 -0.0453
 3273TIP3    H231379   2.511   3.265   1.485 -1.8287  0.2839 -0.0215
 3274TIP3   OH231380   3.064   4.127   1.193  0.6234 -0.3184 -0.0828
 3274TIP3    H131381   3.074   4.214   1.230  0.4233 -0.1304 -0.4589
 3274TIP3    H231382   2.970   4.120   1.173  0.2576 -1.4071  1.8430
 3275TIP3   OH231383   5.145   4.060   6.303 -0.2406 -0.1651 -0.1819
 3275TIP3    H131384   5.105   3.974   6.287 -0.7755 -0.3061  1.6668
 3275TIP3    H231385   5.081   4.107   6.355 -0.1597  1.5917 -1.6035
 3276TIP3   OH231386   2.623   1.102   6.257  0.0040  0.5858  0.1977
 3276TIP3    H131387   2.676   1.145   6.323 -0.4086 -0.0420  0.9451
 3276TIP3    H231388   2.674   1.110   6.176  0.2377  1.8818  0.4535
 3277TIP3   OH231389   1.296   5.796   2.150 -0.2895  1.3857  0.0649
 3277TIP3    H131390   1.277   5.797   2.244 -0.7648 -0.0330  0.0083
 3277TIP3    H231391   1.327   5.707   2.133  0.3009  1.7859 -1.0339
 3278TIP3   OH231392   5.180   6.219   1.907 -0.2751  0.3285 -0.2869
 3278TIP3    H131393   5.141   6.298   1.944 -1.0751 -0.0630 -0.2683
 3278TIP3    H231394   5.246   6.251   1.846 -0.6698  1.0176 -0.3658
 3279TIP3   OH231395   5.413   4.392   6.110  0.4308  0.5198 -0.0064
 3279TIP3    H131396   5.477   4.382   6.180  1.1454  0.0826 -0.7091
 3279TIP3    H231397   5.465   4.399   6.030 -0.3780  0.8364 -0.5151
 3280TIP3   OH231398   6.706   5.307   6.795  0.1367  0.1083  0.5383
 3280TIP3    H131399   6.745   5.226   6.830  1.0406 -0.4506 -1.5875
 3280TIP3    H231400   6.616   5.283   6.774 -0.0345  0.0936  1.2501
 3281TIP3   OH231401   4.487   1.218   8.213  0.1133  0.8507 -0.3329
 3281TIP3    H131402   4.523   1.135   8.180  3.5755  2.3685 -0.8175
 3281TIP3    H231403   4.415   1.239   8.154  1.5186 -0.0688 -2.4901
 3282TIP3   OH231404   4.455   3.997   1.889  0.0346 -0.0776 -0.3914
 3282TIP3    H131405   4.390   4.004   1.959  1.0949  1.1681  0.4971
 3282TIP3    H231406   4.491   4.085   1.881 -0.2736 -0.1130 -2.7493
 3283TIP3   OH231407   5.654   1.083   8.174 -0.1958  0.0209  0.2402
 3283TIP3    H131408   5.678   1.038   8.092 -0.8736  0.3347 -0.1381
 3283TIP3    H231409   5.558   1.084   8.173 -0.1999  1.3297  0.3173
 3284TIP3   OH231410   0.481   1.061   7.155 -0.2238 -0.4554 -0.8395
 3284TIP3    H131411   0.397   1.084   7.115 -0.6619 -1.8199 -0.7705
 3284TIP3    H231412   0.466   0.974   7.192  0.5052  0.2909  1.3263
 3285TIP3   OH231413   2.311   6.727   6.601  0.3638 -0.1250 -0.2269
 3285TIP3    H131414   2.316   6.649   6.546  1.1234 -0.0457 -0.2832
 3285TIP3    H231415   2.218   6.735   6.623  0.2673 -0.9966 -0.2839
 3286TIP3   OH231416   6.873   2.339   2.268  0.4265  0.5569 -0.1271
 3286TIP3    H131417   6.873   2.244   2.280  1.2540  0.6869  1.0646
 3286TIP3    H231418   6.965   2.362   2.258  0.1256  1.0457 -2.4038
 3287TIP3   OH231419   6.347   2.053   8.024 -0.5611 -0.0223 -0.2445
 3287TIP3    H131420   6.317   2.141   8.001  0.2837  0.0288 -1.2035
 3287TIP3    H231421   6.303   2.034   8.107 -0.5325  1.4157  0.1195
 3288TIP3   OH231422   1.186   3.573   6.540  0.0102 -0.7124 -0.0585
 3288TIP3    H131423   1.138   3.572   6.457  0.5577 -0.6898 -0.3808
 3288TIP3    H231424   1.261   3.631   6.524  1.0452 -1.9896 -0.0922
 3289TIP3   OH231425   3.406   5.030   7.603  0.4105 -0.1404  0.5720
 3289TIP3    H131426   3.473   5.016   7.669 -1.4137 -0.4140  2.4543
 3289TIP3    H231427   3.350   5.099   7.639 -0.1419  0.3301 -1.0894
 3290TIP3   OH231428   1.589   2.431   7.970  0.3414  0.1690  0.2424
 3290TIP3    H131429   1.501   2.449   8.004 -0.0974  0.6513 -1.0650
 3290TIP3    H231430   1.631   2.379   8.038 -1.2266 -0.7305  0.5708
 3291TIP3   OH231431   5.728   1.049   1.710 -0.1700 -0.2088  0.0296
 3291TIP3    H131432   5.745   0.955   1.696 -0.4368 -0.3341  0.5457
 3291TIP3    H231433   5.636   1.053   1.735 -0.2410  0.2269 -0.2888
 3292TIP3   OH231434   0.425   1.429   8.221 -0.5587 -0.1849 -0.0887
 3292TIP3    H131435   0.392   1.515   8.194 -1.4367 -0.5065 -0.0760
 3292TIP3    H231436   0.469   1.395   8.143 -1.2831 -0.2394 -0.4781
 3293TIP3   OH231437   4.920   0.661   1.544 -0.2332 -0.1023  0.1491
 3293TIP3    H131438   4.897   0.714   1.620  0.0799  1.0478 -0.5447
 3293TIP3    H231439   4.946   0.577   1.581  1.8774  1.0654  1.5024
 3294TIP3   OH231440   0.582   0.156   7.183 -0.6639 -0.3925 -0.1205
 3294TIP3    H131441   0.542   0.102   7.115  0.9361 -1.6913 -0.0842
 3294TIP3    H231442   0.624   0.094   7.242  2.2579  0.8383 -0.7168
 3295TIP3   OH231443   3.118   2.984   7.595 -0.0024  0.1286  0.2457
 3295TIP3    H131444   3.182   3.055   7.600  0.6853 -0.3308 -1.3363
 3295TIP3    H231445   3.171   2.905   7.579 -0.8340 -0.5563  0.7703
 3296TIP3   OH231446   0.512   4.915   0.457  0.1575 -0.0441 -0.2271
 3296TIP3    H131447   0.483   5.005   0.471  0.0642 -0.2262  0.8281
 3296TIP3    H231448   0.582   4.903   0.521  0.8601 -0.4105 -1.0462
 3297TIP3   OH231449   0.522   4.044   6.772  0.0033  0.2260 -0.2185
 3297TIP3    H131450   0.495   4.016   6.685  1.4294  0.6436 -0.8300
 3297TIP3    H231451   0.579   4.119   6.756 -0.4509  0.8940  1.1411
 3298TIP3   OH231452   0.771   3.328   1.980  0.0824 -0.2105  0.9531
 3298TIP3    H131453   0.837   3.371   1.926 -0.7903  0.9836  0.8013
 3298TIP3    H231454   0.738   3.398   2.037 -1.7698 -0.5151  0.3251
 3299TIP3   OH231455   2.363   4.671   0.775 -0.7154  0.1037  0.8628
 3299TIP3    H131456   2.306   4.713   0.840 -0.1406 -0.5443  1.8097
 3299TIP3    H231457   2.445   4.656   0.822 -0.1934 -0.1278 -0.1115
 3300TIP3   OH231458   0.889   3.251   1.466  0.1290 -0.2290  0.3855
 3300TIP3    H131459   0.962   3.280   1.520 -0.0597 -0.6824  0.9061
 3300TIP3    H231460   0.905   3.288   1.380  1.1220 -0.5648  0.4184
 3301TIP3   OH231461   0.598   2.055   7.164  0.3245 -0.2667  0.5514
 3301TIP3    H131462   0.569   1.964   7.166  0.6695 -0.3750  0.6963
 3301TIP3    H231463   0.534   2.100   7.108  0.7411 -0.8030 -0.3740
 3302TIP3   OH231464   3.303   3.700   7.474 -0.1734  0.1437  0.1138
 3302TIP3    H131465   3.230   3.676   7.531 -1.2053  0.0387 -1.2024
 3302TIP3    H231466   3.322   3.620   7.424 -0.6558  0.7641 -1.1170
 3303TIP3   OH231467   3.291   5.701   7.796 -0.3725 -0.4290 -0.3697
 3303TIP3    H131468   3.369   5.683   7.744 -0.4478 -0.2821 -0.5301
 3303TIP3    H231469   3.273   5.793   7.783  0.3978 -0.0497  0.9786
 3304TIP3   OH231470   5.121   3.582   0.608  0.1705  0.2858 -0.3834
 3304TIP3    H131471   5.160   3.507   0.565 -0.4170  0.4563 -1.2228
 3304TIP3    H231472   5.041   3.600   0.559 -0.2062  0.8479  0.4104
 3305TIP3   OH231473   0.881   4.991   6.990  0.3840 -0.0056  0.2948
 3305TIP3    H131474   0.903   4.993   7.083 -0.2759  1.6957  0.4444
 3305TIP3    H231475   0.955   5.034   6.947  2.8318 -4.4402 -0.5694
 3306TIP3   OH231476   2.422   0.686   8.189  0.3477  0.0023 -0.1517
 3306TIP3    H131477   2.444   0.627   8.260  1.9149  0.8880  0.1350
 3306TIP3    H231478   2.491   0.752   8.189  0.3501  0.1068 -2.4069
 3307TIP3   OH231479   0.157   6.837   0.574  0.1606 -0.1071 -0.3274
 3307TIP3    H131480   0.247   6.804   0.564 -0.0380 -0.5714 -0.6194
 3307TIP3    H231481   0.162   6.896   0.649  0.4692 -1.0509  0.4343
 3308TIP3   OH231482   6.236   5.615   5.942  0.0044 -0.0272 -0.1142
 3308TIP3    H131483   6.241   5.521   5.925 -0.3351 -0.2176  0.8023
 3308TIP3    H231484   6.307   5.653   5.889  0.4510 -0.8476 -0.1112
 3309TIP3   OH231485   1.425   3.810   1.573 -0.1967 -0.1650 -0.0301
 3309TIP3    H131486   1.338   3.773   1.556  0.3474 -2.2063  1.2111
 3309TIP3    H231487   1.472   3.740   1.619  2.7367  0.1871 -2.2206
 3310TIP3   OH231488   3.697   2.298   6.665 -0.0801 -0.4275  0.2433
 3310TIP3    H131489   3.611   2.275   6.701 -0.4734 -0.6382 -0.8172
 3310TIP3    H231490   3.752   2.310   6.743 -0.7060 -1.6573  0.9153
 3311TIP3   OH231491   5.482   2.218   1.050  0.3592  0.2340 -0.2150
 3311TIP3    H131492   5.417   2.189   0.986 -1.1315  0.0282  1.3246
 3311TIP3    H231493   5.492   2.144   1.109  3.5653 -0.5162 -1.5113
 3312TIP3   OH231494   0.875   4.781   1.629  0.4872 -0.3132  0.0033
 3312TIP3    H131495   0.793   4.735   1.613  0.6149 -0.3727 -0.4800
 3312TIP3    H231496   0.937   4.741   1.569  0.4583  0.9014 -0.8611
 3313TIP3   OH231497   5.132   3.960   0.378  0.0221 -0.4164 -0.0340
 3313TIP3    H131498   5.192   4.008   0.435 -0.5702 -1.5039  1.5657
 3313TIP3    H231499   5.092   4.028   0.323 -0.2432  0.8480  1.6474
 3314TIP3   OH231500   6.920   5.278   6.384 -0.1470  0.1663  0.4030
 3314TIP3    H131501   7.013   5.253   6.391 -0.3341 -0.2718  1.5649
 3314TIP3    H231502   6.920   5.373   6.391  0.1157  0.0765  1.9281
 3315TIP3   OH231503   5.346   4.397   8.196 -0.1632 -0.0054 -0.3202
 3315TIP3    H131504   5.322   4.304   8.196  0.9528 -0.3303 -1.8885
 3315TIP3    H231505   5.294   4.435   8.124  0.5796  0.2424 -0.7332
 3316TIP3   OH231506   0.690   0.442   0.596 -0.4057 -0.3857 -0.3179
 3316TIP3    H131507   0.711   0.434   0.503 -1.7460 -0.0835 -0.6745
 3316TIP3    H231508   0.670   0.535   0.608 -0.7867 -0.5203  0.1357
 3317TIP3   OH231509   1.552   4.521   0.500  0.1177 -0.1248  0.0348
 3317TIP3    H131510   1.619   4.483   0.558 -1.1554 -1.1798  0.8817
 3317TIP3    H231511   1.493   4.448   0.481 -1.2751  0.9735  0.0051
 3318TIP3   OH231512   6.462   2.913   0.501  0.4672  0.6497 -0.3300
 3318TIP3    H131513   6.476   2.824   0.535  2.2466  0.8950 -0.3011
 3318TIP3    H231514   6.425   2.899   0.413 -1.0991 -0.0478  0.4084
 3319TIP3   OH231515   0.741   5.902   7.052  0.2879  0.4527 -0.1845
 3319TIP3    H131516   0.820   5.878   7.100  0.4087  1.4733  0.1497
 3319TIP3    H231517   0.676   5.917   7.119  0.0319  0.4003 -0.4197
 3320TIP3   OH231518   2.562   0.567   7.170  0.0975  0.0874 -0.0185
 3320TIP3    H131519   2.593   0.567   7.080  1.8510  0.4063  0.5407
 3320TIP3    H231520   2.548   0.660   7.190  0.2112  0.0621  0.1835
 3321TIP3   OH231521   5.871   0.702   8.106  0.0268  0.1910 -0.8284
 3321TIP3    H131522   5.909   0.615   8.092 -1.6218 -0.5887 -0.7562
 3321TIP3    H231523   5.839   0.700   8.196 -2.2759 -0.0858 -1.5894
 3322TIP3   OH231524   4.644   3.267   8.015 -0.0651 -0.3469 -0.1156
 3322TIP3    H131525   4.651   3.355   8.052  0.9507 -0.1165 -0.8072
 3322TIP3    H231526   4.595   3.217   8.081  0.6589  0.3452  0.9806
 3323TIP3   OH231527   3.789   0.495   5.928  0.4275 -0.0646 -0.1552
 3323TIP3    H131528   3.773   0.539   6.011  0.2525 -1.0063  0.3282
 3323TIP3    H231529   3.705   0.500   5.881  1.1528  2.5456 -1.3284
 3324TIP3   OH231530   1.656   3.172   6.930 -0.1660 -0.0975  0.3671
 3324TIP3    H131531   1.586   3.159   6.867 -0.1485  1.3319  0.0270
 3324TIP3    H231532   1.677   3.265   6.925  0.9328 -0.2603  1.3320
 3325TIP3   OH231533   0.599   2.765   0.502  0.1879 -0.3817 -0.4006
 3325TIP3    H131534   0.633   2.855   0.506  0.1294 -0.3927  2.3898
 3325TIP3    H231535   0.605   2.741   0.409  0.9455  2.1994 -1.1085
 3326TIP3   OH231536   3.228   2.770   6.974  0.0073  0.0411 -0.1190
 3326TIP3    H131537   3.229   2.827   7.050  1.1188  2.1750 -1.6405
 3326TIP3    H231538   3.315   2.731   6.971 -0.8540 -2.1718  1.1218
 3327TIP3   OH231539   5.228   4.966   8.083  0.3262  0.1032  0.0590
 3327TIP3    H131540   5.184   5.003   8.160  0.3325 -0.8069  0.5069
 3327TIP3    H231541   5.159   4.918   8.037  0.2818  0.7768 -0.6102
 3328TIP3   OH231542   6.742   6.362   1.310  0.5700  0.2771  0.5176
 3328TIP3    H131543   6.648   6.362   1.296  0.6171  0.6144  0.1941
 3328TIP3    H231544   6.780   6.377   1.224  1.0204 -2.5087  0.1492
 3329TIP3   OH231545   6.428   0.066   6.985  0.1246  0.0147  0.1481
 3329TIP3    H131546   6.411   0.159   6.971  0.1164  0.2431  1.5541
 3329TIP3    H231547   6.482   0.063   7.064 -1.9789 -1.2890  1.6251
 3330TIP3   OH231548   4.817   5.475   6.149  0.1530  0.1032  0.5101
 3330TIP3    H131549   4.862   5.484   6.066  0.9834  0.4900  0.9904
 3330TIP3    H231550   4.844   5.388   6.181  1.3377  0.7015  1.2261
 3331TIP3   OH231551   4.114   0.996   6.590 -0.0097 -0.6691  0.0442
 3331TIP3    H131552   4.112   1.080   6.543  1.0913 -0.3475  0.5341
 3331TIP3    H231553   4.050   1.007   6.660  0.6247  0.0418  0.5331
 3332TIP3   OH231554   1.328   1.548   1.262 -0.2355  0.2999  0.0984
 3332TIP3    H131555   1.333   1.552   1.357 -0.7384  0.3713  0.1224
 3332TIP3    H231556   1.416   1.523   1.235 -0.8137 -2.8564  0.7338
 3333TIP3   OH231557   3.894   5.852   7.380  0.1814 -0.2300 -0.3841
 3333TIP3    H131558   3.962   5.919   7.375  0.0571 -0.0301  0.4479
 3333TIP3    H231559   3.940   5.773   7.409 -0.0210  0.0716  0.8474
 3334TIP3   OH231560   3.350   5.384   2.324 -0.5620 -0.4239  0.4314
 3334TIP3    H131561   3.328   5.311   2.267  0.6916  0.1450 -0.8585
 3334TIP3    H231562   3.285   5.451   2.305 -1.6298 -1.1201  1.5162
 3335TIP3   OH231563   3.863   1.022   7.047  0.1140 -0.0171  1.0371
 3335TIP3    H131564   3.863   0.929   7.026  0.3053  0.3036 -0.5242
 3335TIP3    H231565   3.915   1.028   7.128  1.0793 -1.1413  0.5349
 3336TIP3   OH231566   5.771   1.160   7.416 -0.0005  0.1647  0.0949
 3336TIP3    H131567   5.816   1.222   7.473  0.2402 -0.2998  0.4139
 3336TIP3    H231568   5.710   1.113   7.473 -1.3661  1.2113 -0.4485
 3337TIP3   OH231569   6.502   3.453   7.282 -0.2658 -0.4068  0.5458
 3337TIP3    H131570   6.514   3.547   7.295 -1.8674 -0.2193  0.8864
 3337TIP3    H231571   6.547   3.433   7.200  0.6122  0.5346  0.7876
 3338TIP3   OH231572   3.035   3.633   0.924  0.4590  0.1145 -0.2119
 3338TIP3    H131573   3.011   3.596   1.009  2.0391  1.2756  0.8002
 3338TIP3    H231574   3.007   3.724   0.928 -2.5663 -0.5601 -2.3246
 3339TIP3   OH231575   6.135   5.294   7.135  0.1990  0.6492  0.2746
 3339TIP3    H131576   6.125   5.340   7.052  0.8202  2.3091  1.0735
 3339TIP3    H231577   6.045   5.270   7.160  0.0424 -0.2399 -1.0371
 3340TIP3   OH231578   3.525   6.767   8.277 -1.0349  0.1712  0.0379
 3340TIP3    H131579   3.581   6.770   8.355 -1.5276  1.5039  0.3580
 3340TIP3    H231580   3.541   6.680   8.240  1.2795  0.5123  0.0746
 3341TIP3   OH231581   6.262   0.512   1.202  0.0039  0.2488  0.2093
 3341TIP3    H131582   6.192   0.475   1.255  0.3564  0.2790  0.7010
 3341TIP3    H231583   6.343   0.479   1.242  0.4209  2.7619  1.6747
 3342TIP3   OH231584   2.525   6.394   1.650  0.1268  0.2208  0.3440
 3342TIP3    H131585   2.563   6.319   1.695 -1.6617 -0.2485  1.1930
 3342TIP3    H231586   2.595   6.428   1.595  1.0756 -1.8901  0.1578
 3343TIP3   OH231587   0.605   3.017   7.055 -0.0518  0.3046  0.4578
 3343TIP3    H131588   0.649   2.974   6.982 -1.0840 -0.3630  0.2102
 3343TIP3    H231589   0.617   3.111   7.039 -1.9575  0.2728 -1.7237
 3344TIP3   OH231590   4.001   4.199   0.936 -0.1613  0.3906  0.3794
 3344TIP3    H131591   3.953   4.194   1.019 -0.4845  0.3158  0.1866
 3344TIP3    H231592   3.952   4.261   0.883 -0.0711  0.2808  0.1661
 3345TIP3   OH231593   4.510   1.410   7.795  0.3442 -0.4261  0.1763
 3345TIP3    H131594   4.497   1.504   7.782  0.5677 -0.6561 -1.9731
 3345TIP3    H231595   4.563   1.404   7.875  0.3299  1.2713  0.3448
 3346TIP3   OH231596   6.426   1.578   6.525 -0.8784 -0.2432  0.0344
 3346TIP3    H131597   6.478   1.498   6.523 -0.3540  0.0945  0.0003
 3346TIP3    H231598   6.357   1.563   6.460 -1.3545 -1.0405  0.7063
 3347TIP3   OH231599   6.932   2.357   8.267  0.0701  0.2653  0.6871
 3347TIP3    H131600   6.970   2.329   8.184  1.7211  0.3326  1.3895
 3347TIP3    H231601   6.871   2.427   8.244  1.4750  1.1788 -0.3475
 3348TIP3   OH231602   0.902   0.446   2.321  0.3369  0.4011 -0.6194
 3348TIP3    H131603   0.948   0.367   2.349 -0.6949 -0.3372 -0.9171
 3348TIP3    H231604   0.810   0.419   2.316  0.0541  1.4443 -1.3721
 3349TIP3   OH231605   6.003   4.811   7.473 -0.4916 -0.2262 -0.7020
 3349TIP3    H131606   6.062   4.765   7.415  0.0646 -0.2578 -0.1216
 3349TIP3    H231607   6.022   4.904   7.459 -0.3386 -0.2348 -0.5516
 3350TIP3   OH231608   5.341   4.606   0.004  0.3681  0.3326 -0.0781
 3350TIP3    H131609   5.287   4.584   0.080  1.5884 -1.1448  0.4077
 3350TIP3    H231610   5.350   4.524  -0.044  0.0933  1.1171 -1.5489
 3351TIP3   OH231611   1.364   3.244   2.283  0.6310 -0.0573  0.1468
 3351TIP3    H131612   1.397   3.168   2.332 -0.5774  0.8124  2.5020
 3351TIP3    H231613   1.282   3.213   2.244  0.4601 -0.1762  0.5827
 3352TIP3   OH231614   4.524   1.497   0.941 -0.1956  0.3689 -0.5059
 3352TIP3    H131615   4.608   1.536   0.918  0.6347 -0.8809  0.3019
 3352TIP3    H231616   4.538   1.403   0.933 -0.9957  0.0601  1.2692
 3353TIP3   OH231617   5.145   3.755   6.405  0.4179 -0.5141  0.7054
 3353TIP3    H131618   5.062   3.708   6.406 -0.9784  1.7583  1.9155
 3353TIP3    H231619   5.200   3.711   6.470 -0.6807 -0.7100  1.5146
 3354TIP3   OH231620   3.946   0.254   0.999  0.0595 -0.0793  0.2828
 3354TIP3    H131621   3.872   0.276   1.057 -0.5331 -2.0345  0.3485
 3354TIP3    H231622   3.936   0.160   0.982  1.8666 -0.1425 -0.6913
 3355TIP3   OH231623   6.939   3.080   0.714 -0.1034  0.5178  0.3523
 3355TIP3    H131624   6.851   3.107   0.688  0.5343  2.9564  0.5314
 3355TIP3    H231625   6.944   2.988   0.689 -2.7183  0.2915  0.4150
 3356TIP3   OH231626   2.754   5.356   6.334  0.0867  0.6585 -0.1883
 3356TIP3    H131627   2.737   5.345   6.241  1.4402 -0.7030 -0.3002
 3356TIP3    H231628   2.838   5.312   6.349 -0.3603  0.3845  1.7646
 3357TIP3   OH231629   2.408   4.963   6.487 -0.0636  0.3195  0.5489
 3357TIP3    H131630   2.499   4.952   6.516 -0.3985  0.5578  1.7626
 3357TIP3    H231631   2.413   5.020   6.411  0.7413  1.1804  1.2207
 3358TIP3   OH231632   5.190   6.918   7.138 -0.0901  0.4224  0.3123
 3358TIP3    H131633   5.237   6.883   7.213  2.1416 -0.4816 -1.3871
 3358TIP3    H231634   5.214   6.860   7.065 -0.5684  2.3721 -1.5050
 3359TIP3   OH231635   4.535   6.908   6.746  0.1005  0.1000  0.4043
 3359TIP3    H131636   4.616   6.906   6.796 -0.6443  0.7162  1.6816
 3359TIP3    H231637   4.513   7.001   6.739 -1.4441 -0.1203  1.7172
 3360TIP3   OH231638   3.441   6.139   1.502  0.2371  0.1469 -0.6848
 3360TIP3    H131639   3.501   6.070   1.531  0.1144 -1.2360 -3.3544
 3360TIP3    H231640   3.354   6.098   1.507 -0.5113  1.8134  2.2408
 3361TIP3   OH231641   0.463   6.272   1.698  0.3576  0.3109 -0.4571
 3361TIP3    H131642   0.511   6.272   1.615  1.3818 -1.9701  0.0647
 3361TIP3    H231643   0.377   6.308   1.675  0.6920 -0.0307 -2.4718
 3362TIP3   OH231644   6.230   4.684   6.527  0.2201 -0.0280 -0.5809
 3362TIP3    H131645   6.200   4.601   6.491  0.7120  0.2295 -1.6310
 3362TIP3    H231646   6.164   4.708   6.592 -1.9298  0.5706 -2.8496
 3363TIP3   OH231647   1.676   4.087   0.194 -0.2620 -0.0817 -0.1663
 3363TIP3    H131648   1.709   4.018   0.136 -0.3521  0.3792 -0.7736
 3363TIP3    H231649   1.736   4.160   0.182 -0.7897  0.3285 -0.3484
 3364TIP3   OH231650   4.733   1.642   0.825  0.3511 -0.0856  0.0711
 3364TIP3    H131651   4.768   1.698   0.894  0.7949  0.3885 -0.5338
 3364TIP3    H231652   4.791   1.566   0.825  1.2215  0.5631 -0.7275
 3365TIP3   OH231653   2.433   2.209   2.265  0.5238 -0.2535 -0.4846
 3365TIP3    H131654   2.467   2.297   2.251 -0.8237  0.2986 -0.4440
 3365TIP3    H231655   2.494   2.169   2.328  0.5350  1.0499  0.3775
 3366TIP3   OH231656   3.899   1.269   1.860  0.2051 -0.3665 -0.1540
 3366TIP3    H131657   3.831   1.336   1.846  0.5807 -0.1464 -0.9555
 3366TIP3    H231658   3.980   1.319   1.870  0.3898 -0.6761 -0.0939
 3367TIP3   OH231659   1.049   5.881   0.726  0.2144  0.0978 -0.3398
 3367TIP3    H131660   1.105   5.845   0.795 -0.8392  0.2508  0.6112
 3367TIP3    H231661   1.106   5.943   0.680  1.3411 -1.0241 -0.5236
 3368TIP3   OH231662   1.071   3.835   0.794 -0.3950 -0.2768 -0.2041
 3368TIP3    H131663   1.153   3.820   0.842 -0.0941  2.3780  0.2960
 3368TIP3    H231664   1.078   3.780   0.716  1.5154 -0.7190  0.2205
 3369TIP3   OH231665   1.274   4.235   6.464  0.3654 -0.1232  0.4655
 3369TIP3    H131666   1.304   4.199   6.548  0.8206  0.6070  0.6193
 3369TIP3    H231667   1.344   4.294   6.437 -1.3675  2.5413  1.3832
 3370TIP3   OH231668   2.107   0.290   6.978 -0.2328 -0.2774  0.8186
 3370TIP3    H131669   2.061   0.374   6.968  0.1682  0.1854  2.5599
 3370TIP3    H231670   2.125   0.262   6.888  0.8741  2.2020  0.1853
 3371TIP3   OH231671   3.991   1.376   6.821  0.3048 -0.2629 -0.1712
 3371TIP3    H131672   4.027   1.320   6.753 -0.0383 -0.2291 -0.3836
 3371TIP3    H231673   3.896   1.373   6.807  0.2931  0.4947 -0.2806
 3372TIP3   OH231674   3.044   2.077   7.208  0.2544  0.2041  0.2317
 3372TIP3    H131675   3.029   2.064   7.302  2.6005  0.5515  0.7384
 3372TIP3    H231676   3.035   1.990   7.170 -0.7274  0.0610  0.7819
 3373TIP3   OH231677   1.489   3.156   6.698  0.3063  0.3939 -0.4984
 3373TIP3    H131678   1.514   3.111   6.617  0.4556 -0.0572 -0.2023
 3373TIP3    H231679   1.434   3.093   6.744 -2.1029  1.6505 -1.5040
 3374TIP3   OH231680   1.796   5.670   0.018 -0.3825 -0.4661 -0.0055
 3374TIP3    H131681   1.791   5.699  -0.073 -0.4638 -1.1578 -0.2344
 3374TIP3    H231682   1.773   5.747   0.069  2.4119  0.7563 -0.4087
 3375TIP3   OH231683   6.986   3.239   1.782 -0.6880 -0.3452 -0.3732
 3375TIP3    H131684   6.989   3.155   1.736 -0.9677 -0.7580  0.3486
 3375TIP3    H231685   6.984   3.216   1.875  0.3770  0.4797 -0.1160
 3376TIP3   OH231686   2.419   0.997   7.481 -0.8691  0.2955 -0.4709
 3376TIP3    H131687   2.453   0.979   7.394 -1.3032  0.6338 -0.7184
 3376TIP3    H231688   2.350   1.062   7.466 -0.6250  0.7062  0.1771
 3377TIP3   OH231689   2.653   3.572   6.977  0.0011 -0.6407 -0.1764
 3377TIP3    H131690   2.610   3.566   6.891  0.0138  1.6649 -0.4104
 3377TIP3    H231691   2.747   3.568   6.957  0.0453  1.1644 -0.4512
 3378TIP3   OH231692   1.311   3.905   6.821  0.0581 -0.0286  0.1178
 3378TIP3    H131693   1.295   3.998   6.804 -0.6141 -0.1042  0.3448
 3378TIP3    H231694   1.340   3.871   6.736 -0.7188  0.1685 -0.2365
 3379TIP3   OH231695   6.112   6.021   7.212 -0.1689 -0.5126  0.0168
 3379TIP3    H131696   6.069   5.980   7.137 -2.9215  0.8167  0.7235
 3379TIP3    H231697   6.161   6.094   7.175  0.7931 -1.5102 -0.7344
 3380TIP3   OH231698   2.693   2.706   0.451  0.3642  0.5321  0.0835
 3380TIP3    H131699   2.665   2.692   0.361  0.2882 -0.6796  0.2791
 3380TIP3    H231700   2.648   2.638   0.501  2.3704 -0.4396  0.6633
 3381TIP3   OH231701   2.837   3.638   7.646  0.4909  0.1869 -0.0514
 3381TIP3    H131702   2.809   3.690   7.571  0.9150 -0.2794 -0.5375
 3381TIP3    H231703   2.825   3.697   7.721 -1.4628  0.1184 -0.2628
 3382TIP3   OH231704   1.844   0.339   1.255  0.2082 -0.1663  0.3101
 3382TIP3    H131705   1.749   0.348   1.265  0.1293 -0.6038 -0.0020
 3382TIP3    H231706   1.871   0.277   1.323  0.3203  0.2060  0.6068
 3383TIP3   OH231707   3.869   3.558   0.544  0.0654 -0.1420 -0.0205
 3383TIP3    H131708   3.951   3.575   0.591  1.5431  1.0795 -2.7540
 3383TIP3    H231709   3.878   3.468   0.513  0.8262  0.2422 -0.9932
 3384TIP3   OH231710   5.979   2.385   1.038 -0.1802  0.1830 -0.2219
 3384TIP3    H131711   6.006   2.414   0.950 -0.4726  0.7586 -0.1304
 3384TIP3    H231712   5.889   2.353   1.026 -1.4675  3.2148  0.3924
 3385TIP3   OH231713   2.461   6.656   7.045 -0.0133 -0.3130  0.2281
 3385TIP3    H131714   2.457   6.731   7.105  0.3420  0.3990 -0.6051
 3385TIP3    H231715   2.507   6.588   7.094  0.0917  0.1900  0.8372
 3386TIP3   OH231716   3.575   6.770   0.348 -0.2428 -0.0819 -0.0770
 3386TIP3    H131717   3.562   6.677   0.330 -1.9314  0.3247 -1.1578
 3386TIP3    H231718   3.552   6.780   0.440 -1.1080 -0.5552 -0.2358
 3387TIP3   OH231719   3.067   1.670   7.730  0.6694  0.2306 -0.2539
 3387TIP3    H131720   2.984   1.709   7.757  0.4465 -0.8257  0.6929
 3387TIP3    H231721   3.110   1.645   7.812  1.3247 -0.4396 -0.7795
 3388TIP3   OH231722   5.051   5.179   0.407  0.0646 -0.6678  0.3074
 3388TIP3    H131723   5.099   5.261   0.397  0.6209 -1.2750 -3.8846
 3388TIP3    H231724   5.116   5.118   0.441  0.7577 -0.2398 -0.2210
 3389TIP3   OH231725   5.200   2.210   8.011 -0.3730 -0.1278 -0.5372
 3389TIP3    H131726   5.228   2.256   7.932 -1.8838  0.0754 -0.9836
 3389TIP3    H231727   5.105   2.217   8.011 -0.3766  1.1625  2.0546
 3390TIP3   OH231728   2.076   1.109   7.677 -0.3748  0.5284  0.2486
 3390TIP3    H131729   2.144   1.171   7.702  0.5346 -0.2117 -0.3402
 3390TIP3    H231730   2.114   1.023   7.694 -1.2747  0.1012  0.1839
 3391TIP3   OH231731   4.466   2.280   7.800  0.3118  0.3027  0.0020
 3391TIP3    H131732   4.383   2.240   7.775 -0.2039  0.7973  0.8501
 3391TIP3    H231733   4.509   2.300   7.717 -1.1407  1.5173 -0.5158
 3392TIP3   OH231734   5.516   3.419   1.792 -0.2496 -0.4249  0.1371
 3392TIP3    H131735   5.585   3.482   1.772 -0.4242 -0.3690 -0.3104
 3392TIP3    H231736   5.484   3.444   1.879  0.9070 -1.0130  0.7428
 3393TIP3   OH231737   6.969   3.127   7.324 -0.4848 -0.1293 -0.9680
 3393TIP3    H131738   6.970   3.217   7.355  0.3500 -0.0565 -1.1620
 3393TIP3    H231739   7.046   3.121   7.267  2.3621 -2.1520  2.6394
 3394TIP3   OH231740   4.199   5.639   1.474 -0.6588 -0.7920 -0.3720
 3394TIP3    H131741   4.201   5.733   1.493 -0.0377 -1.0314  0.8747
 3394TIP3    H231742   4.182   5.634   1.380 -1.3321  0.5514 -0.3510
 3395TIP3   OH231743   3.968   5.458   8.233  0.1129  0.1188  0.2774
 3395TIP3    H131744   3.964   5.472   8.138 -1.3404  2.4868  0.6066
 3395TIP3    H231745   4.018   5.533   8.266 -1.9916  1.0418  1.5899
 3396TIP3   OH231746   6.492   1.226   0.007  0.0352  0.6336  0.0442
 3396TIP3    H131747   6.420   1.201  -0.051 -0.4365  2.0361  0.0040
 3396TIP3    H231748   6.456   1.218   0.095  1.1529 -2.8549  0.3562
 3397TIP3   OH231749   3.662   5.589   6.910 -0.4604  0.2604  0.7244
 3397TIP3    H131750   3.653   5.684   6.899 -0.8284  0.1126 -0.4350
 3397TIP3    H231751   3.635   5.553   6.826  1.9348 -0.7647  0.2983
 3398TIP3   OH231752   1.764   0.793   0.793 -0.5386 -0.7468  0.0224
 3398TIP3    H131753   1.778   0.888   0.793 -1.7098 -0.5419  1.2806
 3398TIP3    H231754   1.762   0.769   0.886  0.4375 -2.1332 -0.2832
 3399TIP3   OH231755   6.249   5.212   1.697 -0.1455  0.3093 -0.6728
 3399TIP3    H131756   6.267   5.287   1.640  0.1061 -0.3136 -1.4346
 3399TIP3    H231757   6.154   5.203   1.696 -0.0959 -0.1903 -1.6579
 3400TIP3   OH231758   6.920   4.146   6.250  0.3702 -0.0533 -0.7370
 3400TIP3    H131759   6.828   4.159   6.228  0.8118  1.9897 -1.6418
 3400TIP3    H231760   6.935   4.204   6.325  0.6868 -1.2015  0.1133
 3401TIP3   OH231761   1.964   3.059   7.528  0.1195 -0.4848  0.5088
 3401TIP3    H131762   2.001   2.996   7.591 -0.2963 -0.3198  0.9242
 3401TIP3    H231763   1.977   3.018   7.443  1.5034 -0.3124  0.6184
 3402TIP3   OH231764   2.348   1.654   1.903  0.2485  0.4964 -0.2163
 3402TIP3    H131765   2.267   1.633   1.857  0.9677  0.4538 -1.4938
 3402TIP3    H231766   2.328   1.635   1.995 -0.0863 -3.0791 -0.8809
 3403TIP3   OH231767   4.715   2.073   1.505 -0.4944 -0.1109 -0.4589
 3403TIP3    H131768   4.624   2.098   1.515 -0.6012 -0.9539  0.9355
 3403TIP3    H231769   4.754   2.089   1.591  1.0376  1.5546 -1.3800
 3404TIP3   OH231770   2.393   5.735   2.029 -0.1030  0.1940  0.0318
 3404TIP3    H131771   2.447   5.774   1.960  0.7038  0.5086  0.8297
 3404TIP3    H231772   2.399   5.796   2.102  0.8798 -1.2123  1.1789
 3405TIP3   OH231773   3.669   2.521   7.306  0.1118  0.1939 -0.4912
 3405TIP3    H131774   3.719   2.524   7.388 -0.2316 -2.8655 -0.0518
 3405TIP3    H231775   3.713   2.584   7.249  0.1293  2.7637  2.0783
 3406TIP3   OH231776   4.292   0.394   6.395  0.0215  0.0047 -0.5889
 3406TIP3    H131777   4.369   0.385   6.450 -0.0907 -0.9561 -0.5665
 3406TIP3    H231778   4.273   0.305   6.365 -1.4767  0.1088 -0.0378
 3407TIP3   OH231779   6.054   4.796   6.712 -0.0680  0.1584  0.3280
 3407TIP3    H131780   6.083   4.833   6.796 -0.4743 -0.8475  0.9157
 3407TIP3    H231781   5.962   4.818   6.706  0.0008  0.3836  0.0510
 3408TIP3   OH231782   3.247   3.861   7.261  0.3842 -0.5549  0.2451
 3408TIP3    H131783   3.206   3.945   7.280 -1.6484 -1.3537 -0.3364
 3408TIP3    H231784   3.255   3.818   7.346 -0.3083 -0.5061  0.3391
 3409TIP3   OH231785   2.133   5.467   6.812 -0.1203  0.6872 -0.3361
 3409TIP3    H131786   2.218   5.507   6.829  0.7943 -0.6812 -1.4614
 3409TIP3    H231787   2.151   5.399   6.747 -1.8522 -0.5371  0.3794
 3410TIP3   OH231788   0.419   5.334   6.992 -0.2362 -0.1914 -0.4277
 3410TIP3    H131789   0.499   5.283   6.995  0.9715  1.6225 -0.2138
 3410TIP3    H231790   0.363   5.295   7.059  1.5056  0.1171  1.3069
 3411TIP3   OH231791   5.955   1.459   8.156  0.1631  0.3851  0.0513
 3411TIP3    H131792   5.872   1.425   8.190 -0.8159  3.1140  0.7434
 3411TIP3    H231793   5.928   1.524   8.090  1.7518  1.0148 -0.0200
 3412TIP3   OH231794   1.685   1.631   6.673 -0.6807 -0.5483  0.1396
 3412TIP3    H131795   1.625   1.568   6.633  0.2410 -0.6184 -1.2009
 3412TIP3    H231796   1.683   1.707   6.614  0.6291 -0.6091 -0.0081
 3413TIP3   OH231797   1.952   0.089   1.349  0.7466 -0.2139 -0.1335
 3413TIP3    H131798   1.943   0.001   1.386 -0.3917  0.1841  0.5641
 3413TIP3    H231799   2.029   0.126   1.393  1.2031 -0.8250 -0.3960
 3414TIP3   OH231800   5.328   2.400   1.582 -0.1186  0.0994  0.0411
 3414TIP3    H131801   5.387   2.355   1.522 -2.3833 -1.7627 -0.9249
 3414TIP3    H231802   5.326   2.344   1.660  1.2259  1.4608  1.1378
 3415TIP3   OH231803   5.502   2.844   1.372 -0.5033  0.3340  0.3587
 3415TIP3    H131804   5.594   2.838   1.399 -0.4231  2.6611  0.8279
 3415TIP3    H231805   5.459   2.769   1.413  1.2545 -1.1480 -0.3538
 3416TIP3   OH231806   2.107   6.262   6.935  0.2354  0.7117 -0.2091
 3416TIP3    H131807   2.201   6.262   6.915  0.0664  0.1725 -1.0588
 3416TIP3    H231808   2.092   6.178   6.977 -0.4023 -0.6679 -2.9380
 3417TIP3   OH231809   3.031   2.556   7.628 -0.2763 -0.0746  0.0267
 3417TIP3    H131810   3.095   2.627   7.627 -0.1760 -0.1672 -0.3295
 3417TIP3    H231811   2.974   2.574   7.554 -1.7239  0.9524  1.3163
 3418TIP3   OH231812   5.719   3.741   7.124 -0.3384  0.2349  0.8128
 3418TIP3    H131813   5.738   3.829   7.158 -0.2457 -0.1041  1.6743
 3418TIP3    H231814   5.647   3.709   7.179 -2.9466  1.1442 -1.8128
 3419TIP3   OH231815   1.497   5.704   8.050 -0.6912  0.5137  0.6583
 3419TIP3    H131816   1.523   5.616   8.024 -1.7076  0.4151 -0.0694
 3419TIP3    H231817   1.423   5.692   8.109 -0.4492  0.8641  1.0425
 3420TIP3   OH231818   0.757   1.893   6.969 -0.6251 -0.1136 -0.1996
 3420TIP3    H131819   0.760   1.891   7.065  2.2255  0.8715 -0.1867
 3420TIP3    H231820   0.848   1.891   6.942 -1.2682  1.4335 -2.8514
 3421TIP3   OH231821   1.192   5.144   6.328  0.4160  0.4324 -0.1484
 3421TIP3    H131822   1.134   5.108   6.262  2.5874  0.8625 -2.4180
 3421TIP3    H231823   1.190   5.239   6.313  2.3260  0.3924 -0.8802
 3422TIP3   OH231824   2.501   6.750   6.282  0.1263  0.1658 -0.0823
 3422TIP3    H131825   2.472   6.802   6.207 -0.1506 -2.4326 -1.8998
 3422TIP3    H231826   2.439   6.677   6.285  1.6648 -1.1345  1.0955
 3423TIP3   OH231827   2.121   0.198   1.531  0.0483 -0.3953 -0.2927
 3423TIP3    H131828   2.173   0.278   1.539 -0.9071  0.1036  1.1762
 3423TIP3    H231829   2.143   0.146   1.608 -0.7860 -0.6865 -0.2432
 3424TIP3   OH231830   4.464   0.509   1.115 -0.0812 -0.1486 -0.4848
 3424TIP3    H131831   4.372   0.507   1.143  0.1913 -1.7816  0.3937
 3424TIP3    H231832   4.506   0.566   1.180 -0.6458  1.6789 -1.6311
 3425TIP3   OH231833   0.105   4.666   8.337 -0.0017  0.1614 -0.2197
 3425TIP3    H131834   0.080   4.693   8.425  0.3971  0.3424 -0.1591
 3425TIP3    H231835   0.141   4.745   8.297  3.1432 -0.6808  0.6604
 3426TIP3   OH231836   3.664   3.327   6.648  0.1084 -0.3346  0.1991
 3426TIP3    H131837   3.579   3.300   6.682 -1.8511  2.9070 -1.5704
 3426TIP3    H231838   3.682   3.264   6.578 -1.2308 -0.6596  0.1070
 3427TIP3   OH231839   4.117   0.280   8.255 -0.5726  0.5095 -0.2296
 3427TIP3    H131840   4.093   0.372   8.247  1.3919  1.0083 -0.7865
 3427TIP3    H231841   4.096   0.258   8.346  0.3935  1.9525  0.3726
 3428TIP3   OH231842   6.814   6.318   1.025  0.1112 -0.4821  0.1827
 3428TIP3    H131843   6.901   6.283   1.009 -0.1152 -0.8622 -0.2432
 3428TIP3    H231844   6.756   6.264   0.971 -0.0234  1.9147 -2.2665
 3429TIP3   OH231845   4.119   4.973   7.823  0.0875 -0.5086 -0.3871
 3429TIP3    H131846   4.127   4.924   7.905 -2.2055 -1.3476 -0.5923
 3429TIP3    H231847   4.035   5.019   7.831  0.9363  1.3396 -1.3046
 3430TIP3   OH231848   4.006   3.218   0.051  0.5421  0.0741  0.3384
 3430TIP3    H131849   3.974   3.306   0.069  2.3166  0.4086  2.3251
 3430TIP3    H231850   3.985   3.202  -0.041  1.0944  2.9849 -0.3746
 3431TIP3   OH231851   4.663   5.170   0.426 -0.2539 -0.5089 -0.1490
 3431TIP3    H131852   4.734   5.198   0.369  0.2481  1.8542  1.5016
 3431TIP3    H231853   4.595   5.139   0.366  0.4382  1.3740 -2.0167
 3432TIP3   OH231854   4.475   6.242   8.153  0.1960 -0.3746  0.0365
 3432TIP3    H131855   4.499   6.333   8.168 -1.1449 -0.1506  1.0435
 3432TIP3    H231856   4.493   6.227   8.061  1.7203  0.4926  0.1684
 3433TIP3   OH231857   6.753   0.512   1.597  0.5349  0.0230 -0.3519
 3433TIP3    H131858   6.743   0.419   1.577  0.5618 -0.4016  1.3665
 3433TIP3    H231859   6.693   0.527   1.670  0.3545  1.4272 -0.7670
 3434TIP3   OH231860   4.516   1.509   0.572 -0.0242 -0.6704 -0.0756
 3434TIP3    H131861   4.501   1.417   0.592  1.0442 -1.0211 -0.8242
 3434TIP3    H231862   4.606   1.526   0.600 -0.5228  0.4259  0.9776
 3435TIP3   OH231863   2.005   6.886   2.220 -0.0983 -0.2688  0.2276
 3435TIP3    H131864   2.018   6.795   2.245  4.4839 -0.7035 -2.6221
 3435TIP3    H231865   2.054   6.936   2.285  1.4773 -0.3540 -0.8441
 3436TIP3   OH231866   1.630   5.704   7.175 -0.0154 -0.8934  0.4800
 3436TIP3    H131867   1.723   5.717   7.194 -0.3584 -0.4667  2.0387
 3436TIP3    H231868   1.593   5.792   7.179 -0.6225 -1.1589  0.7193
 3437TIP3   OH231869   4.727   4.806   2.119  0.2573 -0.5342  0.6626
 3437TIP3    H131870   4.714   4.836   2.029  2.9190  2.4035  1.0794
 3437TIP3    H231871   4.671   4.862   2.172 -0.7711 -1.7923  0.9726
 3438TIP3   OH231872   2.852   2.270   5.960 -0.1495 -1.0035  0.0253
 3438TIP3    H131873   2.870   2.212   6.035 -1.1811 -1.5380 -0.1250
 3438TIP3    H231874   2.769   2.238   5.924 -0.0628 -0.2570 -0.8767
 3439TIP3   OH231875   0.617   0.108   0.129  0.1924 -0.5673  0.2806
 3439TIP3    H131876   0.572   0.054   0.194  2.0461 -0.9314  1.3304
 3439TIP3    H231877   0.677   0.048   0.085  0.7342  0.1905 -0.0430
 3440TIP3   OH231878   5.921   2.565   7.271 -0.3377  0.3148 -0.0157
 3440TIP3    H131879   5.955   2.595   7.355  1.2414 -0.5088 -0.3316
 3440TIP3    H231880   5.971   2.613   7.206  0.6342 -1.2835 -0.4968
 3441TIP3   OH231881   3.664   6.591   1.208 -0.1142 -0.5217  0.4299
 3441TIP3    H131882   3.729   6.570   1.141  0.1787  0.0956  0.5085
 3441TIP3    H231883   3.675   6.524   1.275  1.1378  0.1489  0.9145
 3442TIP3   OH231884   1.431   6.495   1.518  0.6438  0.4144 -0.1851
 3442TIP3    H131885   1.492   6.525   1.450  2.1674 -0.2885  0.7959
 3442TIP3    H231886   1.351   6.474   1.472  1.0007  1.7668 -1.4936
 3443TIP3   OH231887   2.196   2.138   1.819  0.1890 -0.3304 -0.5468
 3443TIP3    H131888   2.240   2.172   1.897 -0.6222 -0.4367 -0.0367
 3443TIP3    H231889   2.266   2.098   1.768  0.3782 -2.6344  1.3679
 3444TIP3   OH231890   3.516   0.111   0.500  0.3577  0.2495  0.4930
 3444TIP3    H131891   3.421   0.119   0.499  0.3014 -0.2385  1.3541
 3444TIP3    H231892   3.533   0.024   0.538  1.1490  0.6548  1.1058
 3445TIP3   OH231893   2.838   0.306   7.169 -0.2606 -0.1897  0.0335
 3445TIP3    H131894   2.828   0.389   7.124  0.5213 -0.5391 -0.8388
 3445TIP3    H231895   2.752   0.265   7.165 -0.3969  0.1408 -0.4250
 3446TIP3   OH231896   2.046   6.273   5.802  0.4660 -0.3331  0.2713
 3446TIP3    H131897   2.061   6.263   5.897  0.3424 -1.9787  0.1542
 3446TIP3    H231898   2.113   6.336   5.774  0.8452 -0.2210  1.3714
 3447TIP3   OH231899   3.617   1.625   5.990 -0.5897 -0.3132  0.4875
 3447TIP3    H131900   3.526   1.653   5.996 -0.7874 -0.5382 -1.1327
 3447TIP3    H231901   3.620   1.542   6.038 -1.1977 -0.2351  0.6693
 3448TIP3   OH231902   4.046   3.802   8.336  0.7099  0.0090 -0.3174
 3448TIP3    H131903   4.073   3.712   8.355  0.2901  0.1572  1.0120
 3448TIP3    H231904   4.043   3.845   8.421 -0.5680  0.8797 -0.7763
 3449TIP3   OH231905   3.841   2.409   8.252  0.0168  0.1810 -0.5345
 3449TIP3    H131906   3.798   2.364   8.180 -1.1194  1.4784 -0.7079
 3449TIP3    H231907   3.816   2.501   8.242  2.0116  0.8386 -0.0344
 3450TIP3   OH231908   5.437   6.946   0.007 -0.0300 -0.8671  0.1395
 3450TIP3    H131909   5.524   6.907   0.020  1.1828  1.4392 -0.5376
 3450TIP3    H231910   5.407   6.910  -0.077 -0.1044 -2.2480  0.7257
 3451TIP3   OH231911   4.746   0.531   2.482  0.3092  0.0283 -0.5728
 3451TIP3    H131912   4.711   0.620   2.483 -0.8114 -0.3884  0.6752
 3451TIP3    H231913   4.820   0.534   2.543  1.1691  0.4140 -1.6072
 3452TIP3   OH231914   6.313   3.068   6.940  0.8546 -0.1884  0.3477
 3452TIP3    H131915   6.340   3.038   6.853  0.2599 -0.0098  0.0953
 3452TIP3    H231916   6.366   3.017   7.000  2.3850  0.7509 -0.1370
 3453TIP3   OH231917   3.466   0.270   8.043  0.1968 -0.2414  0.0280
 3453TIP3    H131918   3.427   0.245   7.959  2.6277 -0.1756 -1.2286
 3453TIP3    H231919   3.411   0.227   8.109 -3.1663  1.5456 -1.3708
 3454TIP3   OH231920   0.018   1.255   0.848  0.0410 -0.2471 -0.5779
 3454TIP3    H131921  -0.046   1.263   0.919  1.9422  2.0087  1.0350
 3454TIP3    H231922  -0.034   1.235   0.770 -2.6165  1.3602  0.6567
 3455TIP3   OH231923   2.792   0.923   0.170 -0.0337  0.3359 -0.0606
 3455TIP3    H131924   2.736   0.845   0.169 -0.7765  0.8260  1.1061
 3455TIP3    H231925   2.866   0.897   0.225  0.2757  0.1064 -0.5731
 3456TIP3   OH231926   6.953   1.709   0.015 -0.0930  0.0931 -0.0291
 3456TIP3    H131927   6.871   1.667   0.040 -0.2105  0.2737 -0.1059
 3456TIP3    H231928   7.014   1.686   0.084  0.8597 -3.1384 -1.7256
 3457TIP3   OH231929   5.361   4.049   0.838 -0.0108  0.0529 -0.0027
 3457TIP3    H131930   5.455   4.036   0.841 -0.0929 -0.5101  0.1463
 3457TIP3    H231931   5.332   4.038   0.929 -0.2118  0.2931 -0.0354
 3458TIP3   OH231932   5.619   1.525   6.783 -0.5146 -0.3501  0.0338
 3458TIP3    H131933   5.566   1.563   6.712  0.4688  1.2040  0.0760
 3458TIP3    H231934   5.634   1.435   6.755 -2.3348 -0.5513 -0.4479
 3459TIP3   OH231935   6.939   4.217   0.079  0.0905 -0.0765 -0.6294
 3459TIP3    H131936   6.948   4.145   0.142 -2.9530  0.1328  0.2097
 3459TIP3    H231937   7.016   4.271   0.093  0.2320 -0.8195  1.9410
 3460TIP3   OH231938   6.288   2.541   0.085  0.1281 -0.0681  0.2002
 3460TIP3    H131939   6.279   2.530  -0.009 -0.2752  0.5615  0.1551
 3460TIP3    H231940   6.370   2.589   0.096 -1.2327  2.4824 -0.0638
 3461TIP3   OH231941   4.857   5.450   6.852  0.0225  0.7140  0.0198
 3461TIP3    H131942   4.899   5.391   6.913 -1.6462 -0.5219  0.0617
 3461TIP3    H231943   4.765   5.449   6.877 -0.1393  2.9915 -0.2903
 3462TIP3   OH231944   4.878   1.757   6.770 -0.4609  0.1026 -0.2913
 3462TIP3    H131945   4.838   1.740   6.684  0.9650  0.7012 -1.1041
 3462TIP3    H231946   4.912   1.846   6.763 -0.8918  0.4039  1.1461
 3463TIP3   OH231947   5.331   3.726   2.067 -0.4802  0.5231 -0.1080
 3463TIP3    H131948   5.383   3.758   1.993  0.3973  0.3652  0.4157
 3463TIP3    H231949   5.252   3.780   2.067  0.7526  2.4421  0.4866
 3464TIP3   OH231950   5.692   6.688   7.396  0.8318  0.1787 -0.0492
 3464TIP3    H131951   5.724   6.625   7.461  3.2598  2.2718  1.0071
 3464TIP3    H231952   5.614   6.727   7.437  1.3352  0.2523  0.8818
 3465TIP3   OH231953   1.504   0.737   1.142  0.0269 -0.1019 -0.0897
 3465TIP3    H131954   1.575   0.709   1.084  0.9604  0.6096  0.6830
 3465TIP3    H231955   1.431   0.679   1.120 -0.3173  1.3010 -3.3259
 3466TIP3   OH231956   4.890   0.010   7.856 -0.1929  0.1792  0.1619
 3466TIP3    H131957   4.849   0.086   7.813  1.1440  0.5777 -0.4550
 3466TIP3    H231958   4.901  -0.054   7.785  0.5200  0.2015  0.2438
 3467TIP3   OH231959   5.807   3.996   7.268 -0.3810  0.4505  0.0424
 3467TIP3    H131960   5.868   3.956   7.330 -1.0280 -2.2360 -0.9130
 3467TIP3    H231961   5.752   4.053   7.321  1.1883  0.7664  1.3683
 3468TIP3   OH231962   3.546   2.949   6.981 -0.0508 -0.0875 -0.0076
 3468TIP3    H131963   3.625   2.980   6.936 -0.6084  2.5300  0.6173
 3468TIP3    H231964   3.560   2.855   6.993  2.5795  0.1376 -0.6734
 3469TIP3   OH231965   0.594   4.562   0.879  0.4321  0.0626 -0.0830
 3469TIP3    H131966   0.645   4.634   0.916 -1.4413  1.7757 -0.6377
 3469TIP3    H231967   0.601   4.491   0.943  1.6725  1.0254  0.8821
 3470TIP3   OH231968   2.547   2.301   0.239 -0.3760 -0.5297 -0.4727
 3470TIP3    H131969   2.615   2.308   0.307  0.5397 -0.3382 -1.3776
 3470TIP3    H231970   2.467   2.281   0.287  0.1459  0.1068  0.7125
 3471TIP3   OH231971   1.668   2.796   7.647  0.0690  0.1869 -0.0694
 3471TIP3    H131972   1.696   2.754   7.729 -0.6493 -0.3348 -0.0902
 3471TIP3    H231973   1.693   2.888   7.659  0.8008 -0.0536  0.3588
 3472TIP3   OH231974   4.103   5.943   0.421 -0.0681 -0.5614  0.1543
 3472TIP3    H131975   4.162   6.014   0.447  1.0103 -1.3264 -0.1624
 3472TIP3    H231976   4.050   5.927   0.499  0.8523 -0.5643  0.7986
 3473TIP3   OH231977   1.591   6.118   8.088 -0.1508 -0.5229 -0.2268
 3473TIP3    H131978   1.499   6.100   8.069 -0.4991  0.5671  0.3052
 3473TIP3    H231979   1.605   6.080   8.175 -0.8334  1.4751  0.8147
 3474TIP3   OH231980   3.883   5.563   7.995 -0.8013 -0.1872 -0.5335
 3474TIP3    H131981   3.806   5.595   8.043 -0.3197 -0.0863  0.1830
 3474TIP3    H231982   3.846   5.518   7.919 -1.5717 -0.1128 -0.2169
 3475TIP3   OH231983   2.183   0.770   1.272  0.3075 -0.3835  0.0697
 3475TIP3    H131984   2.251   0.715   1.312  0.3435  0.0223  0.5820
 3475TIP3    H231985   2.210   0.779   1.181 -0.1732 -1.9389 -0.2468
 3476TIP3   OH231986   5.348   3.983   1.948  0.1477  0.2141  0.1035
 3476TIP3    H131987   5.265   4.008   1.988 -0.5497 -0.2480 -1.0175
 3476TIP3    H231988   5.414   4.033   1.996 -0.5065 -1.2350  2.6794
 3477TIP3   OH231989   3.603   3.509   1.367 -0.3822  0.5590 -0.2260
 3477TIP3    H131990   3.511   3.494   1.386 -0.2050  0.2919  0.4359
 3477TIP3    H231991   3.649   3.487   1.448  0.5805 -2.4302 -1.4459
 3478TIP3   OH231992   5.728   5.634   0.558 -0.3746  0.1728 -0.0002
 3478TIP3    H131993   5.791   5.683   0.612  1.0371 -2.2256  0.7302
 3478TIP3    H231994   5.737   5.672   0.471  0.2426  1.5370  0.6122
 3479TIP3   OH231995   4.642   4.894   1.608  0.2648 -0.2798 -0.6608
 3479TIP3    H131996   4.699   4.951   1.556 -0.4177  0.4326 -0.6422
 3479TIP3    H231997   4.576   4.863   1.546 -1.3654  1.6419 -0.0077
 3480TIP3   OH231998   3.371   1.787   0.751 -0.1244  0.5694 -0.1652
 3480TIP3    H131999   3.426   1.825   0.820 -0.2068 -0.9048  0.7576
 3480TIP3    H232000   3.307   1.855   0.732  1.2718  1.8668 -0.4070
 3481TIP3   OH232001   4.549   1.683   7.810 -0.2734 -0.3488  0.5105
 3481TIP3    H132002   4.641   1.705   7.827 -0.5461  0.8591  0.5732
 3481TIP3    H232003   4.512   1.763   7.772 -1.3246 -0.7766  0.5923
 3482TIP3   OH232004   2.592   2.705   7.363 -0.1530 -0.0923  0.4209
 3482TIP3    H132005   2.535   2.750   7.424 -0.2795 -0.4491  0.5719
 3482TIP3    H232006   2.547   2.711   7.279 -0.6633 -0.7889  0.6301
 3483TIP3   OH232007   1.029   4.507   7.007  0.1091  0.0402  0.5667
 3483TIP3    H132008   1.025   4.533   6.915 -0.1723  0.9929  0.8322
 3483TIP3    H232009   1.118   4.531   7.034 -0.4097  1.5813  1.0307
 3484TIP3   OH232010   4.359   2.523   1.014  0.2389 -0.1865  0.1406
 3484TIP3    H132011   4.393   2.610   0.994 -1.9648  0.6556 -0.2548
 3484TIP3    H232012   4.431   2.478   1.057  2.3375  0.8970 -2.0108
 3485TIP3   OH232013   0.261   6.434   7.641 -0.1975 -0.4752  0.3398
 3485TIP3    H132014   0.277   6.361   7.701 -0.6717  0.7385  2.0046
 3485TIP3    H232015   0.173   6.463   7.661  0.2822  1.0762  0.2942
 3486TIP3   OH232016   0.651   5.178   6.985 -0.1924  0.5992 -0.2988
 3486TIP3    H132017   0.665   5.268   7.015 -0.4363  0.4939  0.1420
 3486TIP3    H232018   0.728   5.131   7.015 -0.1920  0.6026 -0.2944
 3487TIP3   OH232019   3.414   1.260   6.985  0.0484  0.0593  0.0963
 3487TIP3    H132020   3.403   1.207   7.065 -1.4649 -1.2150 -0.8906
 3487TIP3    H232021   3.366   1.341   7.004  2.8613  1.5001  1.8410
 3488TIP3   OH232022   1.842   4.341   6.663 -0.2304 -0.1414  0.5354
 3488TIP3    H132023   1.907   4.384   6.607 -0.3795 -0.5358  0.0573
 3488TIP3    H232024   1.873   4.356   6.752  1.1040 -1.2588  0.2809
 3489TIP3   OH232025   3.913   0.154   8.011 -0.9613 -0.5093  0.5518
 3489TIP3    H132026   3.992   0.107   8.038  0.5251  0.2697 -2.1520
 3489TIP3    H232027   3.842   0.096   8.038  0.6276 -2.4798  0.8074
 3490TIP3   OH232028   4.448   6.263   7.341 -0.0572  0.4326  0.3557
 3490TIP3    H132029   4.363   6.269   7.298  0.9171  1.4927 -1.5595
 3490TIP3    H232030   4.469   6.169   7.340 -0.8776  0.2430  0.2098
 3491TIP3   OH232031   1.398   6.040   0.641  0.4487  0.1941  0.1906
 3491TIP3    H132032   1.356   6.119   0.607  0.3967 -0.0467 -0.3234
 3491TIP3    H232033   1.459   6.071   0.708 -0.9529  0.5065  1.3639
 3492TIP3   OH232034   5.725   3.573   0.516  0.5347  0.4769 -0.2345
 3492TIP3    H132035   5.711   3.494   0.464 -3.1003 -0.0258  1.2220
 3492TIP3    H232036   5.760   3.541   0.600 -0.5863  0.4142  0.2222
 3493TIP3   OH232037   6.144   5.930   6.269  0.2520 -0.0096 -0.5958
 3493TIP3    H132038   6.105   5.850   6.235 -0.5839 -0.4385  1.2129
 3493TIP3    H232039   6.209   5.900   6.333 -1.3104  0.6504  1.4446
 3494TIP3   OH232040   5.761   2.305   7.795  0.2847  0.6701  0.1189
 3494TIP3    H132041   5.685   2.355   7.825  0.5063  1.1740 -0.1416
 3494TIP3    H232042   5.730   2.215   7.792 -1.1033  1.1265 -2.3215
 3495TIP3   OH232043   2.483   1.661   1.010 -0.0083 -0.2674 -0.4115
 3495TIP3    H132044   2.561   1.664   0.955 -0.0050 -0.7321 -0.4375
 3495TIP3    H232045   2.431   1.736   0.982  0.6037  0.2712 -0.1233
 3496TIP3   OH232046   1.993   4.032   6.413 -0.2569  0.1145 -0.4593
 3496TIP3    H132047   2.060   4.066   6.472 -2.0100  1.1815  1.0260
 3496TIP3    H232048   1.978   3.943   6.443  0.8770 -0.3518 -1.1959
 3497TIP3   OH232049   3.493   2.856   1.029 -0.5621  0.3028 -0.4248
 3497TIP3    H132050   3.435   2.884   1.100 -0.1301  2.0234 -0.7071
 3497TIP3    H232051   3.433   2.820   0.963 -1.1207  0.2972  0.0731
 3498TIP3   OH232052   0.281   2.830   0.041  0.2310 -0.1961 -0.0232
 3498TIP3    H132053   0.207   2.805   0.097 -0.1558 -0.6034 -0.7079
 3498TIP3    H232054   0.356   2.835   0.101  0.1086 -1.9513  0.3148
 3499TIP3   OH232055   1.593   0.047   1.604  0.4183  0.1235  0.4423
 3499TIP3    H132056   1.586   0.018   1.513 -1.3562 -1.2100  0.9451
 3499TIP3    H232057   1.687   0.039   1.623  0.6241 -1.0900 -0.8177
 3500TIP3   OH232058   3.674   5.008   7.670 -0.2190 -0.4274  0.4578
 3500TIP3    H132059   3.711   4.937   7.722 -1.9881 -0.8392  1.2063
 3500TIP3    H232060   3.740   5.025   7.603  0.7145 -2.0281  0.9236
 3501TIP3   OH232061   0.320   6.359   0.096  0.4246 -0.0290 -0.3365
 3501TIP3    H132062   0.340   6.451   0.116 -1.2018  0.8471 -2.3708
 3501TIP3    H232063   0.404   6.322   0.070  0.8180  1.3901 -1.2048
 3502TIP3   OH232064   2.134   2.884   7.333 -0.8731 -0.0485  0.1160
 3502TIP3    H132065   2.144   2.790   7.347 -0.9353  0.2804  2.8304
 3502TIP3    H232066   2.203   2.924   7.386 -1.6306  1.4619  0.0266
 3503TIP3   OH232067   6.061   2.781   2.017  0.2341 -0.2006 -0.1216
 3503TIP3    H132068   6.113   2.744   2.088 -0.9606 -1.1908  0.2898
 3503TIP3    H232069   6.092   2.736   1.938  2.7349  2.0882 -0.6074
 3504TIP3   OH232070   5.196   5.930   7.426  0.2100  0.2479 -0.1346
 3504TIP3    H132071   5.149   5.965   7.350  0.2758  0.3000 -0.1511
 3504TIP3    H232072   5.126   5.904   7.487 -0.0044 -3.1617 -1.6445
 3505TIP3   OH232073   3.509   3.470   7.339 -0.2000 -0.4557  0.0358
 3505TIP3    H132074   3.433   3.440   7.388 -0.9396  0.2833 -0.6235
 3505TIP3    H232075   3.492   3.445   7.249  1.0758 -1.6595  0.0983
 3506TIP3   OH232076   2.893   5.468   0.568  0.0155 -0.4735  0.5782
 3506TIP3    H132077   2.917   5.452   0.477 -0.5333 -2.0892  0.6761
 3506TIP3    H232078   2.808   5.423   0.578 -1.3797  2.0943  1.1335
 3507TIP3   OH232079   6.049   0.009   0.266  0.0364 -0.2990 -0.7380
 3507TIP3    H132080   6.029   0.081   0.325 -0.5149 -1.1460  0.1291
 3507TIP3    H232081   6.145   0.006   0.265  0.0834  0.6992 -1.1259
 3508TIP3   OH232082   2.633   1.078   7.733  1.3884  0.3736  0.7992
 3508TIP3    H132083   2.664   1.063   7.644  0.4026 -0.0703  0.5252
 3508TIP3    H232084   2.562   1.142   7.724  1.6276  0.7337  1.3317
 3509TIP3   OH232085   6.674   4.330   0.623 -0.0038  0.5453  0.3975
 3509TIP3    H132086   6.745   4.392   0.633 -1.2382  1.7420  2.3683
 3509TIP3    H232087   6.708   4.248   0.659  0.2618  1.2263  1.7542
 3510TIP3   OH232088   5.839   5.108   7.563 -0.0146 -0.3259 -0.0924
 3510TIP3    H132089   5.847   5.043   7.632  0.9338 -2.0046 -1.6874
 3510TIP3    H232090   5.919   5.161   7.569  0.0079 -0.3917  0.1628
 3511TIP3   OH232091   2.733   4.078   6.142 -0.1042  0.1560  0.3182
 3511TIP3    H132092   2.767   3.989   6.141  0.1754  0.1318 -3.7546
 3511TIP3    H232093   2.809   4.133   6.126 -0.7616  0.7770 -0.8238
 3512TIP3   OH232094   1.477   4.875   7.034  0.0026  0.2821  0.2658
 3512TIP3    H132095   1.541   4.818   7.078  0.5407  0.9627  0.3751
 3512TIP3    H232096   1.525   4.956   7.016 -0.4676  0.3501 -0.7732
 3513TIP3   OH232097   2.845   1.984   1.065 -0.0527  0.4159  0.0449
 3513TIP3    H132098   2.810   1.906   1.110 -0.0542  0.1289 -0.4466
 3513TIP3    H232099   2.785   1.998   0.992  1.2344 -0.5210 -1.2560
 3514TIP3   OH232100   4.143   5.249   8.356 -0.0912 -0.5432  0.9058
 3514TIP3    H132101   4.070   5.198   8.391 -1.6956  1.4138  0.6225
 3514TIP3    H232102   4.101   5.317   8.303  1.9005  1.0908  1.3057
 3515TIP3   OH232103   3.386   3.221   5.861 -0.1409  0.4799  0.0105
 3515TIP3    H132104   3.417   3.236   5.772 -1.4845 -1.9358 -0.9601
 3515TIP3    H232105   3.456   3.171   5.903  0.6633  1.9548  0.4871
 3516TIP3   OH232106   6.157   3.031   7.743 -0.1029 -0.2409 -0.0696
 3516TIP3    H132107   6.218   3.065   7.808  0.0093 -0.6503  0.0363
 3516TIP3    H232108   6.212   2.989   7.677 -0.3069 -1.4117  0.4823
 3517TIP3   OH232109   3.601   3.012   5.794  0.0126  0.2226  0.4601
 3517TIP3    H132110   3.590   2.933   5.742  1.0164  1.1759 -1.2831
 3517TIP3    H232111   3.658   2.985   5.866  1.4827 -0.3476 -0.8698
 3518TIP3   OH232112   6.739   5.589   8.106  0.3396  0.0644 -0.4100
 3518TIP3    H132113   6.682   5.513   8.105 -0.4098  0.6173 -0.5911
 3518TIP3    H232114   6.731   5.625   8.194  0.0874  0.3693 -0.5526
 3519TIP3   OH232115   3.199   6.470   8.185  1.0731  0.1921  0.2672
 3519TIP3    H132116   3.176   6.497   8.275  1.5184  0.7233  0.2329
 3519TIP3    H232117   3.292   6.451   8.190  1.2949  1.0849 -0.2735
 3520TIP3   OH232118   4.728   1.856   2.156 -0.1883  0.0955 -0.0856
 3520TIP3    H132119   4.724   1.943   2.195  0.3630  0.2131 -0.2858
 3520TIP3    H232120   4.663   1.858   2.085 -1.1026 -0.0782  0.7222
 3521TIP3   OH232121   1.478   6.788   7.872 -0.4985 -0.1715  0.3128
 3521TIP3    H132122   1.530   6.716   7.907 -2.3954 -2.7441 -1.7470
 3521TIP3    H232123   1.397   6.786   7.924 -2.3065 -2.4559 -2.2267
 3522TIP3   OH232124   2.787   2.175   7.192 -0.2254 -0.0234  0.1754
 3522TIP3    H132125   2.879   2.148   7.193 -0.5746 -1.3240  0.1530
 3522TIP3    H232126   2.755   2.145   7.107 -0.7648  0.0741  0.3402
 3523TIP3   OH232127   5.462   1.345   1.631  0.2702 -0.3788  0.1383
 3523TIP3    H132128   5.478   1.406   1.559  1.5853  0.3019  0.9444
 3523TIP3    H232129   5.367   1.337   1.636 -0.0579  2.6033  0.7403
 3524TIP3   OH232130   4.158   5.670   6.912  0.0461  0.0040 -0.2536
 3524TIP3    H132131   4.225   5.602   6.921  1.2721  0.8705 -2.1397
 3524TIP3    H232132   4.076   5.622   6.901  0.5906 -1.1181  0.4136
 3525TIP3   OH232133   5.554   1.277   6.659 -0.6755 -0.3170  0.0852
 3525TIP3    H132134   5.477   1.307   6.610 -1.3945 -0.8803  0.8586
 3525TIP3    H232135   5.597   1.214   6.601 -1.5942 -1.0759  0.2113
 3526TIP3   OH232136   4.034   2.662   2.020  0.3649 -0.2894  0.4182
 3526TIP3    H132137   4.029   2.712   2.101  0.5150  0.1911  0.1362
 3526TIP3    H232138   4.082   2.583   2.043  1.5163  0.4203  0.5294
 3527TIP3   OH232139   3.031   2.457   2.106  0.2772  0.0224  0.0932
 3527TIP3    H132140   3.076   2.441   2.023  1.7460 -0.2210  0.9066
 3527TIP3    H232141   3.098   2.492   2.164 -0.9995  1.3451  0.8425
 3528TIP3   OH232142   0.823   6.361   7.308  0.4461 -0.3698 -0.0979
 3528TIP3    H132143   0.766   6.329   7.238 -0.5324  0.4915  0.2674
 3528TIP3    H232144   0.834   6.286   7.366  0.8000 -0.9308 -0.8693
 3529TIP3   OH232145   0.873   5.104   1.538 -0.0574  0.0264 -0.4513
 3529TIP3    H132146   0.854   5.075   1.449  0.9875  0.3214 -0.7842
 3529TIP3    H232147   0.861   5.026   1.592  0.9223 -0.5749 -1.0868
 3530TIP3   OH232148   2.667   6.446   0.685  0.2381  0.2356  0.6145
 3530TIP3    H132149   2.733   6.515   0.680 -2.2836  2.8501  0.8609
 3530TIP3    H232150   2.622   6.450   0.601 -1.2306  0.2889  1.3837
 3531TIP3   OH232151   0.199   6.631   1.905 -0.5299 -0.5563 -0.4379
 3531TIP3    H132152   0.279   6.677   1.929  0.3483 -1.9108 -0.6341
 3531TIP3    H232153   0.179   6.575   1.980 -0.7502 -0.9277 -0.7660
 3532TIP3   OH232154   0.722   0.959   1.348  0.6501  0.2312  0.7913
 3532TIP3    H132155   0.737   0.917   1.264  0.7645 -0.9520  1.3784
 3532TIP3    H232156   0.699   0.887   1.407 -1.4015  1.2491  1.3246
 3533TIP3   OH232157   1.472   3.050   7.577 -0.2335  0.4326 -0.1007
 3533TIP3    H132158   1.505   3.048   7.487  0.8831  1.3617  0.2573
 3533TIP3    H232159   1.551   3.057   7.631 -0.9120  0.4092  0.9232
 3534TIP3   OH232160   2.749   3.445   8.300 -0.0048 -0.5364 -0.0156
 3534TIP3    H132161   2.783   3.362   8.267 -1.3002 -0.9901 -0.2616
 3534TIP3    H232162   2.697   3.422   8.377  2.5464  0.4614  2.1432
 3535TIP3   OH232163   3.092   5.128   1.574  0.2982  0.5890  0.4691
 3535TIP3    H132164   3.124   5.092   1.657  0.4109  0.1913  0.2538
 3535TIP3    H232165   3.116   5.221   1.579  0.7280  0.4736  0.6839
 3536TIP3   OH232166   2.269   4.767   6.734 -0.1728  0.8797 -0.0057
 3536TIP3    H132167   2.289   4.741   6.644  0.0264 -1.0208  0.5425
 3536TIP3    H232168   2.249   4.860   6.728  1.5413  1.1988 -1.7429
 3537TIP3   OH232169   4.490   5.158   1.379 -1.0610 -0.3741 -0.2420
 3537TIP3    H132170   4.421   5.102   1.344 -0.3931 -1.1766 -0.3192
 3537TIP3    H232171   4.571   5.114   1.354 -0.4779  1.0335 -0.9910
 3538TIP3   OH232172   6.376   4.991   1.598 -0.0735 -0.3881  0.2806
 3538TIP3    H132173   6.371   5.033   1.512 -0.7368 -0.1133  0.4389
 3538TIP3    H232174   6.330   5.052   1.656 -0.0015 -0.7713  0.7452
 3539TIP3   OH232175   2.774   0.980   6.551 -0.2372  0.0186 -0.0822
 3539TIP3    H132176   2.800   1.071   6.540  0.6982 -0.3417 -1.0552
 3539TIP3    H232177   2.719   0.979   6.629 -0.1985  1.3982 -0.0247
 3540TIP3   OH232178   4.683   1.101   0.357 -0.0911 -0.0876 -0.1954
 3540TIP3    H132179   4.755   1.115   0.295  0.0901  3.4737  0.6207
 3540TIP3    H232180   4.606   1.138   0.313 -0.1555  1.5834  1.2261
 3541TIP3   OH232181   3.457   4.820   0.531 -0.4251 -0.4495 -0.3313
 3541TIP3    H132182   3.514   4.794   0.603 -0.4174 -1.3123 -0.6367
 3541TIP3    H232183   3.516   4.834   0.457 -0.5087 -0.3703 -0.3835
 3542TIP3   OH232184   3.169   2.180   7.701  0.2558 -0.7578  0.7639
 3542TIP3    H132185   3.184   2.098   7.747  0.2748 -2.2279 -1.6890
 3542TIP3    H232186   3.255   2.222   7.699  0.4817 -1.1919  1.0956
 3543TIP3   OH232187   4.043   3.144   2.596 -0.0146 -0.2855 -0.1916
 3543TIP3    H132188   4.008   3.068   2.550 -1.3081  0.1127  0.0974
 3543TIP3    H232189   4.118   3.110   2.644  1.2357 -0.7527 -2.3595
 3544TIP3   OH232190   4.313   1.398   6.772 -0.3630 -0.0704  0.0259
 3544TIP3    H132191   4.334   1.357   6.856  1.2858 -0.1948 -0.4241
 3544TIP3    H232192   4.332   1.491   6.785 -0.0115 -0.1041 -0.2371
 3545TIP3   OH232193   3.635   3.207   6.081 -0.0854  0.2425  0.1415
 3545TIP3    H132194   3.731   3.206   6.082 -0.0797  0.3067  1.1068
 3545TIP3    H232195   3.612   3.299   6.087 -0.1978  0.2142  0.1450
 3546TIP3   OH232196   5.726   6.492   6.809 -0.4203  1.1119  0.8703
 3546TIP3    H132197   5.659   6.481   6.741  2.4661 -3.7310 -1.7137
 3546TIP3    H232198   5.787   6.556   6.772 -0.7527  1.2717  0.5964
 3547TIP3   OH232199   4.929   3.309   0.736 -0.3919 -0.8006  0.4992
 3547TIP3    H132200   4.889   3.228   0.767 -0.3736 -0.5242  1.2565
 3547TIP3    H232201   5.010   3.317   0.786 -1.5551  0.9290  2.2639
 3548TIP3   OH232202   5.562   1.901   6.892 -0.3858  0.0734  0.2444
 3548TIP3    H132203   5.605   1.939   6.815 -1.7456  1.3893  0.0848
 3548TIP3    H232204   5.471   1.930   6.885 -1.2111 -2.1482  0.8594
 3549TIP3   OH232205   0.015   6.052   8.364  0.1567 -1.0047 -0.2617
 3549TIP3    H132206  -0.079   6.043   8.351 -0.1241  0.8061  0.1951
 3549TIP3    H232207   0.024   6.077   8.456  0.7000  2.3814 -1.0656
 3550TIP3   OH232208   1.684   3.704   6.627 -0.0428  0.1243  0.6407
 3550TIP3    H132209   1.639   3.744   6.553 -0.3363 -1.8205 -0.3110
 3550TIP3    H232210   1.622   3.710   6.699 -1.1190 -0.8762 -0.1641
 3551TIP3   OH232211   6.721   6.617   1.516 -0.1530 -0.0152  0.0528
 3551TIP3    H132212   6.756   6.702   1.491  0.3830 -0.6855 -1.5836
 3551TIP3    H232213   6.719   6.566   1.435 -0.9451 -1.4026  0.8907
 3552TIP3   OH232214   2.617   0.150   7.123  0.0982  0.0330 -0.1589
 3552TIP3    H132215   2.547   0.169   7.185  0.2514  2.7205 -0.6774
 3552TIP3    H232216   2.573   0.108   7.049 -0.8648  1.0212 -0.1702
 3553TIP3   OH232217   0.466   0.651   6.579  0.6561  0.3379  0.2582
 3553TIP3    H132218   0.552   0.686   6.558  1.0769 -1.4535 -1.2984
 3553TIP3    H232219   0.430   0.622   6.495  0.7390 -3.6414  1.3908
 3554TIP3   OH232220   4.761   5.160   7.495  0.8049  0.3232 -0.3213
 3554TIP3    H132221   4.756   5.071   7.530 -1.0915 -0.3581 -2.1214
 3554TIP3    H232222   4.819   5.153   7.420 -1.4019 -0.0861 -2.1005
 3555TIP3   OH232223   2.870   4.256   7.614  0.0103  0.6455  0.1432
 3555TIP3    H132224   2.866   4.328   7.551  1.2945 -0.2237 -0.9721
 3555TIP3    H232225   2.912   4.294   7.691  0.9425  1.0379 -0.5449
 3556TIP3   OH232226   2.869   2.585   6.432 -0.2556 -0.4574 -0.3664
 3556TIP3    H132227   2.820   2.656   6.391  2.5054  1.5777 -0.4798
 3556TIP3    H232228   2.877   2.518   6.365 -1.0805  0.1030 -1.0336
 3557TIP3   OH232229   0.169   1.271   0.548 -0.2660 -0.0425  0.0026
 3557TIP3    H132230   0.124   1.355   0.559 -0.4770 -0.2581  0.8756
 3557TIP3    H232231   0.232   1.287   0.478 -1.4162  0.3813 -0.9757
 3558TIP3   OH232232   0.027   1.795   7.460 -0.1806  0.0397  0.1340
 3558TIP3    H132233  -0.037   1.738   7.416 -0.5480  0.0243  0.6846
 3558TIP3    H232234   0.009   1.882   7.425 -0.7422  0.0957  0.5419
 3559TIP3   OH232235   1.918   6.442   7.175  0.2603  0.2572 -0.6484
 3559TIP3    H132236   1.956   6.520   7.134 -0.4941  1.5949  1.0579
 3559TIP3    H232237   1.994   6.392   7.207  0.7389  0.4890 -1.4000
 3560TIP3   OH232238   0.901   5.887   0.492  0.0537  0.0122  0.7994
 3560TIP3    H132239   0.859   5.808   0.459  2.4984 -0.5529 -1.3264
 3560TIP3    H232240   0.931   5.864   0.580 -1.8012 -0.3816  1.3555
 3561TIP3   OH232241   3.699   6.972   8.089  0.4539 -0.7886 -0.0251
 3561TIP3    H132242   3.665   6.989   8.177  1.0428  2.7532 -0.3376
 3561TIP3    H232243   3.621   6.967   8.034  0.1663 -0.0205  0.2978
 3562TIP3   OH232244   6.754   3.191   6.332 -0.4695 -0.5695  0.2204
 3562TIP3    H132245   6.705   3.274   6.328 -0.6667 -0.5692  1.8075
 3562TIP3    H232246   6.731   3.146   6.252 -0.4178  0.8857 -0.6557
 3563TIP3   OH232247   4.554   5.431   6.752  0.4908  0.6725 -0.2770
 3563TIP3    H132248   4.552   5.525   6.734 -0.8433  0.6752 -0.2399
 3563TIP3    H232249   4.473   5.415   6.801  0.5869 -0.5341 -0.4896
 3564TIP3   OH232250   5.228   3.269   1.472  0.0019 -0.1501 -0.3635
 3564TIP3    H132251   5.298   3.323   1.509  0.4183 -0.6755 -0.3860
 3564TIP3    H232252   5.161   3.268   1.541  0.5272 -0.6391  0.1525
 3565TIP3   OH232253   4.517   0.567   6.286  0.8440 -0.0879  0.1807
 3565TIP3    H132254   4.522   0.608   6.199 -0.3940 -0.9881 -0.3420
 3565TIP3    H232255   4.441   0.608   6.327  1.6603  0.6223  1.0175
 3566TIP3   OH232256   4.170   5.054   0.205 -0.2823  0.3087  0.2717
 3566TIP3    H132257   4.183   5.143   0.172  0.6946 -0.2085 -0.8290
 3566TIP3    H232258   4.182   5.061   0.299  0.2840  1.2594  0.1401
 3567TIP3   OH232259   2.071   3.630   6.555 -0.3659  0.0257 -0.0781
 3567TIP3    H132260   2.086   3.721   6.581  0.8246 -0.6567  1.8354
 3567TIP3    H232261   2.154   3.586   6.571 -1.0695 -1.5168 -0.4647
 3568TIP3   OH232262   5.277   5.392   0.706 -0.7168  0.1905  0.1859
 3568TIP3    H132263   5.334   5.316   0.699  0.8087  0.8839  3.4106
 3568TIP3    H232264   5.202   5.361   0.756 -1.0990  0.3293 -0.2933
 3569TIP3   OH232265   6.888   2.022   1.534 -0.2890  0.1234  0.2278
 3569TIP3    H132266   6.853   2.079   1.465 -2.1447  0.8790  1.7278
 3569TIP3    H232267   6.983   2.037   1.531 -0.6548  3.0830  0.3076
 3570TIP3   OH232268   4.239   0.787   8.295 -0.2855  0.2779  0.2656
 3570TIP3    H132269   4.314   0.758   8.243 -2.0069  1.1155 -3.0086
 3570TIP3    H232270   4.204   0.707   8.333 -0.4486 -0.8989 -2.1714
 3571TIP3   OH232271   6.097   5.910   7.715  0.4996 -0.1556  0.6338
 3571TIP3    H132272   6.133   5.945   7.796  1.2761 -1.4991  0.9068
 3571TIP3    H232273   6.145   5.954   7.645  1.5333 -0.7088  0.9707
 3572TIP3   OH232274   4.517   4.862   7.794 -0.3118  0.3264 -0.5369
 3572TIP3    H132275   4.510   4.770   7.819 -2.4201  0.5525 -0.1628
 3572TIP3    H232276   4.476   4.867   7.708  1.2321  0.6852 -1.2967
 3573TIP3   OH232277   0.698   6.353   6.842 -0.0257 -0.2647 -0.1502
 3573TIP3    H132278   0.719   6.283   6.903 -1.6826 -0.5160  0.1934
 3573TIP3    H232279   0.680   6.429   6.898  0.3950  0.0540 -0.4427
 3574TIP3   OH232280   4.528   3.924   0.055  0.2692  0.2302  0.3919
 3574TIP3    H132281   4.454   3.919  -0.006  1.2990 -0.9277 -0.8098
 3574TIP3    H232282   4.575   3.842   0.043  0.7535  0.1520  2.4719
 3575TIP3   OH232283   6.232   4.798   7.329  0.0972 -0.3341 -0.1629
 3575TIP3    H132284   6.290   4.776   7.402  0.2823 -3.2970 -1.0510
 3575TIP3    H232285   6.278   4.867   7.281  2.1754 -1.5132  0.0386
 3576TIP3   OH232286   2.056   5.841   0.127  0.6443 -0.1277 -0.0623
 3576TIP3    H132287   2.131   5.792   0.162 -0.5995 -1.7387  0.4723
 3576TIP3    H232288   2.081   5.863   0.038  1.7729 -0.5866  0.1276
 3577TIP3   OH232289   3.352   0.190   7.540 -0.1528 -0.2940  0.2177
 3577TIP3    H132290   3.279   0.173   7.481 -0.2145 -2.4606  0.8609
 3577TIP3    H232291   3.430   0.175   7.487 -0.1942 -0.6166  0.2487
 3578TIP3   OH232292   0.273   4.218   6.168  0.5891  0.4495  0.3491
 3578TIP3    H132293   0.281   4.181   6.256 -0.6884  2.7357  1.5149
 3578TIP3    H232294   0.361   4.215   6.133  1.1852 -0.2792  1.8122
 3579TIP3   OH232295   2.526   0.088   1.809  0.1198  0.1406  0.0242
 3579TIP3    H132296   2.435   0.063   1.791  0.5751 -0.3374 -1.8108
 3579TIP3    H232297   2.552   0.139   1.733  1.3514  0.3972  0.5979
 3580TIP3   OH232298   1.858   2.405   7.612 -0.2613 -0.2024 -0.0637
 3580TIP3    H132299   1.764   2.396   7.628 -0.3356  0.6181  0.0085
 3580TIP3    H232300   1.870   2.385   7.520 -0.3849 -1.1178  0.1085
 3581TIP3   OH232301   1.655   3.983   1.589  0.4729 -0.3348  0.3081
 3581TIP3    H132302   1.619   4.071   1.601  0.6780  0.2798 -2.7674
 3581TIP3    H232303   1.581   3.932   1.554  0.8162 -0.8930  0.3948
 3582TIP3   OH232304   2.838   2.531   6.918 -0.4395  0.4586 -0.0997
 3582TIP3    H132305   2.850   2.625   6.931  0.1640  0.4804 -0.6904
 3582TIP3    H232306   2.911   2.506   6.861 -0.5318 -0.3897  0.1380
 3583TIP3   OH232307   4.511   3.574   1.708  0.2332  0.0054 -0.4040
 3583TIP3    H132308   4.512   3.497   1.764 -0.2062  0.7149  0.6063
 3583TIP3    H232309   4.422   3.577   1.671 -0.1072  0.6334  0.4401
 3584TIP3   OH232310   0.340   6.390   0.800  0.4600 -0.4817  0.1934
 3584TIP3    H132311   0.297   6.317   0.756  1.2601 -1.3668  0.8441
 3584TIP3    H232312   0.423   6.400   0.753  1.0778 -1.0783  1.1439
 3585TIP3   OH232313   5.633   4.346   7.809  0.3904  0.3875 -0.4363
 3585TIP3    H132314   5.611   4.410   7.741  1.3474  2.1015  0.7754
 3585TIP3    H232315   5.621   4.394   7.891  3.6722 -0.0703  0.4506
 3586TIP3   OH232316   1.598   0.004   1.322 -0.2980 -0.0258  0.3161
 3586TIP3    H132317   1.566   0.021   1.233 -0.8066  3.6128  1.0370
 3586TIP3    H232318   1.688  -0.028   1.309 -0.0211  1.3217 -1.5361
 3587TIP3   OH232319   6.398   3.337   6.035 -0.8551 -0.7768 -0.6731
 3587TIP3    H132320   6.373   3.272   6.101 -1.4863 -1.8001 -1.8665
 3587TIP3    H232321   6.421   3.285   5.958  1.6078  0.3071 -0.7557
 3588TIP3   OH232322   3.905   6.618   6.344  0.6407 -0.1164 -0.8522
 3588TIP3    H132323   3.921   6.704   6.306 -1.5466  0.7730  0.0826
 3588TIP3    H232324   3.943   6.556   6.281  2.6884  1.5120 -1.3078
 3589TIP3   OH232325   4.511   5.986   7.453  0.1747 -0.1990 -0.2534
 3589TIP3    H132326   4.431   5.949   7.491 -0.8930  1.1855 -1.0407
 3589TIP3    H232327   4.549   5.915   7.402 -1.5773 -0.3886 -1.3700
 3590TIP3   OH232328   2.120   2.089   7.421  0.1672  0.2498  0.2751
 3590TIP3    H132329   2.041   2.143   7.430  0.8160  1.5218 -1.0936
 3590TIP3    H232330   2.094   2.020   7.359  0.7653  2.2333 -2.3930
 3591TIP3   OH232331   6.343   6.192   1.447  0.7116  0.1386 -0.7707
 3591TIP3    H132332   6.257   6.195   1.405  0.5588 -1.9586 -0.7339
 3591TIP3    H232333   6.346   6.105   1.488  1.2910  1.5838  2.5970
 3592TIP3   OH232334   4.953   4.383   8.027 -0.4008  0.1863  0.2633
 3592TIP3    H132335   5.028   4.421   7.981 -0.2879  1.4444  1.4438
 3592TIP3    H232336   4.883   4.381   7.961  0.3379  0.0240 -0.5362
 3593TIP3   OH232337   5.504   6.679   8.077 -0.0754  0.1613 -0.0336
 3593TIP3    H132338   5.422   6.727   8.084  0.2022  0.5736  0.6421
 3593TIP3    H232339   5.505   6.621   8.154  0.1036 -0.0906 -0.2243
 3594TIP3   OH232340   2.774   1.178   7.488  0.1522  0.0000 -0.3306
 3594TIP3    H132341   2.770   1.174   7.392 -2.4368 -0.1178 -0.2729
 3594TIP3    H232342   2.731   1.260   7.510  0.2122 -0.2511  0.7567
 3595TIP3   OH232343   4.614   0.753   0.228  0.2776  0.1757 -0.1002
 3595TIP3    H132344   4.688   0.800   0.266  1.1149 -0.5536 -0.7533
 3595TIP3    H232345   4.552   0.743   0.299  0.8840  0.6585  0.5103
 3596TIP3   OH232346   1.099   1.221   0.687 -0.0195  0.3597  0.1441
 3596TIP3    H132347   1.020   1.274   0.701  0.8646  1.9640 -0.7057
 3596TIP3    H232348   1.132   1.204   0.775  0.5792  2.6896  0.4250
 3597TIP3   OH232349   6.223   6.867   7.007 -0.2734  0.6210  0.0514
 3597TIP3    H132350   6.287   6.937   7.020 -0.1809  0.2845  1.5851
 3597TIP3    H232351   6.264   6.808   6.943 -0.7577  2.4020 -2.0020
 3598TIP3   OH232352   0.732   6.116   1.660 -0.3341 -0.5736 -0.5115
 3598TIP3    H132353   0.752   6.045   1.599 -2.1014 -0.4945 -1.2306
 3598TIP3    H232354   0.767   6.194   1.618  0.7998 -0.8552 -0.1439
 3599TIP3   OH232355   1.759   5.176   0.420  0.1285 -0.0138  0.1096
 3599TIP3    H132356   1.728   5.087   0.434  0.4183 -0.1182  0.0866
 3599TIP3    H232357   1.686   5.220   0.376 -0.1120 -0.1667  0.3527
 3600TIP3   OH232358   1.867   5.056   6.908 -0.4121 -0.0542 -0.0961
 3600TIP3    H132359   1.916   4.974   6.900 -0.0188  0.0480  1.0040
 3600TIP3    H232360   1.851   5.084   6.818 -0.9715 -1.5737 -0.5067
 3601TIP3   OH232361   1.813   0.918   8.124  0.2126  0.2349 -0.0102
 3601TIP3    H132362   1.827   1.013   8.116 -1.7519  0.7462  1.8119
 3601TIP3    H232363   1.852   0.895   8.208  2.7079 -1.0954 -1.4161
 3602TIP3   OH232364   4.995   1.404   8.008  0.1125 -0.0078  0.1192
 3602TIP3    H132365   4.901   1.397   8.023  0.3664  1.1120  2.9825
 3602TIP3    H232366   5.027   1.314   8.016 -0.5119 -0.1548  1.1689
 3603TIP3   OH232367   0.657   6.001   2.110 -0.2239  0.0154 -0.4232
 3603TIP3    H132368   0.656   5.906   2.123 -0.8701  0.0828  0.0912
 3603TIP3    H232369   0.687   6.013   2.020 -1.3041 -0.7227 -0.9026
 3604TIP3   OH232370   3.370   1.060   7.965 -0.3158  0.7426  0.1661
 3604TIP3    H132371   3.329   1.125   8.022 -1.7475  0.3052 -0.3343
 3604TIP3    H232372   3.300   1.000   7.942  0.9929 -1.1085  0.7390
 3605TIP3   OH232373   3.240   1.579   1.807 -0.4358  0.6422  0.4107
 3605TIP3    H132374   3.266   1.568   1.898 -0.1147 -2.3913  0.0596
 3605TIP3    H232375   3.307   1.533   1.757 -1.3145  1.1012 -1.2695
 3606TIP3   OH232376   3.855   5.136   7.484 -0.0475 -0.0411 -0.0683
 3606TIP3    H132377   3.839   5.226   7.512  0.3734 -0.1202  0.4457
 3606TIP3    H232378   3.902   5.144   7.402  1.5326  0.2378  0.8274
 3607TIP3   OH232379   3.323   6.185   6.243  0.5053 -0.0627 -0.2459
 3607TIP3    H132380   3.325   6.179   6.148  0.1359  1.2930 -0.3500
 3607TIP3    H232381   3.238   6.148   6.268  0.8091 -0.8851 -0.3837
 3608TIP3   OH232382   6.050   2.859   1.322 -0.0614  0.1467 -0.5052
 3608TIP3    H132383   6.041   2.901   1.407  2.6026 -1.6920  0.8322
 3608TIP3    H232384   6.097   2.778   1.340  0.7014 -0.2882 -3.7435
 3609TIP3   OH232385   0.387   5.434   0.485 -0.3200  0.3982 -0.4182
 3609TIP3    H132386   0.378   5.339   0.492  0.7683  0.3376  0.2918
 3609TIP3    H232387   0.305   5.469   0.521  1.0156 -0.1777  3.6960
 3610TIP3   OH232388   0.711   5.719   2.064 -0.2657  0.4726  0.8174
 3610TIP3    H132389   0.622   5.683   2.070 -0.1024  0.0886  0.9311
 3610TIP3    H232390   0.708   5.777   1.988 -0.7285  0.7844  1.0654
 3611TIP3   OH232391   2.316   0.953   7.736 -0.3054  0.2926  0.6610
 3611TIP3    H132392   2.378   1.009   7.783 -1.4388  0.8777  1.5277
 3611TIP3    H232393   2.343   0.957   7.645 -0.7777  2.9032  0.5730
 3612TIP3   OH232394   0.665   3.288   0.227  0.2479  0.3522 -0.0557
 3612TIP3    H132395   0.615   3.248   0.299  0.3276  0.2722 -0.0434
 3612TIP3    H232396   0.649   3.230   0.152  2.9232 -1.6099  0.7251
 3613TIP3   OH232397   3.331   4.721   0.309  0.4415  0.2435 -0.1698
 3613TIP3    H132398   3.271   4.786   0.273  0.4922  0.0062 -0.6879
 3613TIP3    H232399   3.376   4.767   0.380 -0.5829  0.3298  0.4579
 3614TIP3   OH232400   4.464   2.777   0.900  0.1251  0.0501  0.1324
 3614TIP3    H132401   4.457   2.787   0.805  0.2849 -1.2406 -0.0343
 3614TIP3    H232402   4.424   2.857   0.936 -0.5674  0.2366 -1.0037
 3615TIP3   OH232403   1.100   2.848   8.174 -0.2928  0.2128  0.9238
 3615TIP3    H132404   1.125   2.932   8.213  0.1722 -0.1758  1.4699
 3615TIP3    H232405   1.173   2.790   8.194 -0.0614 -0.0188 -0.4663
 3616TIP3   OH232406   1.512   1.408   8.336 -0.4274 -0.1179 -0.0514
 3616TIP3    H132407   1.564   1.473   8.384  2.3194 -2.9688  1.1797
 3616TIP3    H232408   1.455   1.370   8.402  0.1750 -1.0040 -0.0246
 3617TIP3   OH232409   0.337   6.870   6.436 -0.9367  0.1674  0.6208
 3617TIP3    H132410   0.357   6.844   6.346 -1.7760  2.2236 -0.2002
 3617TIP3    H232411   0.414   6.919   6.464 -0.0756 -1.6170  1.5814
 3618TIP3   OH232412   1.679   3.135   1.130 -0.1773  0.0045  0.1229
 3618TIP3    H132413   1.772   3.144   1.152 -0.1208 -1.3448  0.5147
 3618TIP3    H232414   1.657   3.046   1.155 -1.7393  0.4810  0.5758
 3619TIP3   OH232415   0.991   4.907   0.976 -0.2325  0.4126 -0.0474
 3619TIP3    H132416   0.961   4.895   1.066 -1.2065 -1.4498 -0.5740
 3619TIP3    H232417   0.976   5.000   0.958 -0.6563  0.6664  1.4825
 3620TIP3   OH232418   5.274   5.417   1.357  0.7257 -0.0927 -0.1106
 3620TIP3    H132419   5.190   5.383   1.389  1.1267  0.4205  1.5669
 3620TIP3    H232420   5.339   5.381   1.417  1.5230  0.8641 -0.3767
 3621TIP3   OH232421   5.784   0.314   7.000  0.3193 -0.2341  0.9333
 3621TIP3    H132422   5.748   0.343   7.084 -2.2175 -0.2353 -0.0470
 3621TIP3    H232423   5.775   0.390   6.942 -0.4641 -0.9928  0.0047
 3622TIP3   OH232424   0.347   0.748   1.469 -0.0501 -0.2389 -0.2693
 3622TIP3    H132425   0.367   0.813   1.402 -2.4714 -0.6531 -1.5153
 3622TIP3    H232426   0.334   0.667   1.420 -0.6291 -0.8454  0.8465
 3623TIP3   OH232427   1.937   5.206   7.145  0.4198  0.6018  0.3826
 3623TIP3    H132428   2.007   5.154   7.185 -1.4887 -0.7944  2.1276
 3623TIP3    H232429   1.931   5.172   7.055  1.6424  0.3952  0.3692
 3624TIP3   OH232430   4.381   4.018   0.966  0.0146  0.2478  0.0152
 3624TIP3    H132431   4.306   4.070   0.936 -2.8256 -3.4160  0.0517
 3624TIP3    H232432   4.382   4.032   1.061 -0.1789  0.8568 -0.0637
 3625TIP3   OH232433   1.162   2.077   1.109 -0.0346 -0.0268 -0.8232
 3625TIP3    H132434   1.230   2.064   1.175  0.4417 -0.2647 -1.3538
 3625TIP3    H232435   1.103   2.002   1.122 -0.8150  0.7639  0.3607
 3626TIP3   OH232436   0.678   6.710   0.205  0.0528  0.2821 -0.2951
 3626TIP3    H132437   0.637   6.761   0.275  0.0382 -1.3577  0.9679
 3626TIP3    H232438   0.607   6.657   0.170  0.5256 -0.6505  0.1147
 3627TIP3   OH232439   5.989   4.941   5.806  0.5451 -0.1116 -0.2303
 3627TIP3    H132440   6.067   4.886   5.811 -0.3863 -1.6938 -1.7256
 3627TIP3    H232441   5.936   4.913   5.880  1.1035  0.4916  0.4029
 3628TIP3   OH232442   2.020   6.532   6.150  0.4949  0.3782  0.2234
 3628TIP3    H132443   2.043   6.444   6.178  2.6324  0.5066 -0.9428
 3628TIP3    H232444   1.959   6.563   6.216 -1.5088 -2.4829 -0.0908
 3629TIP3   OH232445   6.277   6.653   8.155 -0.1147  0.6770 -0.2827
 3629TIP3    H132446   6.256   6.746   8.149  1.2453  1.1785  1.7261
 3629TIP3    H232447   6.216   6.619   8.220  0.3559  0.4821  0.0575
 3630TIP3   OH232448   1.733   3.865   7.753 -0.5639 -0.3273 -0.3156
 3630TIP3    H132449   1.755   3.796   7.815 -1.4851  1.1330  1.7776
 3630TIP3    H232450   1.638   3.874   7.761 -0.6611  0.0939 -1.7648
 3631TIP3   OH232451   5.237   3.464   0.262  0.2320 -0.5787 -0.2156
 3631TIP3    H132452   5.332   3.463   0.263  0.2403  0.0405  0.8900
 3631TIP3    H232453   5.213   3.554   0.284 -0.6126 -0.9139  0.2883
 3632TIP3   OH232454   0.706   2.852   7.266  0.5645 -0.0891  0.4034
 3632TIP3    H132455   0.686   2.910   7.193  1.4293  0.7012  0.7773
 3632TIP3    H232456   0.800   2.836   7.259  0.3743 -1.3318  0.4038
 3633TIP3   OH232457   6.883   5.934   1.608  0.4987 -0.0862 -0.6484
 3633TIP3    H132458   6.822   5.860   1.603 -0.3496  0.3541  1.9082
 3633TIP3    H232459   6.852   5.994   1.541  0.1021 -1.2388 -1.5471
 3634TIP3   OH232460   2.390   1.853   8.081 -0.5225  0.5161  0.3734
 3634TIP3    H132461   2.456   1.790   8.109 -0.2168  1.0529  0.8629
 3634TIP3    H232462   2.389   1.845   7.986  0.0371  0.2994  0.3817
 3635TIP3   OH232463   5.163   5.779   0.180 -0.4882  0.1513 -0.1376
 3635TIP3    H132464   5.149   5.867   0.214  2.8021  0.6541  0.2479
 3635TIP3    H232465   5.169   5.791   0.085  0.7306  0.5231 -0.0310
 3636TIP3   OH232466   4.796   0.399   7.317 -0.0839 -0.0228 -0.0263
 3636TIP3    H132467   4.803   0.329   7.382  1.7969  0.2071  0.0582
 3636TIP3    H232468   4.750   0.469   7.362  0.8219 -0.0309  0.9305
 3637TIP3   OH232469   1.010   4.337   0.567 -0.0332  0.0425  0.2405
 3637TIP3    H132470   0.928   4.350   0.616 -1.2277  0.0493 -1.6592
 3637TIP3    H232471   1.045   4.255   0.603 -0.3735  0.5007  1.7167
 3638TIP3   OH232472   0.541   5.107   6.719  0.3448  0.1517  0.2388
 3638TIP3    H132473   0.503   5.115   6.806  0.8428  1.6297  0.3517
 3638TIP3    H232474   0.614   5.047   6.730  0.1886  0.0566  0.7706
 3639TIP3   OH232475   6.478   6.569   6.976 -0.2625  0.5134 -0.7342
 3639TIP3    H132476   6.446   6.517   7.050 -0.5543  1.0254 -0.4923
 3639TIP3    H232477   6.509   6.650   7.016  0.1582  0.5438 -1.1102
 3640TIP3   OH232478   1.311   0.462   6.411  0.4584  0.1630 -0.2041
 3640TIP3    H132479   1.312   0.507   6.495  0.3503  0.0078 -0.1197
 3640TIP3    H232480   1.398   0.476   6.374  0.4324  0.4245 -0.1690
 3641TIP3   OH232481   4.877   2.554   0.028  0.6601  0.1027 -0.5039
 3641TIP3    H132482   4.844   2.508  -0.050 -0.2382  0.8056 -0.5531
 3641TIP3    H232483   4.827   2.518   0.100  1.8183 -0.8854 -0.1532
 3642TIP3   OH232484   5.888   0.706   0.040 -0.4835 -0.0556 -0.3650
 3642TIP3    H132485   5.806   0.753   0.027 -1.2358 -1.2562 -0.0466
 3642TIP3    H232486   5.896   0.697   0.135 -0.8053 -1.3195 -0.4376
 3643TIP3   OH232487   0.167   6.363   1.785 -0.0692  0.3286  0.2693
 3643TIP3    H132488   0.216   6.427   1.837  1.2498 -1.7957  1.8029
 3643TIP3    H232489   0.145   6.294   1.847  0.1472 -1.5799 -1.6630
 3644TIP3   OH232490   2.300   1.198   6.979 -0.7884  0.1904  0.4499
 3644TIP3    H132491   2.358   1.209   6.904 -0.1484 -0.8770  0.7698
 3644TIP3    H232492   2.212   1.209   6.942 -0.5846 -1.6845 -0.7811
 3645TIP3   OH232493   6.984   4.978   6.761 -0.2552  0.1583 -0.2582
 3645TIP3    H132494   7.010   5.008   6.674  0.7558 -0.6538 -0.2564
 3645TIP3    H232495   7.008   5.049   6.820  1.6719 -0.4005 -0.3104
 3646TIP3   OH232496   5.564   6.963   1.698  0.2978 -0.2913 -0.0734
 3646TIP3    H132497   5.510   7.023   1.750 -0.3160 -0.7568 -0.1662
 3646TIP3    H232498   5.621   6.920   1.762  2.6315  2.2274 -0.2436
 3647TIP3   OH232499   0.081   2.169   7.869 -0.0651 -0.4277  0.7296
 3647TIP3    H132500   0.082   2.197   7.777 -4.1453 -1.5285  0.1505
 3647TIP3    H232501   0.067   2.249   7.918 -0.1296 -0.0731  0.1468
 3648TIP3   OH232502   4.830   4.869   5.877 -0.0068 -0.0852 -0.3203
 3648TIP3    H132503   4.907   4.828   5.916  0.9809  2.2028  0.2990
 3648TIP3    H232504   4.765   4.800   5.874  0.9910 -1.2480  2.2604
 3649TIP3   OH232505   1.129   2.296   6.493 -0.5211  1.0205  0.0626
 3649TIP3    H132506   1.097   2.276   6.581 -2.2637  0.1963 -0.7124
 3649TIP3    H232507   1.108   2.218   6.442  1.3820  1.0882 -0.8795
 3650TIP3   OH232508   1.074   3.248   0.272 -0.1341 -0.2893  0.1735
 3650TIP3    H132509   1.116   3.163   0.256  0.2830  0.1689 -1.3170
 3650TIP3    H232510   1.002   3.251   0.209  0.0886  0.6078 -0.0572
 3651TIP3   OH232511   4.928   5.696   6.741 -0.0180  0.3847  0.2990
 3651TIP3    H132512   4.864   5.757   6.779 -0.9784  0.3188 -1.1506
 3651TIP3    H232513   4.890   5.609   6.756 -0.3059  0.3472 -0.5772
 3652TIP3   OH232514   1.327   5.141   1.502  0.0110 -0.6825  0.0109
 3652TIP3    H132515   1.415   5.105   1.513 -0.3636 -1.6663 -0.0938
 3652TIP3    H232516   1.268   5.069   1.528 -0.7956 -0.8443 -2.0864
 3653TIP3   OH232517   5.144   5.433   6.755 -0.0676  0.1938 -0.3532
 3653TIP3    H132518   5.107   5.365   6.699 -1.0377  0.2545  0.2029
 3653TIP3    H232519   5.136   5.514   6.704 -1.8372  0.4184  0.2141
 3654TIP3   OH232520   0.895   4.170   0.893  0.0773  0.1929 -0.4043
 3654TIP3    H132521   0.864   4.118   0.819 -0.6262 -1.1589  0.7816
 3654TIP3    H232522   0.854   4.255   0.882  0.3868  0.1746 -1.8246
 3655TIP3   OH232523   4.213   5.846   0.178 -0.5487  0.0421  0.4218
 3655TIP3    H132524   4.192   5.848   0.271 -0.5557  1.6547  0.4059
 3655TIP3    H232525   4.140   5.890   0.135  0.0521  0.4481 -0.2097
 3656TIP3   OH232526   2.763   3.318   7.621 -0.1940 -0.1185  0.0445
 3656TIP3    H132527   2.736   3.393   7.569  0.5532  0.0176 -0.1576
 3656TIP3    H232528   2.721   3.332   7.706 -0.3928  0.3097 -0.1196
 3657TIP3   OH232529   6.856   2.571   7.036  0.0172 -0.6618 -0.1880
 3657TIP3    H132530   6.837   2.498   7.095  0.4552 -2.0068 -1.6202
 3657TIP3    H232531   6.800   2.554   6.960  0.5122  0.2292 -0.7597
 3658TIP3   OH232532   1.031   5.812   8.313  0.1470 -0.4054 -0.3993
 3658TIP3    H132533   1.026   5.892   8.366  0.0814 -0.1146 -0.8404
 3658TIP3    H232534   0.940   5.785   8.302 -0.4545  2.3356 -4.5560
 3659TIP3   OH232535   6.253   1.773   1.731 -0.0273  0.0140  0.3560
 3659TIP3    H132536   6.187   1.821   1.780 -0.2962  1.4063 -1.2764
 3659TIP3    H232537   6.295   1.839   1.675  0.8754 -1.3186 -0.6208
 3660TIP3   OH232538   1.717   5.955   5.810 -0.3051 -0.6314  0.1789
 3660TIP3    H132539   1.724   6.044   5.775  0.0201 -1.6146 -2.4515
 3660TIP3    H232540   1.623   5.939   5.817 -0.3750 -0.3809 -0.1588
 3661TIP3   OH232541   0.755   4.937   6.675  0.2993 -0.3394  0.8035
 3661TIP3    H132542   0.789   5.002   6.612 -0.4724  0.2923  1.0235
 3661TIP3    H232543   0.833   4.894   6.709  0.8169  0.3169  0.4733
 3662TIP3   OH232544   1.467   3.654   7.190  0.2905  0.5104  1.0324
 3662TIP3    H132545   1.396   3.697   7.143  0.8755 -0.0578 -0.4488
 3662TIP3    H232546   1.543   3.710   7.173  1.3446 -1.5422 -1.9363
 3663TIP3   OH232547   0.812   6.206   8.328 -0.0400 -0.1431 -0.1407
 3663TIP3    H132548   0.851   6.254   8.401 -3.4184  1.5524  0.7771
 3663TIP3    H232549   0.867   6.229   8.253  0.7695  2.0471  1.0194
 3664TIP3   OH232550   3.646   0.002   7.463 -0.2183 -0.4428  0.1398
 3664TIP3    H132551   3.691  -0.083   7.457 -0.2589 -0.4241 -0.4776
 3664TIP3    H232552   3.705   0.056   7.516  0.3244 -0.5302 -0.3579
 3665TIP3   OH232553   0.754   0.634   7.913 -0.2827  0.1595 -0.5779
 3665TIP3    H132554   0.799   0.588   7.983 -0.8590 -0.5170 -0.6357
 3665TIP3    H232555   0.664   0.646   7.946 -0.2035  1.0510 -0.6544
 3666TIP3   OH232556   1.427   3.234   0.258 -0.2600  0.5891  0.2742
 3666TIP3    H132557   1.408   3.220   0.351  0.4366 -0.1053  0.3252
 3666TIP3    H232558   1.486   3.161   0.234 -1.3199  0.0979 -0.9857
 3667TIP3   OH232559   0.319   0.776   7.558 -0.4512 -0.5482  0.6846
 3667TIP3    H132560   0.240   0.777   7.613 -0.4142  0.0773  0.7379
 3667TIP3    H232561   0.371   0.850   7.591  0.0778 -0.8560  0.5373
 3668TIP3   OH232562   5.718   3.558   0.037  0.7680 -0.4431 -0.0798
 3668TIP3    H132563   5.735   3.563   0.131  0.5413 -0.6000 -0.0311
 3668TIP3    H232564   5.791   3.606  -0.003 -0.1243  1.2844  0.2664
 3669TIP3   OH232565   6.094   2.358   0.142  0.0437  0.1863 -0.0106
 3669TIP3    H132566   6.170   2.416   0.133 -1.0138  1.5302 -0.7469
 3669TIP3    H232567   6.044   2.372   0.061 -0.7200 -1.0760  0.2207
 3670TIP3   OH232568   0.411   3.949   0.713 -0.5206  0.7016  0.6650
 3670TIP3    H132569   0.397   3.939   0.808  0.2063  0.6502  0.7674
 3670TIP3    H232570   0.415   4.043   0.699 -0.9951  0.7197  0.6269
 3671TIP3   OH232571   4.273   5.845   1.968 -0.1564  0.2071 -0.7772
 3671TIP3    H132572   4.265   5.772   2.029 -0.5013  0.7071 -0.2118
 3671TIP3    H232573   4.359   5.883   1.989 -0.1912  0.2605 -0.7303
 3672TIP3   OH232574   1.465   3.396   6.519 -0.2775  0.2073 -0.2878
 3672TIP3    H132575   1.528   3.381   6.449  0.2584 -0.7349  0.3795
 3672TIP3    H232576   1.478   3.323   6.580 -2.2268 -0.1771 -0.2768
 3673TIP3   OH232577   3.384   3.288   0.958  0.5072  0.4646 -0.1173
 3673TIP3    H132578   3.453   3.241   1.004  1.2642  1.3932 -0.2760
 3673TIP3    H232579   3.319   3.306   1.026 -0.9595 -2.7893 -0.4854
 3674TIP3   OH232580   6.571   6.619   8.361 -0.0485 -0.1150 -0.1898
 3674TIP3    H132581   6.488   6.571   8.368 -1.2416  1.8120 -0.4093
 3674TIP3    H232582   6.576   6.643   8.268  1.4257 -1.2874 -0.4471
 3675TIP3   OH232583   2.679   4.813   8.300  0.1082  0.3065 -0.1530
 3675TIP3    H132584   2.640   4.900   8.305 -0.9384 -0.1774  0.4633
 3675TIP3    H232585   2.687   4.785   8.391  0.3479 -0.2860 -0.3502
 3676TIP3   OH232586   6.672   1.325   7.742  0.8077 -0.1043 -0.1515
 3676TIP3    H132587   6.661   1.328   7.837  2.4131  0.7366  0.0402
 3676TIP3    H232588   6.696   1.234   7.724 -1.7961 -0.9095 -0.1090
 3677TIP3   OH232589   2.666   1.377   0.406 -0.4212 -0.3152 -0.2922
 3677TIP3    H132590   2.722   1.429   0.349  0.7134 -0.9684  0.1850
 3677TIP3    H232591   2.672   1.288   0.371  0.8251 -0.8624  1.1726
 3678TIP3   OH232592   6.662   6.605   6.594 -0.1051  0.1010 -0.2009
 3678TIP3    H132593   6.697   6.563   6.673 -0.8295  1.4573  0.8990
 3678TIP3    H232594   6.571   6.577   6.591 -0.6734  1.7022  0.6998
 3679TIP3   OH232595   5.836   5.023   0.929 -0.3681 -0.1755 -0.9209
 3679TIP3    H132596   5.805   4.933   0.925 -2.1062  0.3046  0.3697
 3679TIP3    H232597   5.905   5.022   0.995 -1.2443 -0.3559  0.0075
 3680TIP3   OH232598   4.120   6.443   2.091 -0.1116 -0.2034 -0.1100
 3680TIP3    H132599   4.185   6.475   2.154 -0.5190 -2.3379  1.4886
 3680TIP3    H232600   4.044   6.421   2.144 -0.4344 -2.1794 -1.2989
 3681TIP3   OH232601   5.911   3.702   8.245 -0.0205  0.0284 -0.4500
 3681TIP3    H132602   5.895   3.794   8.265  0.0073 -0.0689  0.0419
 3681TIP3    H232603   6.002   3.688   8.271 -1.0203 -1.0333  3.0518
 3682TIP3   OH232604   4.462   5.860   8.023 -0.2476  0.0337  0.5821
 3682TIP3    H132605   4.413   5.936   7.992 -0.2573 -0.0090  0.4916
 3682TIP3    H232606   4.433   5.848   8.114 -1.1928 -0.6211  0.2040
 3683TIP3   OH232607   2.272   3.765   1.573 -0.0183  0.1410 -0.0500
 3683TIP3    H132608   2.184   3.731   1.558 -0.5314  1.3791  0.0262
 3683TIP3    H232609   2.313   3.701   1.632 -0.5980 -0.8273 -0.6729
 3684TIP3   OH232610   1.629   1.525   1.260 -0.4404 -0.7850 -0.0724
 3684TIP3    H132611   1.695   1.456   1.268 -0.3197 -0.7795 -0.9024
 3684TIP3    H232612   1.633   1.572   1.343  3.0866  1.4301 -1.2371
 3685TIP3   OH232613   5.353   0.995   0.462  0.1391 -0.2196  0.1814
 3685TIP3    H132614   5.306   1.073   0.490  0.3283 -0.0962  0.1535
 3685TIP3    H232615   5.284   0.930   0.448  0.0189 -0.2173  0.7181
 3686TIP3   OH232616   1.022   3.608   7.004  0.2683  0.0483  0.3573
 3686TIP3    H132617   0.958   3.648   7.063  0.3647  0.5307  0.1414
 3686TIP3    H232618   1.033   3.519   7.037 -0.9390 -0.2345  0.0645
 3687TIP3   OH232619   4.060   2.647   8.006 -0.0892  0.2193  0.0798
 3687TIP3    H132620   4.118   2.646   8.082  1.6068  3.6191 -0.9647
 3687TIP3    H232621   4.089   2.722   7.954 -2.7279 -0.4792 -2.7369
 3688TIP3   OH232622   0.327   3.183   7.498 -0.1723 -0.5048 -0.1259
 3688TIP3    H132623   0.318   3.093   7.530  0.9214 -0.0088  1.7522
 3688TIP3    H232624   0.292   3.237   7.569  1.1470  0.6077 -0.2739
 3689TIP3   OH232625   1.061   4.437   6.212 -0.1048  0.0248  0.1331
 3689TIP3    H132626   1.105   4.518   6.186  0.4299 -0.6510 -1.1858
 3689TIP3    H232627   0.969   4.450   6.188 -0.0541  0.3286  0.1075
 3690TIP3   OH232628   3.183   0.136   6.299  0.1756  0.2110 -0.0745
 3690TIP3    H132629   3.228   0.052   6.291  0.9410  0.6280 -0.2828
 3690TIP3    H232630   3.254   0.200   6.313 -0.4674  0.6917  1.0941
 3691TIP3   OH232631   0.078   6.720   7.498 -0.5852  0.3602 -0.5921
 3691TIP3    H132632   0.025   6.662   7.444 -1.3558 -0.2531  0.7649
 3691TIP3    H232633   0.084   6.801   7.447 -1.6137 -0.0532 -1.4176
 3692TIP3   OH232634   2.799   2.247   1.719 -0.3212  0.3244  0.3711
 3692TIP3    H132635   2.789   2.202   1.635 -0.9899 -1.7206  1.4855
 3692TIP3    H232636   2.863   2.316   1.701  0.9619 -1.2074 -1.3914
 3693TIP3   OH232637   1.169   0.113   0.317 -0.4704  0.5319 -0.2022
 3693TIP3    H132638   1.194   0.031   0.360 -0.2364  0.3747 -0.6324
 3693TIP3    H232639   1.237   0.175   0.344 -0.4975  0.5153 -0.0936
 3694TIP3   OH232640   3.209   2.339   1.076  0.5532  0.1241 -0.0575
 3694TIP3    H132641   3.176   2.254   1.105 -0.7763  0.8284  0.6303
 3694TIP3    H232642   3.171   2.351   0.989 -0.7007  0.7243  0.5393
 3695TIP3   OH232643   1.396   0.577   0.045 -0.7854  0.4267 -0.3572
 3695TIP3    H132644   1.366   0.656   0.090  0.0535  0.5897 -0.0632
 3695TIP3    H232645   1.486   0.597   0.018  0.5216 -1.3743  2.1902
 3696TIP3   OH232646   5.378   1.458   6.151 -0.1950 -0.0714 -0.0803
 3696TIP3    H132647   5.456   1.513   6.142 -0.1513 -0.2306 -0.7289
 3696TIP3    H232648   5.401   1.376   6.108 -0.5770 -0.2642  0.0832
 3697TIP3   OH232649   6.524   1.842   0.877  0.5498  0.1223  0.1839
 3697TIP3    H132650   6.586   1.796   0.821  1.1312  2.6813 -1.4564
 3697TIP3    H232651   6.569   1.851   0.961  0.7328 -1.4698  0.2886
 3698TIP3   OH232652   5.699   5.363   0.744 -0.0672  0.7778 -0.2251
 3698TIP3    H132653   5.779   5.329   0.785 -0.9739 -0.3145  0.6962
 3698TIP3    H232654   5.729   5.397   0.659  1.0454 -1.6691 -0.9017
 3699TIP3   OH232655   4.827   0.724   6.963 -0.2714  0.0872 -0.3972
 3699TIP3    H132656   4.859   0.766   6.884 -1.4813  2.3136  0.2195
 3699TIP3    H232657   4.878   0.763   7.034 -1.8279  1.0417  0.2480
 3700TIP3   OH232658   6.014   3.090   1.168 -0.5581  0.3830  0.4926
 3700TIP3    H132659   6.022   3.008   1.217  1.6638  0.2651  0.0098
 3700TIP3    H232660   6.064   3.076   1.088 -2.6961  1.1716 -1.0846
 3701TIP3   OH232661   3.431   4.583   0.070  0.1370  0.4892 -0.1498
 3701TIP3    H132662   3.358   4.548   0.019 -0.4137  4.5159 -2.5870
 3701TIP3    H232663   3.393   4.603   0.156 -0.7560 -0.3794 -0.3292
 3702TIP3   OH232664   1.113   2.176   7.044  0.3490 -0.1085  0.1072
 3702TIP3    H132665   1.042   2.197   7.105 -0.2263  1.5862 -1.1063
 3702TIP3    H232666   1.071   2.168   6.959  1.3900 -0.8021 -0.3651
 3703TIP3   OH232667   1.012   5.613   1.253 -0.3511  0.1020  0.0509
 3703TIP3    H132668   1.023   5.707   1.270 -0.9645 -0.0437  1.4014
 3703TIP3    H232669   1.004   5.574   1.340  1.7489 -1.4727 -0.3650
 3704TIP3   OH232670   6.339   6.511   7.426 -0.1652 -0.7698 -0.0587
 3704TIP3    H132671   6.434   6.498   7.426  0.1974  1.1817  2.0480
 3704TIP3    H232672   6.326   6.594   7.380 -0.7281 -0.4350  0.6867
 3705TIP3   OH232673   1.227   6.453   2.560 -0.0934 -0.6045  0.2017
 3705TIP3    H132674   1.288   6.520   2.529  1.5897 -1.9710  0.4166
 3705TIP3    H232675   1.148   6.501   2.582  0.2887  1.0311 -1.7017
 3706TIP3   OH232676   6.408   3.739   0.408  0.5487 -0.1041  0.1762
 3706TIP3    H132677   6.379   3.751   0.318  0.7277  0.2468  0.1645
 3706TIP3    H232678   6.327   3.722   0.457  0.5046 -0.7846 -0.1275
 3707TIP3   OH232679   0.467   2.710   2.079 -0.1174  0.3485 -0.3536
 3707TIP3    H132680   0.459   2.657   2.158  1.1848  0.1578 -0.3329
 3707TIP3    H232681   0.494   2.796   2.111 -1.0274  0.6892 -0.4828
 3708TIP3   OH232682   0.132   4.569   6.528  0.0136 -0.4873  0.1297
 3708TIP3    H132683   0.132   4.526   6.442 -0.2969 -0.7120  0.2395
 3708TIP3    H232684   0.044   4.606   6.536  0.5659  1.0121 -0.3707
 3709TIP3   OH232685   3.459   2.950   8.062 -0.3780 -0.2145  0.1164
 3709TIP3    H132686   3.409   3.020   8.104  0.8606  0.9734 -0.3264
 3709TIP3    H232687   3.538   2.993   8.030  0.0396 -1.6725 -0.8860
 3710TIP3   OH232688   0.338   1.694   8.244 -0.2559 -0.3443  0.1211
 3710TIP3    H132689   0.255   1.740   8.259 -1.2079 -2.3552  1.3875
 3710TIP3    H232690   0.402   1.744   8.294 -1.4866 -1.0335  2.5233
 3711TIP3   OH232691   5.167   4.489   0.175 -0.2196 -0.5566  1.0238
 3711TIP3    H132692   5.169   4.411   0.120  0.4855  1.7709 -2.5458
 3711TIP3    H232693   5.078   4.490   0.212 -1.3229 -1.4940 -1.3974
 3712TIP3   OH232694   0.354   6.564   8.186  0.7509  0.3163  0.0041
 3712TIP3    H132695   0.364   6.590   8.278  0.2663  3.1739 -0.6613
 3712TIP3    H232696   0.268   6.596   8.161 -0.4265 -3.0241 -0.7635
 3713TIP3   OH232697   2.030   6.061   0.366 -0.4136 -0.4851 -0.7727
 3713TIP3    H132698   1.976   5.986   0.339  0.7100 -0.8430 -2.1158
 3713TIP3    H232699   2.087   6.026   0.434 -0.5120 -0.6206 -0.7584
 3714TIP3   OH232700   0.768   1.491   0.526  0.8199  0.0002 -0.0753
 3714TIP3    H132701   0.724   1.456   0.448  1.2222 -0.4409 -0.1108
 3714TIP3    H232702   0.703   1.547   0.567  0.7666  0.6628 -1.0102
 3715TIP3   OH232703   0.622   1.104   0.201  0.0645 -0.3223  0.3489
 3715TIP3    H132704   0.623   1.144   0.113 -0.0229  0.4680  0.6979
 3715TIP3    H232705   0.617   1.010   0.184 -1.1484 -0.1316 -0.4952
 3716TIP3   OH232706   2.307   2.480   6.668 -0.4452 -0.6859  0.1123
 3716TIP3    H132707   2.400   2.475   6.645 -0.7186 -0.5829 -1.0825
 3716TIP3    H232708   2.263   2.497   6.585 -1.6356 -1.8083  0.4779
 3717TIP3   OH232709   2.397   2.850   0.080  0.2369 -0.4569 -0.1753
 3717TIP3    H132710   2.335   2.877   0.148  0.3086 -0.9203  0.0818
 3717TIP3    H232711   2.345   2.845   0.000  0.1109 -0.0896 -0.1199
 3718TIP3   OH232712   3.667   0.096   1.589 -0.0869  0.2125 -0.4079
 3718TIP3    H132713   3.575   0.069   1.596 -0.2378  0.8340  0.1094
 3718TIP3    H232714   3.704   0.076   1.675  0.6446 -1.3528 -1.0451
 3719TIP3   OH232715   1.143   0.354   1.562 -0.4725 -0.2512 -0.3428
 3719TIP3    H132716   1.128   0.434   1.511  1.0736  0.3716  0.1160
 3719TIP3    H232717   1.129   0.381   1.653 -1.0730 -0.8035 -0.2646
 3720TIP3   OH232718   1.026   5.047   6.117  0.2964  0.1593 -0.6545
 3720TIP3    H132719   0.969   5.116   6.150 -0.8043 -0.9893 -0.1082
 3720TIP3    H232720   0.976   4.966   6.127  2.1248 -0.9378  0.1335
 3721TIP3   OH232721   0.683   0.803   6.671  0.1013  0.0464 -0.2506
 3721TIP3    H132722   0.642   0.832   6.752 -0.0116 -1.4120  0.2460
 3721TIP3    H232723   0.683   0.880   6.615 -0.5152  0.8768  0.8569
 3722TIP3   OH232724   0.420   3.251   1.997 -0.0998  0.0815 -0.0184
 3722TIP3    H132725   0.393   3.294   1.916 -1.0962 -0.4613  0.0111
 3722TIP3    H232726   0.408   3.318   2.065 -0.6406  0.0969 -0.1226
 3723TIP3   OH232727   5.444   3.878   6.936  0.0848 -0.7302 -0.2154
 3723TIP3    H132728   5.519   3.934   6.960 -0.6723  1.3706 -2.3850
 3723TIP3    H232729   5.474   3.830   6.859  0.3496 -2.6356  1.0116
 3724TIP3   OH232730   5.923   6.343   7.766  0.0119  0.2359 -0.2986
 3724TIP3    H132731   5.877   6.264   7.736  2.1495 -1.9705  1.7967
 3724TIP3    H232732   6.001   6.348   7.711  0.2485  0.4624  0.0537
 3725TIP3   OH232733   0.622   6.672   7.465  0.0946  0.6401  0.0824
 3725TIP3    H132734   0.692   6.736   7.453  0.0159  0.4072 -1.8032
 3725TIP3    H232735   0.586   6.693   7.552  1.2788  1.9324  0.3006
 3726TIP3   OH232736   0.129   2.157   6.410 -0.6231 -0.0943  0.6311
 3726TIP3    H132737   0.173   2.072   6.407  1.6373  1.0480 -0.5724
 3726TIP3    H232738   0.053   2.147   6.354  1.5156 -0.4103 -2.4565
 3727TIP3   OH232739   1.295   2.199   7.297 -0.1993  0.3329 -0.3236
 3727TIP3    H132740   1.233   2.230   7.231 -0.8605  1.1175  0.6378
 3727TIP3    H232741   1.324   2.279   7.342  0.6780 -0.1333 -0.0328
 3728TIP3   OH232742   4.664   1.200   6.986 -0.4449  0.4041  0.2723
 3728TIP3    H132743   4.755   1.179   6.964 -0.6738 -1.9812  1.2520
 3728TIP3    H232744   4.616   1.187   6.904 -0.1539 -0.2946  0.2031
 3729TIP3   OH232745   3.609   5.413   7.353 -0.3140  0.2342 -0.3799
 3729TIP3    H132746   3.574   5.419   7.264  0.9155  2.5720 -0.7884
 3729TIP3    H232747   3.697   5.451   7.346 -0.4712  1.1649  1.9510
 3730TIP3   OH232748   4.182   4.961   8.185  0.2378  0.0598 -0.3142
 3730TIP3    H132749   4.209   4.869   8.191  0.5623  0.2020  0.6079
 3730TIP3    H232750   4.115   4.971   8.254 -1.0131  0.1226 -1.4852
 3731TIP3   OH232751   3.541   0.849   1.475  0.7907 -0.0192  0.4185
 3731TIP3    H132752   3.568   0.939   1.462  0.8881 -0.1056 -0.0166
 3731TIP3    H232753   3.587   0.800   1.406  1.1556 -0.4809  0.9845
 3732TIP3   OH232754   4.777   0.273   8.248  0.3255  0.5379 -0.2771
 3732TIP3    H132755   4.692   0.316   8.245  0.5770  0.9841 -1.5104
 3732TIP3    H232756   4.831   0.332   8.301 -0.1501  0.1685  0.6586
 3733TIP3   OH232757   5.876   1.256   7.829  0.0059  0.4565  0.6418
 3733TIP3    H132758   5.794   1.296   7.857 -0.0602  2.1536 -1.7009
 3733TIP3    H232759   5.939   1.278   7.898 -0.8040  1.8784  0.9491
 3734TIP3   OH232760   1.533   2.164   7.528  0.3893 -0.2021  0.0248
 3734TIP3    H132761   1.478   2.108   7.583 -0.6911  0.5430 -0.2708
 3734TIP3    H232762   1.535   2.248   7.574 -0.9168  0.5835 -1.2666
 3735TIP3   OH232763   0.022   2.083   2.233 -0.2905 -0.1944  0.2414
 3735TIP3    H132764   0.066   2.060   2.314  1.6143 -1.4402 -1.0716
 3735TIP3    H232765   0.091   2.118   2.177 -1.5305  0.5107 -0.9112
 3736TIP3   OH232766   1.421   4.325   8.130  0.1105  0.3749 -0.1901
 3736TIP3    H132767   1.370   4.339   8.210 -1.4390  0.9645 -1.2291
 3736TIP3    H232768   1.388   4.243   8.094  2.0838 -0.8615  0.6591
 3737TIP3   OH232769   5.531   0.199   7.788 -0.4382  0.8032  0.0991
 3737TIP3    H132770   5.538   0.148   7.869  1.1715 -1.8152 -1.5593
 3737TIP3    H232771   5.443   0.180   7.755 -0.5134  0.5770  0.4235
 3738TIP3   OH232772   0.877   6.418   0.168  0.4124 -0.6837  0.8764
 3738TIP3    H132773   0.849   6.508   0.186 -2.6242 -2.1100  4.5953
 3738TIP3    H232774   0.925   6.391   0.247  0.4548 -2.5920  0.2557
 3739TIP3   OH232775   4.943   0.559   0.257 -0.2063 -0.5228 -0.5379
 3739TIP3    H132776   5.024   0.593   0.294 -0.2413 -0.9920 -0.0155
 3739TIP3    H232777   4.911   0.497   0.323  0.3827 -2.3448 -1.8773
 3740TIP3   OH232778   2.835   5.027   1.180 -0.1162  0.1005 -0.4370
 3740TIP3    H132779   2.882   4.992   1.255  0.3928 -0.2416 -0.9072
 3740TIP3    H232780   2.784   4.953   1.147  0.6576 -0.1116 -1.1952
 3741TIP3   OH232781   4.557   6.625   1.531  0.4775 -0.1543  0.0727
 3741TIP3    H132782   4.586   6.706   1.574  0.8620  0.8119 -1.8954
 3741TIP3    H232783   4.618   6.558   1.563  0.5739  0.4560  1.2175
 3742TIP3   OH232784   5.333   2.809   8.263 -0.0598  0.6178 -0.0254
 3742TIP3    H132785   5.254   2.862   8.263  0.3784  1.2859 -0.5100
 3742TIP3    H232786   5.322   2.749   8.337 -1.3804  0.1357 -0.5951
 3743TIP3   OH232787   5.385   3.470   2.031 -0.2065  0.1205  0.0805
 3743TIP3    H132788   5.389   3.557   2.070  0.0682  0.7063 -1.1864
 3743TIP3    H232789   5.292   3.449   2.028 -0.4161  1.1023 -1.0860
 3744TIP3   OH232790   5.138   0.204   6.734 -0.0621 -0.1927  0.3779
 3744TIP3    H132791   5.113   0.113   6.720 -2.0068  0.0951  1.5439
 3744TIP3    H232792   5.086   0.253   6.670 -0.2527  0.1999  0.8261
 3745TIP3   OH232793   1.704   3.739   6.147  0.1381 -0.5912 -0.7402
 3745TIP3    H132794   1.718   3.832   6.127  0.5605 -0.6275 -0.6368
 3745TIP3    H232795   1.660   3.739   6.232 -0.8680 -0.4590 -1.2508
 3746TIP3   OH232796   5.911   2.985   2.403  0.2445 -0.6557  0.2159
 3746TIP3    H132797   5.849   2.933   2.353  0.0052  0.0300 -0.2124
 3746TIP3    H232798   5.996   2.966   2.362 -0.0709  0.6194 -1.0828
 3747TIP3   OH232799   2.276   1.264   7.404  0.3384  0.0425 -0.0243
 3747TIP3    H132800   2.330   1.284   7.328 -0.8858 -0.2027 -1.0032
 3747TIP3    H232801   2.308   1.322   7.472  1.1688  0.5983 -0.8584
 3748TIP3   OH232802   6.689   1.586   1.813  0.2712 -0.2542  0.0608
 3748TIP3    H132803   6.594   1.577   1.814  0.1773  0.6258 -0.5703
 3748TIP3    H232804   6.720   1.501   1.780 -0.2370 -0.8638  1.0994
 3749TIP3   OH232805   6.410   4.002   0.994 -0.1951 -0.2220  0.5886
 3749TIP3    H132806   6.452   4.075   1.040 -3.9879  1.3044  1.9930
 3749TIP3    H232807   6.400   4.033   0.904  1.1431 -0.4304  0.3464
 3750TIP3   OH232808   4.333   0.796   6.293  0.0073 -0.0966 -0.2705
 3750TIP3    H132809   4.347   0.755   6.208 -0.6014  0.2156 -0.5221
 3750TIP3    H232810   4.297   0.882   6.273  1.3587  0.6198  0.2484
 3751TIP3   OH232811   4.341   0.825   7.424 -0.1081  0.0648 -0.1687
 3751TIP3    H132812   4.361   0.916   7.400  0.2118 -0.4069 -1.7932
 3751TIP3    H232813   4.284   0.833   7.501  1.5225  1.5669  0.9557
 3752TIP3   OH232814   3.058   1.945   1.368 -0.3239  0.0163 -0.0015
 3752TIP3    H132815   3.131   1.890   1.396  0.2740  1.1695  0.8230
 3752TIP3    H232816   2.991   1.931   1.435 -0.7259 -0.7801 -0.5688
 3753TIP3   OH232817   3.279   4.742   7.610  0.1534  0.1366  0.0314
 3753TIP3    H132818   3.347   4.681   7.640  0.3099  2.1265  4.5387
 3753TIP3    H232819   3.326   4.825   7.597 -0.5849  0.2114 -2.7536
 3754TIP3   OH232820   6.011   6.920   7.759  0.0601  0.8769 -0.4715
 3754TIP3    H132821   6.033   6.890   7.847  1.6299  1.2549 -0.7020
 3754TIP3    H232822   5.923   6.885   7.743 -1.7440  3.4861  2.4855
 3755TIP3   OH232823   2.275   1.864   6.339 -0.6023  0.8275  0.4350
 3755TIP3    H132824   2.236   1.937   6.386 -0.5515  3.1612 -2.7930
 3755TIP3    H232825   2.267   1.887   6.247  2.7833 -1.4937 -0.6764
 3756TIP3   OH232826   6.297   6.819   7.835  0.0429  0.4145  0.0829
 3756TIP3    H132827   6.237   6.757   7.793  0.1079  0.0333  0.5505
 3756TIP3    H232828   6.379   6.808   7.786 -0.2566  0.9177 -0.5382
 3757TIP3   OH232829   2.019   3.037   7.142  1.0087  0.1970  0.2065
 3757TIP3    H132830   2.081   3.039   7.069 -0.3348 -1.1489 -1.0183
 3757TIP3    H232831   2.054   2.970   7.201  1.1150 -0.0397 -0.1204
 3758TIP3   OH232832   1.466   1.910   7.342  0.1955 -0.3484  0.3195
 3758TIP3    H132833   1.545   1.862   7.365 -0.7494 -2.8941 -1.2326
 3758TIP3    H232834   1.497   1.995   7.311  2.0253 -0.0975  2.6297
 3759TIP3   OH232835   2.022   5.048   1.241  0.0903  0.4834  0.5603
 3759TIP3    H132836   2.033   5.119   1.304 -0.5332  0.7488  0.3734
 3759TIP3    H232837   2.111   5.033   1.207 -0.0055  2.3446 -0.6602
 3760TIP3   OH232838   2.571   5.816   1.833 -0.1512  0.3625  0.1080
 3760TIP3    H132839   2.510   5.823   1.759  1.4569  0.2635 -1.2907
 3760TIP3    H232840   2.636   5.884   1.816  1.0653 -0.6438  0.6544
 3761TIP3   OH232841   3.458   6.063   0.072  0.0183 -0.0846 -0.0507
 3761TIP3    H132842   3.425   6.031  -0.012 -1.2258  1.2369 -0.0916
 3761TIP3    H232843   3.546   6.025   0.078  0.0191 -0.4709 -1.7882
 3762TIP3   OH232844   3.076   3.360   2.091 -0.1695  0.1557  0.1083
 3762TIP3    H132845   3.009   3.423   2.063 -0.1433 -0.1017 -0.5584
 3762TIP3    H232846   3.034   3.310   2.161 -0.9325 -0.4642 -0.7756
 3763TIP3   OH232847   6.865   2.461   7.297 -0.2871  0.4587 -0.5576
 3763TIP3    H132848   6.791   2.407   7.271 -0.0670 -0.3156  0.3584
 3763TIP3    H232849   6.875   2.444   7.391 -2.1303  4.3864  0.5367
 3764TIP3   OH232850   0.811   5.031   7.687 -0.2158 -0.0948 -0.4197
 3764TIP3    H132851   0.766   4.991   7.761  1.6429  2.7705  2.5013
 3764TIP3    H232852   0.885   4.973   7.669 -1.7687 -1.8670 -1.5515
 3765TIP3   OH232853   1.222   5.287   6.973 -0.0698  0.4049 -0.2675
 3765TIP3    H132854   1.287   5.347   7.010  0.0767  0.0731  0.0114
 3765TIP3    H232855   1.195   5.330   6.891  0.0954  0.8101 -0.1155
 3766TIP3   OH232856   2.960   6.558   0.964  0.5880  0.4920  0.1311
 3766TIP3    H132857   3.023   6.606   1.018  2.3168 -1.0055 -0.4603
 3766TIP3    H232858   2.977   6.466   0.983 -0.3288 -0.0049 -1.2693
 3767TIP3   OH232859   1.484   0.738   6.374  0.0113 -0.8470 -0.2161
 3767TIP3    H132860   1.542   0.810   6.350  1.4756 -1.3001  1.7534
 3767TIP3    H232861   1.397   0.769   6.351  0.3938  2.2115  1.9233
 3768TIP3   OH232862   3.233   6.177   8.164  0.1658  0.0703 -0.5967
 3768TIP3    H132863   3.196   6.249   8.214 -0.9222 -1.2887  0.6543
 3768TIP3    H232864   3.250   6.214   8.078  1.0082  2.1803  0.4170
 3769TIP3   OH232865   6.713   4.757   7.863 -0.2155 -0.3154  0.5345
 3769TIP3    H132866   6.784   4.804   7.819 -0.0937 -0.9234  0.0655
 3769TIP3    H232867   6.719   4.785   7.954 -0.1714  0.6074  0.2599
 3770TIP3   OH232868   3.623   5.871   7.508 -0.4131  0.0928  0.4137
 3770TIP3    H132869   3.694   5.868   7.444 -0.8192 -1.1120 -0.0061
 3770TIP3    H232870   3.618   5.963   7.534  0.6978  0.3465 -0.2218
 3771TIP3   OH232871   6.287   5.038   0.964  0.7457 -0.9435 -0.3211
 3771TIP3    H132872   6.254   5.120   1.002  1.2885 -1.3125  0.9830
 3771TIP3    H232873   6.238   4.969   1.007 -0.6454 -1.3146 -2.3546
 3772TIP3   OH232874   4.812   4.625   0.147 -0.0017 -0.0645 -0.2418
 3772TIP3    H132875   4.723   4.626   0.182 -0.1680  0.2612 -0.6648
 3772TIP3    H232876   4.800   4.616   0.052  0.4526 -1.5336 -0.1804
 3773TIP3   OH232877   2.155   1.215   6.564  0.2262 -0.1642  0.9460
 3773TIP3    H132878   2.199   1.214   6.480 -0.4348  0.6252  0.5845
 3773TIP3    H232879   2.086   1.149   6.556 -1.4014  1.5583 -0.0160
 3774TIP3   OH232880   2.043   3.661   7.323  0.2120  0.4557 -0.2416
 3774TIP3    H132881   2.016   3.747   7.357  1.1113  0.4844  0.4257
 3774TIP3    H232882   1.961   3.621   7.293 -0.3179  1.2577  0.0942
 3775TIP3   OH232883   6.606   0.569   0.606 -0.5879  0.4379  0.0275
 3775TIP3    H132884   6.697   0.550   0.629 -0.5400  0.7785  0.1244
 3775TIP3    H232885   6.555   0.502   0.651 -0.5264  1.2731  1.4036
 3776TIP3   OH232886   6.713   6.429   0.696 -0.3722  0.3233 -0.1218
 3776TIP3    H132887   6.743   6.504   0.748 -1.8044  1.1524 -0.4172
 3776TIP3    H232888   6.617   6.435   0.700 -0.5247 -0.1770 -2.0169
 3777TIP3   OH232889   5.876   6.337   1.626 -0.2022  0.3107 -0.2282
 3777TIP3    H132890   5.845   6.318   1.537  1.2053  0.5934 -0.7930
 3777TIP3    H232891   5.931   6.415   1.617  0.4197  0.0121  0.7946
 3778TIP3   OH232892   6.842   4.061   0.308  0.1554  0.4454 -0.1944
 3778TIP3    H132893   6.757   4.045   0.268 -0.6967  0.6759  1.4460
 3778TIP3    H232894   6.822   4.084   0.399  1.9278  1.2386  0.0345
 3779TIP3   OH232895   1.345   1.032   7.673 -0.5712 -0.2361  0.1497
 3779TIP3    H132896   1.256   1.058   7.648 -0.5504  1.6551  1.7485
 3779TIP3    H232897   1.333   0.978   7.751 -0.3712 -0.9700 -0.3280
 3780TIP3   OH232898   6.104   3.449   8.140 -0.7934 -0.3752 -0.2204
 3780TIP3    H132899   6.010   3.445   8.123 -0.8279  0.4140 -0.2548
 3780TIP3    H232900   6.115   3.529   8.192 -0.1557 -0.5204 -0.1263
 3781TIP3   OH232901   2.849   5.684   0.720 -1.0138  0.1664  0.2593
 3781TIP3    H132902   2.873   5.616   0.657 -2.7579  0.2979 -0.6063
 3781TIP3    H232903   2.915   5.753   0.707  1.4295 -1.6765  1.8841
 3782TIP3   OH232904   1.740   2.988   7.137 -0.5491  0.2775  0.4365
 3782TIP3    H132905   1.833   2.978   7.159  0.0213  3.3416 -0.1635
 3782TIP3    H232906   1.740   3.048   7.062 -2.9954 -0.5995 -0.3400
 3783TIP3   OH232907   5.122   5.216   1.125 -0.3722 -0.2126  0.2845
 3783TIP3    H132908   5.159   5.249   1.043 -1.3539  0.0629 -0.0558
 3783TIP3    H232909   5.187   5.153   1.156  0.3037  0.1324 -0.3819
 3784TIP3   OH232910   3.692   1.786   1.183  0.4314  0.3478  0.3381
 3784TIP3    H132911   3.747   1.756   1.111  0.8580  0.1779  0.7325
 3784TIP3    H232912   3.753   1.811   1.252  0.0297  0.5753  0.6185
 3785TIP3   OH232913   6.786   5.020   7.204 -0.6662 -0.0239  0.0259
 3785TIP3    H132914   6.840   4.943   7.187 -0.3889  0.1582  0.0810
 3785TIP3    H232915   6.734   5.030   7.124 -1.6595 -1.0400  0.5139
 3786TIP3   OH232916   4.091   2.281   1.770  0.5488 -0.0908  0.5532
 3786TIP3    H132917   4.164   2.341   1.782  1.1760 -0.6824 -0.2785
 3786TIP3    H232918   4.027   2.331   1.719  0.0534  0.6634  1.8655
 3787TIP3   OH232919   0.674   4.577   7.106  0.4665 -0.2317  0.8640
 3787TIP3    H132920   0.630   4.631   7.171 -0.2916  0.8355 -0.4751
 3787TIP3    H232921   0.632   4.600   7.023  2.0777 -0.8035 -0.1682
 3788TIP3   OH232922   1.968   4.514   6.144  0.0695 -0.1698 -0.1027
 3788TIP3    H132923   1.986   4.514   6.050  2.1186  0.2493  0.2576
 3788TIP3    H232924   1.967   4.421   6.168  2.7505 -0.2352 -0.0163
 3789TIP3   OH232925   1.514   3.521   2.008  0.5609 -0.1295 -0.8458
 3789TIP3    H132926   1.536   3.573   1.930  0.2500  1.7671  0.2798
 3789TIP3    H232927   1.429   3.481   1.987  0.6348  0.0937 -1.5969
 3790TIP3   OH232928   6.245   4.861   5.822  0.0976  0.1854 -0.2588
 3790TIP3    H132929   6.324   4.828   5.779  0.6016  1.0865 -0.0771
 3790TIP3    H232930   6.272   4.947   5.856 -1.0366  0.5976 -0.3879
 3791TIP3   OH232931   1.351   2.798   2.197  0.2629  0.5902  0.0827
 3791TIP3    H132932   1.404   2.732   2.152  0.4220  0.9762 -0.3011
 3791TIP3    H232933   1.348   2.872   2.136 -1.1550  0.3819 -0.1425
 3792TIP3   OH232934   6.967   0.781   8.206 -0.1718  0.5306  0.3311
 3792TIP3    H132935   7.047   0.745   8.244 -1.4648 -0.9079  1.8890
 3792TIP3    H232936   6.985   0.874   8.194  0.6466  1.0030  3.9040
 3793TIP3   OH232937   1.194   1.339   0.392  0.5294  0.3519 -0.3921
 3793TIP3    H132938   1.159   1.294   0.469  0.3983  2.0728  0.6024
 3793TIP3    H232939   1.152   1.296   0.318  0.0778 -0.8410  0.5198
 3794TIP3   OH232940   3.248   2.892   0.069  0.3318  0.5573 -0.0969
 3794TIP3    H132941   3.199   2.844   0.002 -0.1796  1.5922 -0.4926
 3794TIP3    H232942   3.306   2.827   0.108 -1.8403 -0.9139  0.8867
 3795TIP3   OH232943   1.131   4.787   1.432 -0.0082  0.6033 -0.1938
 3795TIP3    H132944   1.141   4.732   1.510 -0.6186  0.2005 -0.3929
 3795TIP3    H232945   1.144   4.726   1.359  1.7654  1.1937 -0.4329
 3796TIP3   OH232946   1.753   0.163   6.275 -0.2381  0.6849 -0.4958
 3796TIP3    H132947   1.664   0.183   6.305 -1.1013 -2.7214 -0.3443
 3796TIP3    H232948   1.810   0.203   6.341 -1.7823  0.5974  0.9722
 3797TIP3   OH232949   6.137   1.410   7.576  0.2083  0.1714 -0.2162
 3797TIP3    H132950   6.095   1.325   7.569  0.7130 -0.1722  0.8083
 3797TIP3    H232951   6.175   1.412   7.664  0.2618  1.4254 -0.2408
 3798TIP3   OH232952   4.797   5.995   1.962 -0.1388  0.0827 -0.2349
 3798TIP3    H132953   4.775   5.916   2.010  1.7095  1.1605  2.6297
 3798TIP3    H232954   4.885   5.979   1.927 -0.2104  0.4480 -0.5987
 3799TIP3   OH232955   0.129   4.031   7.229  0.1125  0.0998  0.1665
 3799TIP3    H132956   0.053   3.976   7.212  1.0568 -1.1883 -0.0606
 3799TIP3    H232957   0.093   4.110   7.269 -1.4510  0.0526 -1.0429
 3800TIP3   OH232958   3.126   1.038   0.002  0.4390 -0.4383  0.0769
 3800TIP3    H132959   3.188   0.975   0.038  1.4496 -0.9111 -2.2829
 3800TIP3    H232960   3.178   1.116  -0.015 -0.2640  0.1743  0.6833
 3801TIP3   OH232961   2.784   5.721   6.480  0.0222  0.6857 -0.1649
 3801TIP3    H132962   2.804   5.752   6.568  2.3169 -0.3463 -0.2371
 3801TIP3    H232963   2.708   5.663   6.492  1.1647 -0.5877  1.4336
 3802TIP3   OH232964   3.990   2.966   7.048  0.1876  0.1146  0.5724
 3802TIP3    H132965   4.034   3.032   7.102 -0.4242  0.0168  1.1927
 3802TIP3    H232966   3.906   3.005   7.025 -0.9285 -1.0875  2.3684
 3803TIP3   OH232967   2.229   5.797   1.813 -0.2621 -0.2912 -0.3434
 3803TIP3    H132968   2.289   5.856   1.767  0.1070 -0.6207 -0.2935
 3803TIP3    H232969   2.286   5.744   1.869 -0.6805 -0.1006  0.2671
 3804TIP3   OH232970   0.014   0.002   6.789 -0.6565  0.1893 -0.1840
 3804TIP3    H132971  -0.066  -0.049   6.777 -0.2903 -0.4407  0.0096
 3804TIP3    H232972   0.077  -0.037   6.729 -0.3590  0.3859 -0.0015
 3805TIP3   OH232973   4.082   6.814   0.507 -0.3093 -0.3053  0.4070
 3805TIP3    H132974   4.164   6.811   0.555 -0.8496 -0.0931  1.3685
 3805TIP3    H232975   4.018   6.848   0.570 -0.8628  0.8147 -0.7071
 3806TIP3   OH232976   4.222   6.291   0.716  0.0118 -0.1012 -0.2494
 3806TIP3    H132977   4.219   6.267   0.809 -0.5351 -1.2109 -0.5307
 3806TIP3    H232978   4.271   6.373   0.714 -0.6708  0.3715  1.0990
 3807TIP3   OH232979   1.963   6.073   7.158 -0.1719  0.0114 -0.0841
 3807TIP3    H132980   1.905   6.095   7.231  1.0152 -1.7266  1.4878
 3807TIP3    H232981   1.921   5.998   7.116  0.0105 -0.0997 -0.0727
 3808TIP3   OH232982   3.218   1.269   7.436 -0.3152  0.4816  0.7423
 3808TIP3    H132983   3.208   1.358   7.402  0.0689  0.8934  1.6871
 3808TIP3    H232984   3.312   1.261   7.455  0.1895 -1.1007 -1.9216
 3809TIP3   OH232985   5.885   2.065   0.061 -0.2308  0.1171  0.3203
 3809TIP3    H132986   5.823   2.053  -0.011  0.3447  0.1206 -0.1832
 3809TIP3    H232987   5.964   2.097   0.019  0.7658 -1.7364  0.6889
 3810TIP3   OH232988   2.456   4.172   0.606 -0.1470 -0.3379  0.1102
 3810TIP3    H132989   2.515   4.118   0.660  0.9127  0.8352  0.1865
 3810TIP3    H232990   2.466   4.137   0.518  0.1439 -0.5897  0.2388
 3811TIP3   OH232991   3.391   0.932   8.301 -0.4221  0.0950 -0.0357
 3811TIP3    H132992   3.461   0.918   8.237  0.9030 -0.4916  1.4552
 3811TIP3    H232993   3.410   1.018   8.338  0.0868 -0.4346  0.9964
 3812TIP3   OH232994   4.990   4.109   0.642  0.2484 -0.5017 -0.3864
 3812TIP3    H132995   5.084   4.127   0.636  0.1810 -0.1203 -0.3311
 3812TIP3    H232996   4.964   4.145   0.727  0.2621 -1.5773  0.0898
 3813TIP3   OH232997   1.436   0.813   0.764 -0.1447 -0.0592 -0.0800
 3813TIP3    H132998   1.465   0.874   0.832 -1.4337  0.9105 -0.3607
 3813TIP3    H232999   1.416   0.870   0.689  0.7875 -1.0540 -1.1341
 3814TIP3   OH233000   6.686   1.303   0.423  0.4002 -0.3581  0.4952
 3814TIP3    H133001   6.677   1.248   0.501  0.4481 -0.0031  0.7529
 3814TIP3    H233002   6.746   1.254   0.367  0.3088 -0.6509  0.6468
 3815TIP3   OH233003   6.361   3.135   7.558  0.4018  0.2684 -0.4566
 3815TIP3    H133004   6.343   3.191   7.634  0.5821  0.7852 -0.7903
 3815TIP3    H233005   6.444   3.092   7.579 -0.1882 -0.5855  0.2016
 3816TIP3   OH233006   0.134   0.639   0.607 -0.9236  0.5836 -0.0969
 3816TIP3    H133007   0.132   0.582   0.530  0.1176  0.6957 -0.2165
 3816TIP3    H233008   0.198   0.598   0.665 -0.1656  1.6197 -0.1821
 3817TIP3   OH233009   2.650   4.178   7.994  0.2921 -0.0524 -0.9311
 3817TIP3    H133010   2.643   4.084   8.008  0.5343 -0.0057 -0.4987
 3817TIP3    H233011   2.598   4.194   7.915  0.0147 -0.5034 -0.8436
 3818TIP3   OH233012   4.425   3.953   0.575  0.6984  0.0270 -0.0590
 3818TIP3    H133013   4.483   3.898   0.524  0.0512  1.7561 -2.8429
 3818TIP3    H233014   4.478   4.028   0.601  0.3182  0.4906 -0.6031
 3819TIP3   OH233015   0.592   1.337   8.009 -0.4257  0.0764  0.8723
 3819TIP3    H133016   0.583   1.254   7.963 -2.0799  0.2501  0.8009
 3819TIP3    H233017   0.657   1.386   7.959 -0.1073 -0.8276  0.3894
 3820TIP3   OH233018   4.776   2.443   7.325  0.3058 -0.0592 -0.3397
 3820TIP3    H133019   4.760   2.513   7.388  0.9506  0.0403 -0.2761
 3820TIP3    H233020   4.693   2.433   7.279 -0.9057 -1.6366  1.9985
 3821TIP3   OH233021   0.160   3.076   2.241 -0.0583  0.3421 -0.1108
 3821TIP3    H133022   0.254   3.068   2.258  0.3150  0.1316 -2.0936
 3821TIP3    H233023   0.126   2.987   2.252  0.3618  0.0038 -1.4481
 3822TIP3   OH233024   1.766   1.620   8.225  0.2482 -0.1746 -0.3793
 3822TIP3    H133025   1.714   1.604   8.146  0.9276 -0.3956 -0.7928
 3822TIP3    H233026   1.854   1.637   8.192  0.2977  0.9045  0.2635
 3823TIP3   OH233027   0.242   6.392   0.455 -0.0814  0.8886  0.4024
 3823TIP3    H133028   0.310   6.334   0.491 -0.0606 -0.2652 -1.3996
 3823TIP3    H233029   0.291   6.464   0.416 -0.0020  1.0099  0.7166
 3824TIP3   OH233030   1.492   6.710   6.071 -0.0156  0.6640 -0.1326
 3824TIP3    H133031   1.433   6.755   6.132 -1.2071  0.2234 -0.9229
 3824TIP3    H233032   1.569   6.766   6.067 -0.0123  0.8442  1.5576
 3825TIP3   OH233033   3.055   3.115   1.359 -0.1071 -0.1575 -0.5526
 3825TIP3    H133034   2.966   3.084   1.340 -0.6266 -0.1872  1.6907
 3825TIP3    H233035   3.079   3.071   1.440  1.7416  0.3259 -0.7985
 3826TIP3   OH233036   0.895   5.903   6.099  0.4171  0.4104 -0.2030
 3826TIP3    H133037   0.956   5.978   6.101 -0.3806  1.0945 -0.8744
 3826TIP3    H233038   0.897   5.873   6.008 -2.2711  2.1828 -0.9459
 3827TIP3   OH233039   5.903   1.682   6.191  0.3916 -0.3517  0.6903
 3827TIP3    H133040   5.971   1.747   6.175 -0.2507  0.0528 -0.4768
 3827TIP3    H233041   5.833   1.731   6.235  0.7595 -0.7298  1.7325
 3828TIP3   OH233042   3.096   6.177   6.652  0.4934  0.5638 -0.3587
 3828TIP3    H133043   3.058   6.259   6.681 -0.8712 -0.3718  0.6353
 3828TIP3    H233044   3.129   6.195   6.564 -0.7294  1.8831 -0.5742
 3829TIP3   OH233045   4.352   1.986   0.697 -0.7822  0.0801 -0.1825
 3829TIP3    H133046   4.413   1.912   0.706 -1.6319 -0.7954 -1.3351
 3829TIP3    H233047   4.409   2.063   0.689  0.1603 -0.6092 -0.2946
 3830TIP3   OH233048   1.061   6.224   1.533  0.2501 -0.3304  0.3777
 3830TIP3    H133049   1.153   6.243   1.513  0.7417 -1.9859  0.8305
 3830TIP3    H233050   1.058   6.220   1.629 -0.0645 -1.2018  0.3443
 3831TIP3   OH233051   3.861   3.933   1.841  0.4957 -0.7775 -0.1322
 3831TIP3    H133052   3.831   4.024   1.853  0.9193 -0.7669  0.9809
 3831TIP3    H233053   3.863   3.897   1.930 -1.5552 -2.5114 -0.7139
 3832TIP3   OH233054   6.313   1.954   6.700  0.1259 -0.2955 -0.1024
 3832TIP3    H133055   6.237   1.951   6.643  0.4677 -1.7900 -0.5325
 3832TIP3    H233056   6.285   2.007   6.775 -1.9390 -2.1872  0.5810
 3833TIP3   OH233057   4.620   4.072   0.296 -0.7680  0.0767  0.4113
 3833TIP3    H133058   4.613   4.041   0.206 -1.4918  1.1948  0.0721
 3833TIP3    H233059   4.635   3.992   0.347  3.3191 -0.3239 -0.9927
 3834TIP3   OH233060   1.097   3.084   7.183 -0.3275 -0.8225 -0.7071
 3834TIP3    H133061   1.076   3.164   7.135 -1.0543 -1.3223 -1.2581
 3834TIP3    H233062   1.192   3.078   7.180 -0.2021  0.4508  0.0692
 3835TIP3   OH233063   0.072   6.981   1.099 -0.2247  0.1849 -0.2735
 3835TIP3    H133064   0.024   6.979   1.182  0.2701 -0.4693  0.0077
 3835TIP3    H233065   0.098   7.072   1.088 -0.8682  0.4007 -0.0454
 3836TIP3   OH233066   6.410   6.150   1.087  0.3718  0.2656  0.4011
 3836TIP3    H133067   6.435   6.219   1.149  1.1000 -0.1115  0.5376
 3836TIP3    H233068   6.387   6.076   1.142  0.1347  0.2195  0.2394
 3837TIP3   OH233069   1.026   4.054   1.973 -0.2048 -0.4018  0.0105
 3837TIP3    H133070   0.940   4.094   1.964 -1.4213 -2.8436  0.0264
 3837TIP3    H233071   1.024   4.013   2.060  1.7770  1.1936  0.8922
 3838TIP3   OH233072   2.688   2.260   1.968 -0.0544  0.8527 -0.2768
 3838TIP3    H133073   2.730   2.261   1.882  2.0212  2.2024  0.6811
 3838TIP3    H233074   2.723   2.183   2.012 -0.3776  0.7048 -0.2690
 3839TIP3   OH233075   3.328   0.393   0.448  0.5027  0.6244  0.8661
 3839TIP3    H133076   3.345   0.341   0.526 -0.4232  1.4026  1.6181
 3839TIP3    H233077   3.314   0.482   0.481  0.7609  1.1002 -0.2569
 3840TIP3   OH233078   1.180   5.738   0.275 -0.6735  0.2792 -0.5252
 3840TIP3    H133079   1.129   5.818   0.288 -1.2703 -0.0430 -0.8715
 3840TIP3    H233080   1.264   5.756   0.317 -0.9084  0.9830 -0.3537
 3841TIP3   OH233081   3.605   0.291   6.094  0.4350 -0.3105  0.3031
 3841TIP3    H133082   3.622   0.253   6.008  2.5625  0.2294  0.4124
 3841TIP3    H233083   3.521   0.335   6.085  0.4599 -0.5402 -1.4028
 3842TIP3   OH233084   5.566   5.772   0.060  0.0097  0.0138  0.6489
 3842TIP3    H133085   5.491   5.743   0.112 -0.0748  0.2442  0.6560
 3842TIP3    H233086   5.584   5.860   0.091 -0.4081  0.3776 -0.1121
 3843TIP3   OH233087   5.393   5.659   0.784 -0.5383 -0.2279  1.0619
 3843TIP3    H133088   5.353   5.573   0.779  0.2259 -0.5058 -1.7039
 3843TIP3    H233089   5.482   5.643   0.815  0.0426 -0.6372 -0.7519
 3844TIP3   OH233090   2.079   6.475   0.938  0.2427 -0.0415  0.4018
 3844TIP3    H133091   2.005   6.519   0.979 -0.1926 -0.4789  0.0899
 3844TIP3    H233092   2.156   6.522   0.971 -0.1962  0.7940  0.2513
 3845TIP3   OH233093   3.784   2.719   1.932 -0.6408 -0.0422  0.2162
 3845TIP3    H133094   3.866   2.697   1.976 -1.0920  0.4306  1.3218
 3845TIP3    H233095   3.736   2.636   1.928 -0.9254  0.0600  1.3432
 3846TIP3   OH233096   4.950   2.850   0.012 -0.0201 -0.1351 -0.0680
 3846TIP3    H133097   4.867   2.893  -0.006  0.1648 -0.4341 -1.7324
 3846TIP3    H233098   4.928   2.757   0.022  0.0679 -0.1689 -0.1818
 3847TIP3   OH233099   2.825   6.693   0.538 -0.0442 -0.0252 -0.3807
 3847TIP3    H133100   2.771   6.635   0.484 -4.6529  1.6175  1.9351
 3847TIP3    H233101   2.795   6.677   0.628 -0.5235  4.7545  0.5640
 3848TIP3   OH233102   4.010   6.017   0.747  0.2969  0.3134  0.3633
 3848TIP3    H133103   3.933   5.985   0.793  1.7376 -0.0491  2.6781
 3848TIP3    H233104   4.052   6.077   0.808  0.7745  2.1725 -1.6602
 3849TIP3   OH233105   2.936   6.758   6.989 -0.1384  0.1764 -0.4824
 3849TIP3    H133106   2.941   6.688   7.054  1.6655 -1.3724 -2.1400
 3849TIP3    H233107   2.843   6.761   6.965 -0.0423 -3.3887 -2.0052
 3850TIP3   OH233108   3.483   6.387   1.608  0.1737 -0.3302 -0.4997
 3850TIP3    H133109   3.486   6.298   1.571  0.1850 -1.1907  1.4118
 3850TIP3    H233110   3.433   6.376   1.689 -2.0711  1.9331 -1.4601
 3851TIP3   OH233111   5.908   6.857   1.512  0.2992 -0.0161 -0.2004
 3851TIP3    H133112   5.816   6.832   1.510  0.1745  0.4088 -2.6877
 3851TIP3    H233113   5.937   6.849   1.421  2.9163 -0.7866  0.6124
 3852TIP3   OH233114   3.151   5.829   6.991 -0.5837 -0.1773 -0.5050
 3852TIP3    H133115   3.190   5.778   6.919  2.3663  0.9103  0.1728
 3852TIP3    H233116   3.221   5.834   7.057 -3.2771 -1.4703  2.7126
 3853TIP3   OH233117   1.625   4.959   0.478 -0.1367 -0.2996 -0.1072
 3853TIP3    H133118   1.575   4.879   0.469  0.3150 -0.5913 -0.0711
 3853TIP3    H233119   1.563   5.024   0.511 -0.5653 -0.5640 -0.3880
 3854TIP3   OH233120   6.275   4.653   6.982 -0.1444  0.2177  0.5518
 3854TIP3    H133121   6.227   4.735   6.973 -1.0243 -0.0915  2.1159
 3854TIP3    H233122   6.224   4.590   6.930 -1.5807 -0.1316  2.2733
 3855TIP3   OH233123   4.073   1.546   0.403 -0.4133  0.3601 -0.2207
 3855TIP3    H133124   4.070   1.452   0.385  1.0298  0.6377 -2.2548
 3855TIP3    H233125   4.108   1.552   0.492 -0.0912 -0.9973 -0.2314
 3856TIP3   OH233126   4.043   3.402   2.704 -0.3718  0.7979  0.1587
 3856TIP3    H133127   4.032   3.450   2.622 -2.9740  0.6532  0.3507
 3856TIP3    H233128   4.042   3.310   2.678 -0.6689  0.7635  0.2863
 3857TIP3   OH233129   1.469   5.764   1.481  0.2131  0.1155  0.4327
 3857TIP3    H133130   1.444   5.822   1.553  0.5835 -2.2993  2.6337
 3857TIP3    H233131   1.391   5.762   1.424 -0.3353  1.5421  1.0971
 3858TIP3   OH233132   5.855   1.128   0.434 -0.2783  0.0208 -0.0881
 3858TIP3    H133133   5.895   1.074   0.502  0.6421 -1.4687 -1.7353
 3858TIP3    H233134   5.840   1.212   0.477  0.8824 -0.6448  1.7642
 3859TIP3   OH233135   5.651   3.425   7.944 -0.0567  0.2136 -0.4863
 3859TIP3    H133136   5.633   3.408   7.852 -0.0651  0.6948 -0.5807
 3859TIP3    H233137   5.565   3.432   7.985 -0.1508  2.2595 -0.8890
 3860TIP3   OH233138   2.605   5.883   0.761 -0.0871 -0.1185 -0.8389
 3860TIP3    H133139   2.644   5.817   0.818  1.3506  1.4393  0.1034
 3860TIP3    H233140   2.680   5.934   0.729 -1.1572  1.3813 -1.0836
 3861TIP3   OH233141   4.762   4.921   7.633  0.9219 -0.6591 -0.2685
 3861TIP3    H133142   4.675   4.882   7.640  0.3250  0.2133 -2.1073
 3861TIP3    H233143   4.815   4.874   7.697 -1.1538 -0.4672  1.6932
 3862TIP3   OH233144   4.572   0.155   7.535  0.3895 -0.0244 -0.3413
 3862TIP3    H133145   4.661   0.149   7.502  0.9270  0.4669  0.9459
 3862TIP3    H233146   4.582   0.171   7.629 -1.0222  1.6594 -0.4069
 3863TIP3   OH233147   6.847   1.549   1.254  0.1991 -0.5133 -0.0553
 3863TIP3    H133148   6.772   1.604   1.231 -1.7919 -2.2271  1.8427
 3863TIP3    H233149   6.859   1.563   1.348  2.3176 -0.2937 -0.3155
 3864TIP3   OH233150   0.253   4.806   1.054 -0.2641  0.5007 -0.5369
 3864TIP3    H133151   0.157   4.807   1.057 -0.3348  1.1766 -2.0867
 3864TIP3    H233152   0.274   4.743   0.986  0.4858 -1.0390  1.0469
 3865TIP3   OH233153   6.864   6.994   0.733  0.1207 -0.0519 -0.4324
 3865TIP3    H133154   6.879   7.056   0.804  2.9627  0.7117 -1.5392
 3865TIP3    H233155   6.879   6.908   0.772 -1.5390  0.0614  0.5641
 3866TIP3   OH233156   1.132   0.162   0.740  0.2332 -0.5867  0.3862
 3866TIP3    H133157   1.177   0.244   0.721 -1.5558  0.8013  1.7372
 3866TIP3    H233158   1.146   0.147   0.833 -1.9835 -0.1174  0.8482
 3867TIP3   OH233159   1.468   2.186   0.864 -0.0732 -0.6728 -0.0393
 3867TIP3    H133160   1.555   2.202   0.827 -0.4481 -2.3825 -1.8312
 3867TIP3    H233161   1.473   2.219   0.954  1.9758  0.5129 -0.5353
 3868TIP3   OH233162   1.760   4.938   0.748 -0.3362  0.1019  0.2877
 3868TIP3    H133163   1.685   4.932   0.688 -0.9997 -0.6087  1.1600
 3868TIP3    H233164   1.762   4.853   0.792 -0.5160  0.9485  2.0206
 3869TIP3   OH233165   1.599   0.878   7.296 -0.2310 -0.2810  0.5712
 3869TIP3    H133166   1.536   0.941   7.330 -1.0204 -1.4009  1.2636
 3869TIP3    H233167   1.618   0.908   7.207 -1.8268  0.0470  0.3158
 3870TIP3   OH233168   3.109   1.067   0.683 -0.0143 -0.4152  0.1700
 3870TIP3    H133169   3.192   1.078   0.729 -0.2683 -2.3904  1.2135
 3870TIP3    H233170   3.114   0.978   0.646 -1.1592 -0.0872 -0.8311
 3871TIP3   OH233171   5.284   3.644   8.121 -0.3024  0.1862 -0.5972
 3871TIP3    H133172   5.276   3.739   8.124  0.8542  0.2631  0.1835
 3871TIP3    H233173   5.194   3.612   8.135 -0.8879  1.1507 -1.9041
 3872TIP3   OH233174   4.215   4.742   7.408 -0.2957 -0.5687 -0.0715
 3872TIP3    H133175   4.135   4.793   7.417  0.4153  0.6366 -0.2986
 3872TIP3    H233176   4.227   4.732   7.314 -0.7804 -1.7805 -0.0298
 3873TIP3   OH233177   2.872   1.723   1.201  0.0663  0.5494  0.0989
 3873TIP3    H133178   2.877   1.656   1.269  1.1506  1.3348  0.8301
 3873TIP3    H233179   2.964   1.746   1.184 -0.2621  3.5841  1.6765
 3874TIP3   OH233180   1.384   2.261   6.830  0.0497  0.0708  0.2521
 3874TIP3    H133181   1.301   2.236   6.871  0.1616  0.0144  0.4472
 3874TIP3    H233182   1.400   2.193   6.765 -0.9299  1.0048 -1.0142
 3875TIP3   OH233183   5.349   5.991   6.967  0.0625 -0.1134  0.4059
 3875TIP3    H133184   5.322   5.900   6.955  1.2245 -0.2486 -1.6804
 3875TIP3    H233185   5.439   5.985   6.998  0.2546  0.3281 -0.0611
 3876TIP3   OH233186   6.087   5.589   1.174  0.2099 -0.5324  0.0171
 3876TIP3    H133187   6.026   5.521   1.143 -2.0923  0.9491  1.0104
 3876TIP3    H233188   6.172   5.563   1.139 -0.8105 -3.1964 -0.7354
 3877TIP3   OH233189   0.959   0.220   8.159 -0.0181 -0.3220 -0.5780
 3877TIP3    H133190   1.006   0.165   8.096 -1.5071 -1.3638 -0.8323
 3877TIP3    H233191   0.982   0.183   8.244  0.0114 -0.5152 -0.6696
 3878TIP3   OH233192   3.035   3.559   8.077  0.2715 -0.1320  0.2839
 3878TIP3    H133193   3.045   3.636   8.133  0.3358 -0.1851  0.3454
 3878TIP3    H233194   2.941   3.543   8.074  0.1774  0.5319 -0.5166
 3879TIP3   OH233195   5.783   0.123   1.483 -0.2979  0.2307 -0.0932
 3879TIP3    H133196   5.829   0.194   1.438 -0.5058  0.1889 -0.3724
 3879TIP3    H233197   5.837   0.046   1.465 -0.3053  0.2388 -0.1518
 3880TIP3   OH233198   2.708   5.008   7.608 -0.0864  0.6844 -0.2230
 3880TIP3    H133199   2.715   5.103   7.593  0.4586  1.1191  2.3903
 3880TIP3    H233200   2.799   4.978   7.608 -0.2292  0.2402 -0.4198
 3881TIP3   OH233201   5.511   5.172   7.390  0.5400 -0.6730  0.0943
 3881TIP3    H133202   5.478   5.186   7.301 -0.0193 -0.1215  0.3828
 3881TIP3    H233203   5.555   5.254   7.412  1.1538 -1.0088  0.1266
 3882TIP3   OH233204   1.801   6.208   5.726  0.5381  0.1064  0.5497
 3882TIP3    H133205   1.892   6.201   5.755  0.1278  0.4752  1.9927
 3882TIP3    H233206   1.800   6.287   5.671  1.4431 -0.9337 -1.0416
 3883TIP3   OH233207   5.565   5.726   7.557  0.3979  0.6177 -0.4051
 3883TIP3    H133208   5.543   5.750   7.467  0.6657  0.2424 -0.5700
 3883TIP3    H233209   5.646   5.677   7.550 -0.0307 -0.1615 -0.0443
 3884TIP3   OH233210   5.944   1.867   7.793 -0.1558  0.1819  0.0134
 3884TIP3    H133211   5.942   1.830   7.882  0.8111  1.1827  0.4793
 3884TIP3    H233212   5.904   1.800   7.738 -0.9602 -0.3815  1.2384
 3885TIP3   OH233213   5.734   3.631   6.879 -0.1223  0.7150  0.2999
 3885TIP3    H133214   5.741   3.666   6.968 -1.8930 -1.3566  1.3372
 3885TIP3    H233215   5.645   3.651   6.852 -0.0787  0.0068 -0.4104
 3886TIP3   OH233216   2.030   4.679   0.068 -0.0309 -0.2029  0.0820
 3886TIP3    H133217   1.956   4.630   0.105 -0.5275  1.7432  1.8412
 3886TIP3    H233218   2.071   4.721   0.143  0.3598  2.0496 -1.2935
 3887TIP3   OH233219   2.759   1.619   0.889 -0.1893 -0.2811 -0.1506
 3887TIP3    H133220   2.740   1.592   0.799  0.0621  0.2856 -0.3750
 3887TIP3    H233221   2.791   1.539   0.931  2.7240  0.1106 -1.4117
 3888TIP3   OH233222   5.354   5.075   0.648  0.0178 -0.0431 -0.0452
 3888TIP3    H133223   5.270   5.070   0.602  0.6194  1.9829 -1.4966
 3888TIP3    H233224   5.410   5.011   0.603 -0.1434  0.1338 -0.5066
 3889TIP3   OH233225   5.476   6.755   7.607 -0.0876 -0.3136  0.0075
 3889TIP3    H133226   5.447   6.683   7.664  1.2127 -1.4976 -0.7677
 3889TIP3    H233227   5.570   6.760   7.622 -0.0040  0.5378 -0.7417
 3890TIP3   OH233228   2.802   0.071   6.885  0.2626  0.0480  0.1944
 3890TIP3    H133229   2.866   0.128   6.926 -0.0696 -1.2622  2.8125
 3890TIP3    H233230   2.753   0.034   6.959 -0.0278 -2.9963 -1.3627
 3891TIP3   OH233231   2.974   0.858   1.334  0.4021  0.3880  0.3789
 3891TIP3    H133232   2.925   0.924   1.383  0.7899  0.8949  0.0829
 3891TIP3    H233233   2.986   0.895   1.247 -1.4405 -1.0469 -0.5596
 3892TIP3   OH233234   6.957   4.597   1.396 -0.3526  0.2405  0.2637
 3892TIP3    H133235   6.923   4.667   1.451 -0.0061  1.9238 -1.5678
 3892TIP3    H233236   6.879   4.555   1.359 -0.5527  1.3904 -0.6720
 3893TIP3   OH233237   0.573   5.988   8.159  0.5031  0.0831  0.4986
 3893TIP3    H133238   0.611   6.071   8.189  0.1284  0.7356 -0.7471
 3893TIP3    H233239   0.580   5.992   8.063  0.1582 -1.1765  0.4042
 3894TIP3   OH233240   2.447   3.701   1.783  0.0531  0.0661 -0.4678
 3894TIP3    H133241   2.476   3.761   1.714 -0.3749 -1.5528 -2.1150
 3894TIP3    H233242   2.522   3.694   1.842  0.8164  0.6524 -1.3465
 3895TIP3   OH233243   1.296   4.233   1.600 -0.2323 -0.3054 -0.1736
 3895TIP3    H133244   1.200   4.230   1.608 -0.3501 -0.7577 -1.4812
 3895TIP3    H233245   1.326   4.160   1.655 -0.7079 -0.7810 -0.5243
 3896TIP3   OH233246   4.691   0.625   1.849  0.1098  0.3516  0.4241
 3896TIP3    H133247   4.617   0.683   1.830 -0.3157 -0.5721 -0.8539
 3896TIP3    H233248   4.768   0.674   1.820 -0.0498  1.0052  1.0528
 3897TIP3   OH233249   0.133   3.922   8.344 -0.1548 -0.5611 -0.0243
 3897TIP3    H133250   0.086   4.005   8.336  1.0898  0.3683  1.5918
 3897TIP3    H233251   0.220   3.940   8.309  0.1810 -1.1060  0.5029
 3898TIP3   OH233252   0.125   3.845   0.240  0.3277  0.1137  0.3347
 3898TIP3    H133253   0.034   3.866   0.264  0.3389  0.3377  0.1776
 3898TIP3    H233254   0.127   3.855   0.145 -0.2683 -2.7810 -0.0875
 3899TIP3   OH233255   4.119   1.264   7.040 -0.1745  0.5902 -0.2580
 3899TIP3    H133256   4.189   1.212   7.001 -0.3351 -1.6152  2.1126
 3899TIP3    H233257   4.051   1.267   6.972  0.4454 -1.0721 -1.0115
 3900TIP3   OH233258   2.341   2.812   8.130 -0.3659  0.1804  0.1902
 3900TIP3    H133259   2.342   2.890   8.075 -1.9929  1.4315  1.8279
 3900TIP3    H233260   2.341   2.739   8.069 -0.9316  1.4911 -1.4312
 3901TIP3   OH233261   1.238   0.283   7.468  0.5569 -0.4940  0.1525
 3901TIP3    H133262   1.143   0.288   7.476  0.7546  0.4487  2.9887
 3901TIP3    H233263   1.269   0.271   7.558  3.1514  0.2473 -0.5629
 3902TIP3   OH233264   5.934   2.219   0.294 -0.0955  0.0049 -0.3553
 3902TIP3    H133265   5.914   2.147   0.234  1.1346 -0.6415 -0.0171
 3902TIP3    H233266   5.963   2.290   0.237 -0.1824 -0.1619 -0.6122
 3903TIP3   OH233267   1.131   6.912   7.707 -0.1567 -0.5450  0.4064
 3903TIP3    H133268   1.143   6.819   7.726  1.0272 -0.2337  1.2932
 3903TIP3    H233269   1.220   6.945   7.689 -0.3294  0.7439  1.7173
 3904TIP3   OH233270   1.003   3.947   7.142  0.0073 -0.4817  0.1565
 3904TIP3    H133271   1.049   3.865   7.161 -0.6604 -0.2931  3.1355
 3904TIP3    H233272   0.984   3.984   7.229  0.5977  3.0210 -1.0506
 3905TIP3   OH233273   1.665   2.882   1.591 -0.1778 -0.2890  0.0952
 3905TIP3    H133274   1.742   2.937   1.580 -0.4121 -0.4078 -2.8474
 3905TIP3    H233275   1.633   2.903   1.679  0.9161  2.7343 -0.1111
 3906TIP3   OH233276   3.272   3.985   0.182  0.1368  0.7309  0.4707
 3906TIP3    H133277   3.331   3.924   0.225  1.1690  0.8506 -0.7431
 3906TIP3    H233278   3.193   3.984   0.236 -0.6486 -3.0969 -0.4881
 3907TIP3   OH233279   6.669   1.862   1.121 -0.5922  0.2301  0.1787
 3907TIP3    H133280   6.654   1.915   1.200 -0.9052  0.1785  0.1568
 3907TIP3    H233281   6.671   1.772   1.153 -1.0971  0.1800  0.0824
 3908TIP3   OH233282   5.734   6.494   6.358  0.6952 -0.5607 -0.0152
 3908TIP3    H133283   5.712   6.587   6.355  2.1956 -0.0947  1.5099
 3908TIP3    H233284   5.746   6.468   6.267  0.4690  0.7896 -0.4420
 3909TIP3   OH233285   3.598   3.468   0.140 -0.3234 -0.5402 -0.0545
 3909TIP3    H133286   3.585   3.373   0.144  1.2065 -0.8215 -1.0958
 3909TIP3    H233287   3.511   3.502   0.122 -0.9764 -1.6981  0.7170
 3910TIP3   OH233288   3.280   3.087   8.236 -0.3521 -0.7451 -0.4983
 3910TIP3    H133289   3.292   3.038   8.317 -0.0597 -0.2705 -0.2494
 3910TIP3    H233290   3.188   3.115   8.238 -0.8678 -2.2528 -1.2004
 3911TIP3   OH233291   3.173   1.549   0.484 -0.1872 -0.3085  0.3405
 3911TIP3    H133292   3.187   1.529   0.576 -0.0050  0.4354  0.4859
 3911TIP3    H233293   3.236   1.494   0.437 -0.2114 -0.6149  0.6686
 3912TIP3   OH233294   0.846   5.148   8.198  0.0594  0.0293  0.6687
 3912TIP3    H133295   0.850   5.226   8.253  1.2780 -0.7781  1.7701
 3912TIP3    H233296   0.932   5.143   8.157  0.3066 -1.2110  1.3035
 3913TIP3   OH233297   1.454   2.002   7.023  0.6892  0.1453 -0.7861
 3913TIP3    H133298   1.403   2.046   7.091  0.3756 -0.1148 -0.8494
 3913TIP3    H233299   1.541   1.993   7.061 -0.0743 -2.2811  0.6379
 3914TIP3   OH233300   4.715   3.914   1.866  0.0174  0.3660  0.1000
 3914TIP3    H133301   4.762   3.996   1.849 -0.3201  1.0291  2.1434
 3914TIP3    H233302   4.624   3.941   1.878 -0.0251 -0.2341  1.2375
 3915TIP3   OH233303   1.988   3.057   0.401 -0.5795 -0.2078 -0.0058
 3915TIP3    H133304   2.037   3.048   0.320  0.6641  1.7298  0.4628
 3915TIP3    H233305   2.025   2.991   0.460 -0.7379 -0.8700 -0.6319
 3916TIP3   OH233306   1.877   3.180   1.880 -0.4765  0.6928 -0.1610
 3916TIP3    H133307   1.839   3.267   1.872 -0.4046  1.0571  2.4369
 3916TIP3    H233308   1.934   3.171   1.803  0.9138  3.6903  0.3721
 3917TIP3   OH233309   4.077   2.714   6.990 -0.2782 -0.5834  0.1666
 3917TIP3    H133310   4.047   2.803   7.004 -1.2771 -0.7329 -0.8201
 3917TIP3    H233311   4.043   2.691   6.903  0.5500 -1.6828  0.1034
 3918TIP3   OH233312   5.814   6.203   6.131  0.0719  0.0858  0.7421
 3918TIP3    H133313   5.886   6.218   6.191 -0.1139 -2.3637  1.7024
 3918TIP3    H233314   5.741   6.175   6.186 -0.7649 -0.1642 -0.4342
 3919TIP3   OH233315   0.514   3.054   1.857  0.7562  0.1875 -0.0432
 3919TIP3    H133316   0.466   3.105   1.922 -0.5123 -0.8147 -0.1540
 3919TIP3    H233317   0.601   3.042   1.896 -0.3875 -1.5959  2.2130
 3920TIP3   OH233318   4.387   2.387   1.953  0.2649 -0.0008 -0.3892
 3920TIP3    H133319   4.317   2.353   2.008  0.1850  2.6538  1.3428
 3920TIP3    H233320   4.465   2.385   2.008  0.8044  0.1856 -1.1269
 3921TIP3   OH233321   2.398   5.820   1.172  0.1685  0.4383 -0.2340
 3921TIP3    H133322   2.470   5.761   1.151  0.5863  0.6144  0.6598
 3921TIP3    H233323   2.327   5.793   1.113 -0.3675 -2.3304  1.4960
 3922TIP3   OH233324   0.254   4.576   6.034  0.3969  0.0180  0.2306
 3922TIP3    H133325   0.330   4.632   6.051 -0.7438  1.9826 -0.8060
 3922TIP3    H233326   0.278   4.524   5.958  0.2301  1.7120 -1.0383
 3923TIP3   OH233327   2.344   6.491   7.754 -0.4306  0.8461  0.4441
 3923TIP3    H133328   2.416   6.437   7.786 -0.6735 -0.0140 -0.4033
 3923TIP3    H233329   2.380   6.579   7.748  0.7107  0.3410 -0.4645
 3924TIP3   OH233330   1.976   0.028   8.298 -0.1256 -0.0622 -0.1052
 3924TIP3    H133331   1.906   0.090   8.275  0.0536  0.0641 -0.3173
 3924TIP3    H233332   2.015   0.005   8.214  0.8451  0.7619  0.1080
 3925TIP3   OH233333   5.018   5.540   7.132  0.5018 -0.2355  0.1326
 3925TIP3    H133334   5.041   5.601   7.062  1.1503  0.7271  1.1644
 3925TIP3    H233335   5.069   5.569   7.207  0.2490 -1.6016  0.8595
 3926TIP3   OH233336   4.907   0.491   0.788 -0.2978 -0.4731 -0.0088
 3926TIP3    H133337   4.972   0.431   0.752  1.1543  0.6386  0.6438
 3926TIP3    H233338   4.906   0.472   0.882 -0.9612 -0.5132 -0.0209
 3927TIP3   OH233339   2.923   2.708   6.173 -0.2567 -0.1740  0.1373
 3927TIP3    H133340   2.875   2.754   6.242 -1.1996 -0.6520 -0.1768
 3927TIP3    H233341   2.975   2.776   6.130 -0.0155  0.2112  1.0114
 3928TIP3   OH233342   5.030   5.218   6.618  0.0633 -0.1473  0.2114
 3928TIP3    H133343   4.940   5.247   6.605  0.1595  0.1737  0.2628
 3928TIP3    H233344   5.048   5.162   6.542 -0.1780 -0.2127  0.2019
 3929TIP3   OH233345   2.990   3.313   7.765  0.0174  0.6453  0.4837
 3929TIP3    H133346   2.955   3.317   7.677 -0.2017 -2.1125  0.3574
 3929TIP3    H233347   2.968   3.226   7.796  2.8856  0.3371  2.0664
 3930TIP3   OH233348   4.145   3.247   1.919  0.5747  0.4967  0.5585
 3930TIP3    H133349   4.075   3.291   1.870 -1.2143 -1.9121  0.7916
 3930TIP3    H233350   4.164   3.168   1.869  0.9221 -0.4371  2.0783
 3931TIP3   OH233351   3.764   6.229   8.354  0.2282  0.7119 -0.2089
 3931TIP3    H133352   3.855   6.259   8.353  0.1384  0.9796 -1.2331
 3931TIP3    H233353   3.714   6.309   8.367  0.1322  0.5423  0.5315
 3932TIP3   OH233354   2.192   4.575   8.241  0.2941 -0.1714  0.1649
 3932TIP3    H133355   2.133   4.600   8.312 -0.2780 -0.4758 -0.1959
 3932TIP3    H233356   2.134   4.545   8.171  0.9242 -1.6504  0.2519
 3933TIP3   OH233357   6.244   0.037   1.494 -0.0138 -0.3214  0.0871
 3933TIP3    H133358   6.266   0.073   1.580 -0.5056 -1.2429  0.6085
 3933TIP3    H233359   6.296  -0.043   1.487  1.5157  0.7273 -1.3086
 3934TIP3   OH233360   6.798   6.886   1.483 -0.2815 -0.5843  0.1362
 3934TIP3    H133361   6.776   6.969   1.524  3.5464  1.0358 -0.7158
 3934TIP3    H233362   6.788   6.902   1.389  1.1533 -0.8351 -0.0752
 3935TIP3   OH233363   6.770   4.847   8.127  0.1684  0.6657  0.6004
 3935TIP3    H133364   6.694   4.901   8.150 -0.2415  0.5646 -0.4445
 3935TIP3    H233365   6.843   4.888   8.173 -0.4877  0.8396  1.5324
 3936TIP3   OH233366   0.120   6.618   7.744  0.7139 -0.0691 -0.3184
 3936TIP3    H133367   0.081   6.665   7.671  0.0564  1.1071  0.7573
 3936TIP3    H233368   0.200   6.665   7.763  0.7539 -0.2185 -0.1144
 3937TIP3   OH233369   0.754   4.421   6.451 -0.4020 -0.3566  0.0557
 3937TIP3    H133370   0.846   4.396   6.441 -0.4952 -0.9322  0.5375
 3937TIP3    H233371   0.754   4.517   6.446  0.5260 -0.1841  2.1448
 3938TIP3   OH233372   1.348   6.320   0.784 -0.2235  0.4372  0.7404
 3938TIP3    H133373   1.295   6.300   0.861  0.0987 -0.0851  0.8312
 3938TIP3    H233374   1.287   6.360   0.722 -0.7482 -0.2116  0.8242
 3939TIP3   OH233375   3.549   3.201   1.782  0.1201 -0.2752  0.4418
 3939TIP3    H133376   3.624   3.233   1.833 -0.5679 -0.9777  1.9597
 3939TIP3    H233377   3.477   3.199   1.845 -1.2858  0.6571 -1.0443
 3940TIP3   OH233378   5.585   3.016   7.712 -0.4239  0.1287 -0.1575
 3940TIP3    H133379   5.595   2.942   7.653 -1.6898  0.4020 -0.7557
 3940TIP3    H233380   5.673   3.053   7.720 -0.0460 -0.5709 -0.9975
 3941TIP3   OH233381   3.739   5.174   1.908  0.0294  0.2245 -0.0838
 3941TIP3    H133382   3.713   5.265   1.922  1.7528  0.9675 -1.3550
 3941TIP3    H233383   3.747   5.137   1.996  0.3153  1.5986  0.4846
 3942TIP3   OH233384   1.433   0.555   0.851 -0.0481 -0.3746 -0.1599
 3942TIP3    H133385   1.517   0.511   0.863 -0.3898 -1.7971 -2.3015
 3942TIP3    H233386   1.455   0.638   0.809  0.3581 -0.2658  0.2722
 3943TIP3   OH233387   2.307   5.587   6.082  0.0920 -0.0463 -0.4383
 3943TIP3    H133388   2.383   5.617   6.031  0.5304 -0.6102 -0.1401
 3943TIP3    H233389   2.239   5.651   6.064  0.3150 -0.0900 -1.5319
 3944TIP3   OH233390   0.649   1.246   8.309 -0.3080  0.7392  0.1513
 3944TIP3    H133391   0.575   1.306   8.312 -0.3795  0.6251  1.0454
 3944TIP3    H233392   0.713   1.289   8.252 -0.4827  1.5298  0.5295
 3945TIP3   OH233393   3.870   0.756   7.364  0.4255  0.1639 -0.2554
 3945TIP3    H133394   3.880   0.843   7.325 -1.1515  0.0719 -0.9527
 3945TIP3    H233395   3.878   0.772   7.458 -2.6604  1.6335 -0.1097
 3946TIP3   OH233396   2.444   2.605   7.980  0.1149 -1.1559 -0.4894
 3946TIP3    H133397   2.383   2.610   7.906 -0.8942 -1.0797  0.3223
 3946TIP3    H233398   2.473   2.513   7.981  0.5782 -1.0261 -1.3121
 3947TIP3   OH233399   5.956   2.011   7.143 -0.3410  0.5026 -0.5465
 3947TIP3    H133400   5.860   2.013   7.147 -0.2958  2.4466  0.8432
 3947TIP3    H233401   5.978   2.073   7.073 -0.0801  0.8890 -0.1231
 3948TIP3   OH233402   5.266   0.378   6.920  0.1752 -0.1926 -0.4938
 3948TIP3    H133403   5.221   0.331   6.851  0.0406  0.0523 -0.5715
 3948TIP3    H233404   5.342   0.323   6.941 -0.6052 -1.0223  0.2178
 3949TIP3   OH233405   3.824   1.397   7.730 -0.2192  0.3199 -0.1025
 3949TIP3    H133406   3.851   1.445   7.808  0.2285 -0.3980  0.1932
 3949TIP3    H233407   3.760   1.333   7.762  0.4455 -0.4058 -0.2134
 3950TIP3   OH233408   6.670   5.504   1.151  0.0987  0.8175  0.2066
 3950TIP3    H133409   6.633   5.590   1.130 -1.8623  0.4031  1.6790
 3950TIP3    H233410   6.764   5.515   1.139 -0.3480  1.7247 -4.5143
 3951TIP3   OH233411   1.579   5.650   0.670  0.3189  0.4105 -0.4573
 3951TIP3    H133412   1.501   5.596   0.683  0.0186  1.0485  0.4925
 3951TIP3    H233413   1.599   5.642   0.577  0.1807 -1.1940 -0.3702
 3952TIP3   OH233414   6.782   6.959   1.221 -0.6286 -0.6167 -0.4602
 3952TIP3    H133415   6.804   7.043   1.182 -1.7413 -0.6752 -1.2644
 3952TIP3    H233416   6.720   6.920   1.160 -2.2648 -0.8101  1.2317
 3953TIP3   OH233417   1.005   0.126   1.794  0.3328 -0.0868 -0.7285
 3953TIP3    H133418   0.942   0.106   1.863  2.5862  0.1177  1.4969
 3953TIP3    H233419   1.017   0.221   1.799  0.6916 -0.0974 -1.2653
 3954TIP3   OH233420   4.127   1.864   6.814 -0.2656  0.3407  0.0869
 3954TIP3    H133421   4.057   1.898   6.758  0.1511  0.5472 -0.3139
 3954TIP3    H233422   4.081   1.814   6.882 -0.7972  0.4292 -0.2018
 3955TIP3   OH233423   4.909   2.122   0.434  0.0147 -0.4855  0.4890
 3955TIP3    H133424   4.890   2.099   0.525  1.2558 -2.2597  0.3441
 3955TIP3    H233425   4.836   2.085   0.385 -1.1563  1.2838  0.7835
 3956TIP3   OH233426   3.066   1.179   6.799 -0.0071 -0.3347  0.3517
 3956TIP3    H133427   2.972   1.193   6.792 -0.4140 -2.6510  0.2633
 3956TIP3    H233428   3.088   1.208   6.888 -1.0865 -1.0233  0.8638
 3957TIP3   OH233429   6.955   2.452   1.661 -0.5773 -0.0649 -0.8835
 3957TIP3    H133430   6.879   2.461   1.602 -0.4967  2.4452 -0.7022
 3957TIP3    H233431   7.019   2.514   1.626 -0.1918  0.8285  1.2907
 3958TIP3   OH233432   0.451   4.634   8.324  0.3801  0.4398 -0.1131
 3958TIP3    H133433   0.383   4.701   8.326  1.2188  1.3396 -0.5848
 3958TIP3    H233434   0.516   4.664   8.388 -0.3983 -1.2575  1.5667
 3959TIP3   OH233435   2.036   6.820   1.453 -0.2533  0.2807  0.1401
 3959TIP3    H133436   2.086   6.797   1.375 -1.9337 -2.4375 -0.2664
 3959TIP3    H233437   2.066   6.758   1.520 -2.1749 -0.6615  0.1960
 3960TIP3   OH233438   1.591   2.689   6.375  0.0028  0.2730  0.1454
 3960TIP3    H133439   1.649   2.614   6.378 -0.3529  0.0176  0.8332
 3960TIP3    H233440   1.536   2.674   6.299  0.5513  0.3099 -0.2657
 3961TIP3   OH233441   3.648   5.226   7.927  0.1612  0.2302 -0.6374
 3961TIP3    H133442   3.606   5.159   7.873  0.2551  0.4923 -1.0412
 3961TIP3    H233443   3.579   5.255   7.987 -0.0880  0.2934 -0.9538
 3962TIP3   OH233444   0.328   4.765   0.303 -0.5832  0.1572 -0.6610
 3962TIP3    H133445   0.384   4.800   0.373 -0.2596 -0.4952 -0.5751
 3962TIP3    H233446   0.283   4.841   0.267  0.2503  0.6799 -0.6283
 3963TIP3   OH233447   6.083   5.350   7.849  0.2174 -0.2707 -0.0846
 3963TIP3    H133448   5.994   5.361   7.884 -0.2455  0.8013 -1.5115
 3963TIP3    H233449   6.108   5.262   7.878 -1.3924 -0.6926  0.1816
 3964TIP3   OH233450   6.295   1.155   1.440 -0.7647 -0.6139 -0.1859
 3964TIP3    H133451   6.265   1.246   1.435  1.2375  0.0621 -0.8353
 3964TIP3    H233452   6.374   1.158   1.494  0.4358 -1.6074 -1.7709
 3965TIP3   OH233453   3.480   3.340   7.069 -0.1304  0.1688  0.0336
 3965TIP3    H133454   3.418   3.276   7.035 -0.0247  0.2667 -0.3471
 3965TIP3    H233455   3.540   3.289   7.124 -0.4576  0.0514  0.2841
 3966TIP3   OH233456   3.365   1.077   7.180  0.3463  0.2111 -0.0586
 3966TIP3    H133457   3.344   1.105   7.269  1.0610  2.5993 -0.5875
 3966TIP3    H233458   3.458   1.057   7.182  0.4319  0.5800 -0.3480
 3967TIP3   OH233459   0.724   4.321   1.881 -0.0254  0.2477  0.6050
 3967TIP3    H133460   0.743   4.249   1.941  0.0356  0.2640  0.6056
 3967TIP3    H233461   0.679   4.386   1.935 -0.8204 -0.1373  0.4216
 3968TIP3   OH233462   2.428   5.900   6.640 -0.5948 -0.1876 -0.0272
 3968TIP3    H133463   2.436   5.964   6.711  0.9171  0.2890 -0.5897
 3968TIP3    H233464   2.517   5.869   6.625 -0.8884 -0.3407 -1.6598
 3969TIP3   OH233465   6.712   1.796   1.556 -0.1254 -0.0014 -0.2967
 3969TIP3    H133466   6.762   1.877   1.563 -0.0112 -0.0267 -0.7911
 3969TIP3    H233467   6.776   1.730   1.529 -0.5669  0.1557 -1.8762
 3970TIP3   OH233468   2.152   6.826   6.110 -0.2010 -0.3950 -0.0862
 3970TIP3    H133469   2.070   6.837   6.061  0.0325  0.0728 -0.3714
 3970TIP3    H233470   2.195   6.752   6.068 -0.3795 -0.5128 -0.0651
 3971TIP3   OH233471   2.562   6.334   2.232 -0.4209  0.3900 -0.1391
 3971TIP3    H133472   2.573   6.359   2.323 -0.7574  1.5446 -0.4018
 3971TIP3    H233473   2.565   6.417   2.183 -1.3771 -0.0870 -1.0584
 3972TIP3   OH233474   6.312   3.292   0.412 -0.2605  0.0163  0.4177
 3972TIP3    H133475   6.399   3.320   0.439  0.3167 -1.6869  0.4553
 3972TIP3    H233476   6.252   3.345   0.465  0.7779 -0.1103  1.7744
 3973TIP3   OH233477   0.458   2.137   8.014 -0.3918  0.0656  0.2916
 3973TIP3    H133478   0.507   2.186   8.080  1.9047 -1.9421  0.1844
 3973TIP3    H233479   0.483   2.177   7.931  0.8334 -0.7164  0.2681
 3974TIP3   OH233480   0.471   3.468   0.320  0.2255 -0.1738  0.0995
 3974TIP3    H133481   0.544   3.453   0.261  0.1537 -0.7455  0.1504
 3974TIP3    H233482   0.395   3.434   0.272  0.0154  0.2554  0.1195
 3975TIP3   OH233483   6.322   3.275   7.786  0.0261  0.1639  0.9089
 3975TIP3    H133484   6.390   3.341   7.799 -0.2457  0.1181  2.8468
 3975TIP3    H233485   6.241   3.319   7.809 -0.5684  0.0309 -0.7874
 3976TIP3   OH233486   0.874   5.250   6.231 -0.0543  0.3850 -0.7502
 3976TIP3    H133487   0.824   5.328   6.209  0.0547  0.4549 -0.7498
 3976TIP3    H233488   0.914   5.270   6.316  1.6116  1.1250 -1.6620
 3977TIP3   OH233489   5.375   5.877   7.243  0.3022  0.0022 -0.5503
 3977TIP3    H133490   5.339   5.948   7.191 -0.6563 -1.2491 -1.6786
 3977TIP3    H233491   5.313   5.866   7.315  2.2891  2.5885  1.7583
 3978TIP3   OH233492   6.958   6.846   8.008 -0.1875 -0.2632 -0.0192
 3978TIP3    H133493   6.879   6.857   8.060 -0.6631 -2.0009 -0.2931
 3978TIP3    H233494   6.981   6.934   7.979 -1.9534  0.2923  0.1694
 3979TIP3   OH233495   4.895   3.353   7.104  0.2788 -0.1387 -0.0228
 3979TIP3    H133496   4.839   3.275   7.104 -1.2926  0.9176  1.3363
 3979TIP3    H233497   4.906   3.374   7.011 -2.0043 -0.1444 -0.3558
 3980TIP3   OH233498   2.030   2.447   7.834  0.4816 -0.0839 -0.8266
 3980TIP3    H133499   2.090   2.394   7.782  0.9687  1.3058 -1.7397
 3980TIP3    H233500   1.943   2.426   7.800  0.8604  1.5490 -2.9931
 3981TIP3   OH233501   5.214   6.879   6.539 -0.5895  0.3692 -0.9127
 3981TIP3    H133502   5.144   6.893   6.602  0.3830  1.0370  0.0566
 3981TIP3    H233503   5.212   6.956   6.482  0.4253  1.2451  0.1892
 3982TIP3   OH233504   0.381   0.524   0.720  0.3174  0.0179  0.0093
 3982TIP3    H133505   0.438   0.601   0.715  0.4430 -0.0200  0.7507
 3982TIP3    H233506   0.438   0.450   0.698 -0.0176  0.2157 -1.6140
 3983TIP3   OH233507   4.091   2.184   0.269  0.3454 -0.5869 -0.2291
 3983TIP3    H133508   4.185   2.199   0.270 -0.0415  2.6933 -0.7537
 3983TIP3    H233509   4.065   2.186   0.361  0.3738  3.1134 -0.1378
 3984TIP3   OH233510   0.184   3.256   7.722  0.1160 -0.7401  0.3040
 3984TIP3    H133511   0.228   3.311   7.787 -2.4406  0.4797  1.1070
 3984TIP3    H233512   0.200   3.166   7.751  2.4783 -0.4221  0.2165
 3985TIP3   OH233513   4.228   3.495   1.449  0.2986 -0.4308 -0.2885
 3985TIP3    H133514   4.135   3.496   1.429 -0.2595 -1.1283  1.9669
 3985TIP3    H233515   4.251   3.588   1.461 -0.5134 -0.3463  0.7424
 3986TIP3   OH233516   0.209   2.809   2.224  0.3767 -0.2881 -0.2425
 3986TIP3    H133517   0.240   2.749   2.293  0.8618  0.2538  0.0138
 3986TIP3    H233518   0.273   2.799   2.154  1.0644  0.7195  0.2271
 3987TIP3   OH233519   1.359   2.053   0.284  0.2513 -0.2550  0.0195
 3987TIP3    H133520   1.370   2.055   0.189  2.4897  0.3908  0.2436
 3987TIP3    H233521   1.371   2.143   0.312 -1.2804 -0.2825  0.8707
 3988TIP3   OH233522   2.551   0.694   7.783  0.2579  0.0578  0.1115
 3988TIP3    H133523   2.521   0.783   7.798 -1.2103 -0.7947  2.9458
 3988TIP3    H233524   2.599   0.670   7.863 -1.1057 -2.2856  0.3346
 3989TIP3   OH233525   3.692   4.353   6.560  0.2253  0.1840 -0.0989
 3989TIP3    H133526   3.613   4.406   6.546  0.0173 -0.2719 -0.6447
 3989TIP3    H233527   3.744   4.406   6.620  0.1903  1.1988 -0.9327
 3990TIP3   OH233528   6.751   5.430   5.644 -0.3590 -0.2464 -0.2309
 3990TIP3    H133529   6.781   5.492   5.711 -1.0689  0.1121 -0.2354
 3990TIP3    H233530   6.803   5.451   5.567  1.2276 -1.3602  0.4852
 3991TIP3   OH233531   0.534   4.608   6.860 -0.3121 -0.3697 -0.4818
 3991TIP3    H133532   0.555   4.701   6.856 -0.4866 -0.2559  0.8094
 3991TIP3    H233533   0.445   4.602   6.826 -0.4814  0.0118 -0.1184
 3992TIP3   OH233534   2.308   0.801   1.030  0.1512  0.2894 -0.2788
 3992TIP3    H133535   2.378   0.865   1.019 -1.3560  1.8572 -1.3098
 3992TIP3    H233536   2.296   0.764   0.942 -0.4923  0.2753 -0.1902
 3993TIP3   OH233537   6.162   2.124   1.765 -0.1379  0.0824 -0.0863
 3993TIP3    H133538   6.200   2.212   1.767  0.5732 -0.2189  0.0635
 3993TIP3    H233539   6.194   2.082   1.845 -2.0450  0.3090  0.8410
 3994TIP3   OH233540   1.234   5.639   7.177 -0.1622  0.4977  0.1296
 3994TIP3    H133541   1.310   5.616   7.123  0.6714  1.9314  0.6471
 3994TIP3    H233542   1.244   5.585   7.256  0.7275  1.1803  0.5049
 3995TIP3   OH233543   6.567   1.765   7.331  0.3700 -0.1495  0.4935
 3995TIP3    H133544   6.540   1.689   7.281 -1.2166  1.0075 -0.4887
 3995TIP3    H233545   6.529   1.751   7.418 -1.2031  0.1996 -0.1125
 3996TIP3   OH233546   4.705   6.925   8.045 -0.5119 -0.7306  0.3714
 3996TIP3    H133547   4.620   6.912   8.003 -0.1048  1.0915 -1.1541
 3996TIP3    H233548   4.763   6.955   7.974  0.8578  0.1078  1.7692
 3997TIP3   OH233549   1.934   2.675   6.653 -0.5075  0.1845 -0.6014
 3997TIP3    H133550   1.996   2.687   6.580 -0.9681 -0.3629 -1.1007
 3997TIP3    H233551   1.905   2.584   6.643  1.0454 -0.6227  1.5538
 3998TIP3   OH233552   2.238   4.433   1.131  0.5728 -0.1442 -0.8915
 3998TIP3    H133553   2.325   4.446   1.169  1.5206 -0.0453 -2.9626
 3998TIP3    H233554   2.201   4.521   1.126  1.1277  0.0562 -1.6877
 3999TIP3   OH233555   1.685   4.037   8.074  0.4284 -0.3458  0.2750
 3999TIP3    H133556   1.607   4.053   8.127  0.0732  0.7054 -0.5299
 3999TIP3    H233557   1.684   4.106   8.008  1.0617 -1.4045 -0.8827
 4000TIP3   OH233558   5.752   6.625   0.487  0.0768  0.1342  0.0841
 4000TIP3    H133559   5.837   6.582   0.498 -0.0133 -0.1346 -0.2549
 4000TIP3    H233560   5.730   6.611   0.395  0.0604  0.9393 -0.0474
 4001TIP3   OH233561   5.454   3.481   0.730 -0.1682  0.0489 -0.3713
 4001TIP3    H133562   5.373   3.494   0.681 -0.7100 -1.3215  0.1021
 4001TIP3    H233563   5.478   3.390   0.712  1.3391  0.4709 -0.5999
 4002TIP3   OH233564   6.222   3.537   0.578 -0.3456  0.3088 -0.3660
 4002TIP3    H133565   6.163   3.568   0.510 -0.6640 -0.2686 -0.3586
 4002TIP3    H233566   6.169   3.537   0.658 -1.1013 -2.4353 -0.7521
 4003TIP3   OH233567   1.578   0.755   8.008 -0.6221 -0.1078  0.3381
 4003TIP3    H133568   1.630   0.742   7.929  0.4358 -1.6521  1.2191
 4003TIP3    H233569   1.618   0.831   8.051 -2.8396  2.4606 -1.7766
 4004TIP3   OH233570   5.066   3.826   1.977 -0.2339  0.6315 -0.2054
 4004TIP3    H133571   5.054   3.912   2.016 -0.8363  0.1308  0.7499
 4004TIP3    H233572   4.999   3.771   2.018  0.6996 -0.5043 -0.1472
 4005TIP3   OH233573   3.661   6.137   7.589  0.6265 -0.4271 -0.1611
 4005TIP3    H133574   3.721   6.123   7.662  0.2436  0.4721  0.3409
 4005TIP3    H233575   3.606   6.210   7.617  0.6707  0.1422 -1.4682
 4006TIP3   OH233576   6.935   5.542   1.039  0.6656  0.2947  0.4956
 4006TIP3    H133577   6.871   5.556   0.970  0.6843  1.0441  0.6193
 4006TIP3    H233578   6.959   5.450   1.031 -0.9361 -0.1857  0.9036
 4007TIP3   OH233579   0.196   6.234   6.933  0.9919 -0.4049 -0.1957
 4007TIP3    H133580   0.233   6.165   6.989  1.3281 -0.0132  0.0707
 4007TIP3    H233581   0.133   6.280   6.990  1.3645  0.0199 -0.1233
 4008TIP3   OH233582   2.629   1.810   8.221 -0.4327  0.2205  0.6363
 4008TIP3    H133583   2.596   1.873   8.285  0.2428  1.9519 -0.6302
 4008TIP3    H233584   2.715   1.785   8.254 -0.7753 -0.1894  1.2341
 4009TIP3   OH233585   3.893   3.844   0.466  0.1669 -0.0334  0.4929
 4009TIP3    H133586   3.936   3.893   0.536 -0.2834  0.0710  0.6996
 4009TIP3    H233587   3.852   3.770   0.511 -1.8049  1.0870  0.6611
 4010TIP3   OH233588   2.482   3.160   0.018 -0.2507  0.1310 -0.2531
 4010TIP3    H133589   2.539   3.150   0.094 -0.5529 -0.4197 -0.0890
 4010TIP3    H233590   2.394   3.145   0.053 -0.8218  3.5640  0.0590
 4011TIP3   OH233591   6.837   4.376   7.110 -0.4438  0.3149  0.2301
 4011TIP3    H133592   6.831   4.471   7.105  1.5665  0.4657 -0.0052
 4011TIP3    H233593   6.928   4.356   7.088 -0.8449 -1.6764  0.1743
 4012TIP3   OH233594   0.066   6.280   7.992  0.1952 -0.0115  0.1436
 4012TIP3    H133595   0.018   6.359   7.966 -0.9210 -0.5537  0.5171
 4012TIP3    H233596   0.103   6.302   8.078  0.9030  0.5172 -0.2831
 4013TIP3   OH233597   1.781   5.493   6.222 -0.1699 -0.3373  0.1300
 4013TIP3    H133598   1.808   5.584   6.207 -1.1548 -0.0944 -0.3093
 4013TIP3    H233599   1.851   5.440   6.184  0.9871  0.2166  1.4428
 4014TIP3   OH233600   4.167   2.282   6.684 -0.1258 -0.1442  0.0274
 4014TIP3    H133601   4.117   2.245   6.757  0.2792  0.5115  0.6551
 4014TIP3    H233602   4.134   2.237   6.606  0.3702 -1.8330  0.7502
 4015TIP3   OH233603   6.838   2.951   6.424  0.5366 -0.4876 -0.2081
 4015TIP3    H133604   6.828   3.042   6.396 -0.6399 -0.1097  1.3498
 4015TIP3    H233605   6.752   2.912   6.414  1.0009 -1.4192 -0.7444
 4016TIP3   OH233606   4.562   4.250   8.021 -0.3037 -0.0542 -0.3933
 4016TIP3    H133607   4.626   4.216   7.959  0.7735  1.3633 -0.1294
 4016TIP3    H233608   4.577   4.201   8.102  0.7570  0.5473 -0.2118
 4017TIP3   OH233609   1.791   2.897   0.850 -0.0978  0.4761  0.2850
 4017TIP3    H133610   1.805   2.880   0.943  1.6143  2.6036  0.4843
 4017TIP3    H233611   1.879   2.902   0.813 -0.7599 -1.3817 -1.7072
 4018TIP3   OH233612   6.553   0.796   0.137  0.2734  0.3509 -0.3736
 4018TIP3    H133613   6.614   0.744   0.084 -0.7043  0.6121 -1.8137
 4018TIP3    H233614   6.476   0.741   0.146  1.2345 -0.6864  2.8944
 4019TIP3   OH233615   0.620   5.650   1.796 -0.2261  0.3371 -0.2863
 4019TIP3    H133616   0.542   5.597   1.781  1.0047 -1.9326  0.8123
 4019TIP3    H233617   0.693   5.587   1.795  1.5248  2.2398 -0.4765
 4020TIP3   OH233618   2.493   1.804   6.603 -0.2786 -0.0848 -0.6201
 4020TIP3    H133619   2.446   1.844   6.530  1.6911  1.2303 -1.2432
 4020TIP3    H233620   2.583   1.797   6.573  0.7244  1.0074  1.8773
 4021TIP3   OH233621   3.429   6.097   6.934 -0.0148  0.6620  0.6169
 4021TIP3    H133622   3.476   6.021   6.967  1.1095  1.6915  1.4925
 4021TIP3    H233623   3.497   6.154   6.898 -0.5976  1.9691  1.4660
 4022TIP3   OH233624   3.392   1.648   0.021 -0.0134  0.6362  0.2178
 4022TIP3    H133625   3.319   1.624   0.080  0.4985  0.5055  0.8106
 4022TIP3    H233626   3.460   1.680   0.080  0.9125 -0.4877 -0.1992
 4023TIP3   OH233627   3.295   4.353   7.269  0.5784  0.2584  0.0064
 4023TIP3    H133628   3.294   4.448   7.276  1.5293  0.2811  0.0015
 4023TIP3    H233629   3.355   4.324   7.338  1.6768 -0.2157 -1.1198
 4024TIP3   OH233630   4.649   1.035   7.622 -0.4142  0.2462  0.1647
 4024TIP3    H133631   4.569   1.086   7.607 -0.9077  0.3022  2.6502
 4024TIP3    H233632   4.668   0.995   7.537 -1.7355  2.1112 -1.0808
 4025TIP3   OH233633   4.070   6.064   6.995 -0.2675 -0.3250 -0.0956
 4025TIP3    H133634   4.094   6.131   7.059  0.1702 -1.2664  0.7589
 4025TIP3    H233635   3.978   6.045   7.013 -0.7202  0.8544 -1.1052
 4026TIP3   OH233636   1.357   2.416   6.535 -0.0166  0.5491  0.6325
 4026TIP3    H133637   1.278   2.371   6.506  0.2783  0.4018  0.0392
 4026TIP3    H233638   1.339   2.439   6.626 -2.2994  3.8443 -0.4385
 4027TIP3   OH233639   6.540   1.339   6.408  0.0848 -0.1901  0.3777
 4027TIP3    H133640   6.487   1.317   6.332  1.4240 -1.7323 -0.1650
 4027TIP3    H233641   6.505   1.284   6.479 -0.5142  0.5068  0.6325
 4028TIP3   OH233642   6.341   2.616   1.262  0.4689 -0.1024  0.8275
 4028TIP3    H133643   6.415   2.594   1.319  2.0108 -0.2526 -1.1171
 4028TIP3    H233644   6.265   2.574   1.303  1.6803 -1.0178  2.2257
 4029TIP3   OH233645   3.981   4.585   1.205  0.1676  0.2622  0.2064
 4029TIP3    H133646   3.891   4.554   1.207 -0.6211  2.3964 -0.2249
 4029TIP3    H233647   4.011   4.566   1.116  0.3470 -0.8788  0.4888
 4030TIP3   OH233648   1.374   3.080   7.129 -0.1626 -0.4534  0.0951
 4030TIP3    H133649   1.463   3.051   7.149 -0.7779 -2.5181  0.0319
 4030TIP3    H233650   1.380   3.176   7.129  2.3996 -0.5286 -1.5418
 4031TIP3   OH233651   2.606   6.476   0.987 -0.6380  0.1550 -1.0254
 4031TIP3    H133652   2.663   6.448   0.914 -0.5875 -0.3879 -0.7740
 4031TIP3    H233653   2.660   6.465   1.065 -0.9103  0.1422 -0.8383
 4032TIP3   OH233654   1.898   4.753   1.723 -1.2785  0.3521  0.1755
 4032TIP3    H133655   1.856   4.811   1.787 -2.6157  1.3157 -1.4659
 4032TIP3    H233656   1.854   4.775   1.640 -0.8358 -2.0548 -0.7589
 4033TIP3   OH233657   2.683   4.559   8.039 -0.0532  0.1664  0.6228
 4033TIP3    H133658   2.645   4.647   8.045  0.6010  0.5633 -0.6279
 4033TIP3    H233659   2.626   4.513   7.977 -0.4631 -0.3345  1.3677
 4034TIP3   OH233660   1.234   2.980   7.494  0.2568  0.9054  0.3601
 4034TIP3    H133661   1.256   2.893   7.461  2.0051  1.4942 -0.1423
 4034TIP3    H233662   1.312   3.008   7.541  0.7653  3.1949 -1.6405
 4035TIP3   OH233663   0.097   4.174   7.719  0.5158  0.5290  0.0780
 4035TIP3    H133664   0.124   4.210   7.803 -2.1375 -0.7787  1.6001
 4035TIP3    H233665   0.042   4.243   7.680  0.3541  0.4600  0.1870
 4036TIP3   OH233666   5.111   6.518   7.508 -0.2371  0.9241  0.1910
 4036TIP3    H133667   5.079   6.448   7.564 -2.0243  1.9403  0.4933
 4036TIP3    H233668   5.107   6.597   7.562  0.7764  1.4416 -0.4586
 4037TIP3   OH233669   5.544   5.779   6.834  0.2982  0.1074 -0.2101
 4037TIP3    H133670   5.587   5.827   6.905 -0.2333  1.3077 -0.6648
 4037TIP3    H233671   5.512   5.848   6.775 -0.3099 -0.8285 -1.0005
 4038TIP3   OH233672   2.770   3.062   1.309  0.2430 -0.1281 -0.4191
 4038TIP3    H133673   2.676   3.042   1.311  0.1257  0.4633  0.2201
 4038TIP3    H233674   2.786   3.109   1.390  1.2446 -0.8532 -0.1823
 4039TIP3   OH233675   5.731   3.005   1.737  0.0901 -0.4638  0.0176
 4039TIP3    H133676   5.725   2.950   1.815 -0.5233 -0.4480 -0.0128
 4039TIP3    H233677   5.644   3.002   1.698  0.3606 -0.3834 -0.6127
 4040TIP3   OH233678   1.756   2.164   6.761 -0.3069 -0.2073 -0.1530
 4040TIP3    H133679   1.678   2.173   6.707 -0.0984  1.2657 -0.2538
 4040TIP3    H233680   1.828   2.159   6.698  0.1253  3.3397 -0.1256
 4041TIP3   OH233681   5.720   5.856   2.117 -0.2324 -0.2155  0.3252
 4041TIP3    H133682   5.733   5.941   2.075  0.8888 -0.1101  0.8440
 4041TIP3    H233683   5.649   5.871   2.180 -0.2834  0.2486  0.1587
 4042TIP3   OH233684   5.427   2.627   6.178 -0.1344 -0.3691  0.0550
 4042TIP3    H133685   5.502   2.595   6.228 -0.7053 -2.4510 -0.3481
 4042TIP3    H233686   5.453   2.716   6.150  0.8419  0.2241  2.6043
 4043TIP3   OH233687   2.188   1.186   1.024  0.2507 -0.0740 -0.0398
 4043TIP3    H133688   2.237   1.261   1.060  1.1130  0.3131 -1.9055
 4043TIP3    H233689   2.252   1.140   0.970 -0.7997 -1.0564 -0.4736
 4044TIP3   OH233690   6.201   5.837   0.816 -0.1690  0.4708 -0.6761
 4044TIP3    H133691   6.175   5.747   0.801 -0.1039  0.4028 -0.3962
 4044TIP3    H233692   6.120   5.887   0.807 -0.2578  0.3499 -0.5631
 4045TIP3   OH233693   3.127   0.070   7.471  0.1897 -0.2769  0.0439
 4045TIP3    H133694   3.088   0.051   7.386  0.3222  1.1441 -0.3668
 4045TIP3    H233695   3.101  -0.004   7.526  1.4159 -2.0323 -1.5955
 4046TIP3   OH233696   0.384   3.712   0.195 -0.0388 -0.1328  0.3387
 4046TIP3    H133697   0.416   3.693   0.283  0.5720  0.7950  0.3322
 4046TIP3    H233698   0.311   3.773   0.209  0.7507  0.8825  0.1714
 4047TIP3   OH233699   2.914   2.514   0.266  0.2355 -0.1624  0.2825
 4047TIP3    H133700   2.850   2.481   0.204  0.1833  0.7078 -0.1369
 4047TIP3    H233701   2.908   2.609   0.260 -0.3375 -0.0223  2.1911
 4048TIP3   OH233702   6.660   0.522   6.792  0.3911 -0.0002 -0.5543
 4048TIP3    H133703   6.596   0.466   6.837  0.4708  0.3802  0.0472
 4048TIP3    H233704   6.649   0.608   6.832  1.6985 -0.0657 -0.0076
 4049TIP3   OH233705   0.013   5.219   1.731 -0.0737 -0.8686 -0.3078
 4049TIP3    H133706  -0.053   5.282   1.758  0.3221 -0.4470 -0.3036
 4049TIP3    H233707  -0.029   5.133   1.742 -0.2491 -0.6599  0.7294
 4050TIP3   OH233708   6.371   2.825   0.241 -0.1120  0.5405 -0.4327
 4050TIP3    H133709   6.281   2.800   0.259  0.0188  0.6262  0.3557
 4050TIP3    H233710   6.368   2.920   0.227 -0.0168  0.6743  0.4369
 4051TIP3   OH233711   0.189   2.078   1.686  0.1477  0.3070  0.1899
 4051TIP3    H133712   0.106   2.114   1.717  0.8900  0.7630  1.7514
 4051TIP3    H233713   0.181   1.984   1.700 -1.2369 -0.0585 -2.5355
 4052TIP3   OH233714   6.936   6.901   0.157 -0.0201  0.2670 -0.0301
 4052TIP3    H133715   6.924   6.923   0.249 -1.0556 -1.0026  0.1560
 4052TIP3    H233716   6.994   6.825   0.157 -1.5506 -0.9584 -0.2760
 4053TIP3   OH233717   4.721   6.174   0.121  0.3046  0.4489  0.1562
 4053TIP3    H133718   4.629   6.155   0.100  0.9680 -0.0884 -2.7651
 4053TIP3    H233719   4.755   6.092   0.157 -0.3416  0.6760  1.3332
 4054TIP3   OH233720   0.964   3.665   0.607 -0.2010  0.0835 -0.4680
 4054TIP3    H133721   0.924   3.602   0.547 -0.1949 -0.2231 -0.1581
 4054TIP3    H233722   0.919   3.650   0.691 -1.3792  1.6449 -0.7813
 4055TIP3   OH233723   4.114   6.829   8.360 -0.5003 -0.3632  0.0947
 4055TIP3    H133724   4.068   6.869   8.434  0.4274  0.3007  0.3337
 4055TIP3    H233725   4.206   6.829   8.387 -0.2901 -1.1631 -0.5975
 4056TIP3   OH233726   1.155   4.667   7.638  0.0130  0.5127 -0.0795
 4056TIP3    H133727   1.134   4.664   7.545  1.0941  1.2392 -0.3589
 4056TIP3    H233728   1.173   4.759   7.656 -0.7737  0.4749  0.9926
 4057TIP3   OH233729   4.154   2.923   0.111  0.5363  0.4874 -0.3116
 4057TIP3    H133730   4.068   2.938   0.152  0.7700  0.3192  0.2346
 4057TIP3    H233731   4.139   2.945   0.019 -0.1879  0.1173 -0.2941
 4058TIP3   OH233732   2.181   2.442   8.119  0.2309  0.1768  0.0477
 4058TIP3    H133733   2.145   2.442   8.030 -0.2573  0.4277  0.2374
 4058TIP3    H233734   2.256   2.383   8.114 -0.5686 -0.8705 -0.2349
 4059TIP3   OH233735   2.762   1.676   7.830  0.2037 -0.1511  0.2876
 4059TIP3    H133736   2.727   1.599   7.874 -0.1734 -0.7910 -1.0624
 4059TIP3    H233737   2.775   1.741   7.899  0.0363 -1.2499  1.3673
 4060TIP3   OH233738   6.349   3.087   0.225 -0.2457  0.0999  0.0063
 4060TIP3    H133739   6.342   3.151   0.295  0.9188  0.0612  0.1649
 4060TIP3    H233740   6.288   3.118   0.157 -0.7192  0.6051  0.6584
 4061TIP3   OH233741   2.321   4.904   7.105 -0.1301  0.1173  0.0761
 4061TIP3    H133742   2.317   4.880   7.012 -1.7144 -0.9458  0.3815
 4061TIP3    H233743   2.253   4.971   7.115  1.5802  1.9487  0.0566
 4062TIP3   OH233744   0.109   2.709   8.092  0.3554  0.1104  0.7645
 4062TIP3    H133745   0.106   2.790   8.143  0.4914  0.0678  0.8396
 4062TIP3    H233746   0.148   2.644   8.151  0.1857 -0.0266  0.7263
 4063TIP3   OH233747   5.423   5.317   6.756  0.1412  0.4619  0.1363
 4063TIP3    H133748   5.416   5.228   6.721  0.4292  0.7899 -0.7690
 4063TIP3    H233749   5.333   5.349   6.760 -0.6069 -1.3334  4.5194
 4064TIP3   OH233750   2.024   3.639   7.873  0.4702  0.2749 -0.4227
 4064TIP3    H133751   2.054   3.594   7.952  0.7709 -0.5589 -0.9981
 4064TIP3    H233752   1.952   3.585   7.841  1.0013  0.0423 -1.2661
 4065TIP3   OH233753   5.079   6.927   8.327 -0.4646 -0.1919  0.0557
 4065TIP3    H133754   5.058   6.844   8.369 -0.9825 -0.5473 -0.8866
 4065TIP3    H233755   4.994   6.969   8.312 -0.1682  1.0765  1.6031
 4066TIP3   OH233756   4.043   1.860   7.548 -0.7941 -0.8515  0.3730
 4066TIP3    H133757   4.105   1.924   7.583  0.0282 -0.8253 -1.0144
 4066TIP3    H233758   4.099   1.792   7.509 -1.6250 -0.8929 -0.8008
 4067TIP3   OH233759   6.799   3.632   1.190  0.3718 -0.0926 -0.2853
 4067TIP3    H133760   6.894   3.642   1.192  0.4465 -0.6930 -0.6379
 4067TIP3    H233761   6.784   3.551   1.142 -0.2270 -1.6060  2.2632
 4068TIP3   OH233762   1.390   5.478   0.757 -0.1685  0.4164 -0.7934
 4068TIP3    H133763   1.341   5.449   0.680  1.3669 -1.9441 -0.9608
 4068TIP3    H233764   1.394   5.401   0.813  1.9384  0.9967 -0.0541
 4069TIP3   OH233765   0.639   0.182   1.284 -0.0119  0.7131  0.4582
 4069TIP3    H133766   0.575   0.201   1.353  0.5401 -1.9082  1.7986
 4069TIP3    H233767   0.724   0.194   1.327  0.3734  0.8647 -0.3268
 4070TIP3   OH233768   1.750   5.421   6.945 -0.0585 -0.7783  0.0511
 4070TIP3    H133769   1.779   5.351   7.003 -0.3483  0.8958  2.3677
 4070TIP3    H233770   1.660   5.440   6.972  0.8662  2.2685  1.4864
 4071TIP3   OH233771   1.595   1.249   7.081  0.0527  0.2181  0.2417
 4071TIP3    H133772   1.578   1.260   6.988 -0.0467  1.4649  0.3981
 4071TIP3    H233773   1.600   1.154   7.093 -3.3015 -0.1823 -0.4405
 4072TIP3   OH233774   4.723   5.969   8.072  0.3084  0.2965  0.6424
 4072TIP3    H133775   4.767   5.902   8.020  1.4722  1.7064 -0.2823
 4072TIP3    H233776   4.631   5.965   8.044  0.3848 -0.7959  0.5136
 4073TIP3   OH233777   1.460   2.231   1.153  0.4457  0.1139  0.1403
 4073TIP3    H133778   1.544   2.265   1.185 -0.0003  0.2348  1.2472
 4073TIP3    H233779   1.458   2.140   1.182  0.1398  0.1473  0.2233
 4074TIP3   OH233780   5.307   0.251   0.879  0.2512  0.1651 -0.1176
 4074TIP3    H133781   5.388   0.232   0.832  1.5269  2.6725  0.8791
 4074TIP3    H233782   5.283   0.168   0.921  3.0964 -0.3689  0.6778
 4075TIP3   OH233783   4.693   4.587   1.604 -0.4833  0.1451 -0.6995
 4075TIP3    H133784   4.775   4.559   1.564 -0.8924 -0.3971 -1.1779
 4075TIP3    H233785   4.692   4.542   1.689  1.0585  2.4111  0.6153
 4076TIP3   OH233786   1.665   0.621   0.610  0.2788 -0.0869  0.1502
 4076TIP3    H133787   1.668   0.540   0.662  2.1221  0.6638  1.2968
 4076TIP3    H233788   1.678   0.691   0.673  0.6182  1.0010 -1.0829
 4077TIP3   OH233789   5.030   1.422   6.472 -0.3184  0.4317  0.5003
 4077TIP3    H133790   4.935   1.411   6.475 -0.3240  0.7357  2.2342
 4077TIP3    H233791   5.044   1.516   6.463 -0.1824  0.3614 -0.0348
 4078TIP3   OH233792   4.996   4.015   8.283 -0.1722  0.7701 -0.0265
 4078TIP3    H133793   4.946   4.096   8.293 -0.3181  0.6434  0.3077
 4078TIP3    H233794   5.087   4.041   8.292 -0.2832  0.6705  1.7768
 4079TIP3   OH233795   3.441   4.580   7.321  0.7453  0.0292 -0.4315
 4079TIP3    H133796   3.485   4.562   7.404  0.2623  1.0300  0.0554
 4079TIP3    H233797   3.421   4.674   7.324 -2.6261 -0.5704 -0.0290
 4080TIP3   OH233798   6.990   1.447   6.880 -0.1334 -0.2635 -0.2920
 4080TIP3    H133799   6.940   1.418   6.804 -0.9406  1.4919 -0.4793
 4080TIP3    H233800   6.967   1.539   6.890  0.3236 -0.3281  1.7992
 4081TIP3   OH233801   1.406   6.557   6.375 -0.2627  0.3908 -0.4757
 4081TIP3    H133802   1.404   6.652   6.365  1.4450  0.2893 -2.8006
 4081TIP3    H233803   1.338   6.525   6.315  1.2131  0.1376 -2.1189
 4082TIP3   OH233804   4.546   0.708   8.143  0.4427 -0.3725 -0.5151
 4082TIP3    H133805   4.623   0.681   8.093  1.2709  0.4205  0.3105
 4082TIP3    H233806   4.564   0.678   8.232  0.5745  1.2891  0.0371
 4083TIP3   OH233807   5.917   6.293   6.473  0.8943 -0.1157 -0.3147
 4083TIP3    H133808   5.897   6.270   6.564 -2.1437 -1.3389 -1.1360
 4083TIP3    H233809   5.844   6.349   6.446 -0.0716 -2.3498 -2.8089
 4084TIP3   OH233810   1.007   3.600   6.712 -0.3289 -0.2139 -0.0543
 4084TIP3    H133811   1.039   3.578   6.800 -0.9990 -0.6691  0.0831
 4084TIP3    H233812   1.085   3.596   6.656 -0.1688 -1.5307  0.2374
 4085TIP3   OH233813   5.448   0.734   0.709  0.3314 -0.0228  0.2110
 4085TIP3    H133814   5.398   0.791   0.767 -0.6866  0.2751 -0.9065
 4085TIP3    H233815   5.505   0.794   0.660 -0.6358  0.0587 -0.8616
 4086TIP3   OH233816   2.137   5.066   0.059  0.0590 -0.3168  0.9309
 4086TIP3    H133817   2.058   5.031   0.101  0.5503 -0.4326  1.7803
 4086TIP3    H233818   2.105   5.134   0.000 -0.9274 -2.1258 -0.7620
 4087TIP3   OH233819   3.756   6.494   2.050  0.2206 -0.5179 -0.3593
 4087TIP3    H133820   3.791   6.562   2.107 -0.3349 -0.7007  0.2064
 4087TIP3    H233821   3.764   6.413   2.099 -0.5141 -0.6379 -0.4150
 4088TIP3   OH233822   0.691   3.102   1.567  0.1871 -0.1248 -0.5682
 4088TIP3    H133823   0.624   3.127   1.502 -1.2610 -0.3225  0.7946
 4088TIP3    H233824   0.772   3.141   1.534 -0.7649  0.8648 -1.8324
 4089TIP3   OH233825   2.608   2.810   8.181 -0.1759  0.2836  0.1758
 4089TIP3    H133826   2.559   2.766   8.111  0.0623  0.8120 -0.3276
 4089TIP3    H233827   2.542   2.859   8.230  0.0725  2.7140 -1.7705
 4090TIP3   OH233828   5.019   2.835   6.253 -0.0663 -0.2345  0.0980
 4090TIP3    H133829   5.080   2.768   6.222 -1.7120 -0.3053 -3.4588
 4090TIP3    H233830   4.933   2.807   6.221 -1.3243  1.9932  1.2467
 4091TIP3   OH233831   6.351   5.491   1.143  0.3888  0.0321  0.2424
 4091TIP3    H133832   6.390   5.534   1.219  1.2215  0.5631 -0.4611
 4091TIP3    H233833   6.403   5.411   1.132  0.6829  0.2690 -0.1311
 4092TIP3   OH233834   6.514   6.221   0.478  0.0431  0.1794  0.3961
 4092TIP3    H133835   6.594   6.250   0.435 -0.2795  0.6851  0.1233
 4092TIP3    H233836   6.473   6.301   0.510 -1.1534  0.1248 -0.8845
 4093TIP3   OH233837   4.081   4.961   0.919 -0.3912  0.4499  0.4712
 4093TIP3    H133838   4.162   4.914   0.903 -1.2236 -0.0089 -3.7269
 4093TIP3    H233839   4.108   5.044   0.959  1.8350 -0.5980  1.2922
 4094TIP3   OH233840   3.498   4.244   6.840  0.4202 -0.6176  0.5616
 4094TIP3    H133841   3.588   4.211   6.848  0.0703 -1.9198 -0.5930
 4094TIP3    H233842   3.507   4.339   6.847  2.1416 -0.5602 -1.4169
 4095TIP3   OH233843   5.885   0.967   0.672 -0.2387  0.2469 -0.3763
 4095TIP3    H133844   5.955   1.010   0.720  1.8087 -2.5996 -0.5605
 4095TIP3    H233845   5.819   0.947   0.738  1.5751 -1.6964  0.9770
 4096TIP3   OH233846   6.158   0.237   7.609 -0.5772  0.1668 -0.0277
 4096TIP3    H133847   6.068   0.249   7.580 -0.6361 -1.6295 -0.7066
 4096TIP3    H233848   6.197   0.324   7.602 -2.5767  1.2831  1.5679
 4097TIP3   OH233849   3.837   6.868   6.863 -0.6962 -0.1428 -0.1567
 4097TIP3    H133850   3.918   6.886   6.815 -1.3828  0.9143 -0.9900
 4097TIP3    H233851   3.845   6.777   6.890  0.3912 -0.3261 -0.9828
 4098TIP3   OH233852   5.667   2.005   6.650 -0.0998  0.1128 -0.2359
 4098TIP3    H133853   5.739   2.000   6.587 -0.4614 -0.6389 -0.6007
 4098TIP3    H233854   5.638   2.097   6.645 -0.0562  0.0924 -1.1029
 4099TIP3   OH233855   3.130   3.382   1.774  0.3300  0.2144  0.0954
 4099TIP3    H133856   3.202   3.320   1.775 -0.5989 -0.9033  0.2955
 4099TIP3    H233857   3.110   3.399   1.866 -0.0238  0.0706  0.0490
 4100TIP3   OH233858   6.384   5.084   1.912  0.2882 -0.3186  0.3880
 4100TIP3    H133859   6.434   5.156   1.951 -0.5515  0.2805  0.3872
 4100TIP3    H233860   6.343   5.121   1.834 -2.4082  0.0660  1.8521
 4101TIP3   OH233861   4.435   2.693   6.344  0.6506  0.1335  0.4895
 4101TIP3    H133862   4.404   2.782   6.325  1.5154  0.0247 -1.6153
 4101TIP3    H233863   4.358   2.649   6.380 -0.0449  1.4666  0.7322
 4102TIP3   OH233864   2.910   5.214   7.227  0.3818 -0.4507  0.3008
 4102TIP3    H133865   2.860   5.254   7.155 -0.4284 -2.3071 -0.2252
 4102TIP3    H233866   2.880   5.259   7.306 -2.0808 -1.4247 -0.0184
 4103TIP3   OH233867   0.308   5.147   0.823 -0.1415 -0.4853  0.5825
 4103TIP3    H133868   0.307   5.241   0.843 -0.9011 -0.4102  0.2151
 4103TIP3    H233869   0.221   5.116   0.849 -0.5714 -0.7085 -1.0144
 4104TIP3   OH233870   6.559   1.850   5.712  0.4836 -0.4651  0.4730
 4104TIP3    H133871   6.580   1.911   5.783 -0.0574 -1.2568  1.3314
 4104TIP3    H233872   6.543   1.767   5.756  0.4700 -1.0521 -0.6179
 4105TIP3   OH233873   2.949   6.682   7.819  0.8117  0.2339  0.4191
 4105TIP3    H133874   2.869   6.642   7.785 -0.4956  1.7068  1.5885
 4105TIP3    H233875   2.935   6.683   7.914  1.5114  1.8976  0.5349
 4106TIP3   OH233876   3.584   3.721   0.945 -0.0520  0.4813  0.5920
 4106TIP3    H133877   3.613   3.642   0.991  1.2282  1.4843  1.5908
 4106TIP3    H233878   3.652   3.786   0.964 -0.7638  1.6529 -0.7085
 4107TIP3   OH233879   5.587   1.785   0.536  0.3278  0.1890 -0.2730
 4107TIP3    H133880   5.528   1.806   0.463  0.8105 -0.8075 -0.9816
 4107TIP3    H233881   5.529   1.775   0.611 -0.2176  0.9094 -0.5818
 4108TIP3   OH233882   2.881   5.828   7.057  0.3485  0.0506 -0.0757
 4108TIP3    H133883   2.974   5.839   7.035  0.0990  1.6363 -0.4580
 4108TIP3    H233884   2.868   5.734   7.061  2.0155 -0.1922  0.1343
 4109TIP3   OH233885   0.446   2.630   6.217 -0.2070 -0.2017 -0.0357
 4109TIP3    H133886   0.513   2.565   6.197 -0.9855 -1.1922  0.5294
 4109TIP3    H233887   0.474   2.708   6.169  1.5537 -0.4674  0.4876
 4110TIP3   OH233888   1.329   0.607   8.121 -0.0921 -0.7178 -0.1384
 4110TIP3    H133889   1.321   0.529   8.176 -1.6034 -0.8742 -0.5292
 4110TIP3    H233890   1.402   0.656   8.159  1.0015 -2.3857  0.0180
 4111TIP3   OH233891   6.080   6.575   1.277  0.1420 -0.2635 -0.0794
 4111TIP3    H133892   6.175   6.583   1.268  0.2035 -0.5351  0.2646
 4111TIP3    H233893   6.045   6.606   1.194  0.5131  0.2008 -0.0642
 4112TIP3   OH233894   2.162   2.251   6.291 -0.0515  0.2489 -0.8380
 4112TIP3    H133895   2.149   2.172   6.344 -1.1276  1.0725  0.1779
 4112TIP3    H233896   2.088   2.250   6.230  2.3827 -1.9448 -4.1089
 4113TIP3   OH233897   6.574   6.577   0.380 -0.0438  0.6569 -0.0867
 4113TIP3    H133898   6.543   6.630   0.454 -0.6676 -0.0271  0.1535
 4113TIP3    H233899   6.637   6.633   0.336  0.6407  0.9444  1.1902
 4114TIP3   OH233900   5.799   3.303   2.351 -0.1626 -0.5440  0.1081
 4114TIP3    H133901   5.780   3.228   2.408 -1.9470 -0.2063  0.0121
 4114TIP3    H233902   5.781   3.380   2.405  2.5824 -0.0814  0.5278
 4115TIP3   OH233903   2.040   0.522   0.993 -0.1616 -0.1300  0.2009
 4115TIP3    H133904   2.003   0.445   0.952 -0.5904  0.4653 -0.5587
 4115TIP3    H233905   2.116   0.490   1.043 -0.1839 -0.9879 -0.3164
 4116TIP3   OH233906   5.485   6.014   8.163 -0.1114  0.2237  0.3733
 4116TIP3    H133907   5.517   6.082   8.104 -0.5300 -0.3346 -0.5163
 4116TIP3    H233908   5.545   6.017   8.238 -0.3984  1.8677  0.5649
 4117TIP3   OH233909   2.620   3.956   1.699 -0.5264  0.4703  0.3677
 4117TIP3    H133910   2.608   4.022   1.631 -0.4780 -0.9888 -1.1385
 4117TIP3    H233911   2.684   3.994   1.759  1.3781  0.8564 -1.7876
 4118TIP3   OH233912   0.297   0.108   7.985  0.0577 -0.7748  0.5439
 4118TIP3    H133913   0.354   0.033   7.967  0.7349  0.1987 -1.7187
 4118TIP3    H233914   0.216   0.069   8.017  0.1340 -2.5472 -1.2170
 4119TIP3   OH233915   0.196   0.983   1.744  0.4445 -0.3474 -1.0842
 4119TIP3    H133916   0.195   0.891   1.716  1.1757 -0.6494 -0.1891
 4119TIP3    H233917   0.220   0.979   1.837  0.3182  0.7441 -0.9913
 4120TIP3   OH233918   4.494   2.043   8.166 -0.0225  0.1130 -0.0898
 4120TIP3    H133919   4.552   1.991   8.221 -0.8661 -0.9704 -0.1923
 4120TIP3    H233920   4.467   2.116   8.222 -0.6879 -0.8445  0.8825
 4121TIP3   OH233921   6.741   1.169   8.307  0.0633  0.0472 -0.0463
 4121TIP3    H133922   6.743   1.097   8.371 -1.9633 -0.6701 -0.6867
 4121TIP3    H233923   6.651   1.203   8.313  0.6674  1.8283 -0.5419
 4122TIP3   OH233924   5.540   2.407   1.856 -0.5437  0.0334  0.5664
 4122TIP3    H133925   5.600   2.333   1.847  0.7698  0.9944  1.1202
 4122TIP3    H233926   5.468   2.374   1.910 -0.2727 -1.0016  0.3045
 4123TIP3   OH233927   2.263   6.094   0.187  0.0646  0.2879  0.4094
 4123TIP3    H133928   2.191   6.114   0.247  0.2637 -0.0976  0.7846
 4123TIP3    H233929   2.235   6.130   0.103 -0.1814  0.9136  0.7497
 4124TIP3   OH233930   6.169   0.930   7.400 -0.1863  0.0535 -0.3224
 4124TIP3    H133931   6.232   0.882   7.453  0.4579  0.3755 -0.7660
 4124TIP3    H233932   6.095   0.871   7.389  0.4586 -0.7140 -0.5990
 4125TIP3   OH233933   5.379   4.991   0.912 -0.9404  0.7185  0.4323
 4125TIP3    H133934   5.317   4.919   0.913  0.7698 -0.8428  0.0370
 4125TIP3    H233935   5.389   5.013   0.819 -0.4844  0.5637  0.4403
 4126TIP3   OH233936   3.176   4.124   8.201 -0.1694 -0.1607 -0.1652
 4126TIP3    H133937   3.111   4.138   8.270 -1.2303 -1.1754 -0.9116
 4126TIP3    H233938   3.134   4.062   8.141  1.8929 -1.7121 -0.1151
 4127TIP3   OH233939   4.380   2.411   0.441 -0.0159  0.0757 -0.3538
 4127TIP3    H133940   4.404   2.484   0.382 -1.9034 -0.4077 -1.8398
 4127TIP3    H233941   4.364   2.453   0.525  0.6285  1.1328 -0.7321
 4128TIP3   OH233942   2.172   3.574   0.058  0.2896  0.0319 -0.3037
 4128TIP3    H133943   2.147   3.488   0.092  2.1136 -0.9556 -1.2646
 4128TIP3    H233944   2.146   3.636   0.126 -1.4424 -1.2096  0.2280
 4129TIP3   OH233945   6.173   1.637   0.136 -0.7515  0.4042 -0.1192
 4129TIP3    H133946   6.100   1.668   0.083 -2.6087 -0.4554  1.8065
 4129TIP3    H233947   6.249   1.684   0.102 -1.8184 -0.0011 -3.4224
 4130TIP3   OH233948   6.514   1.515   0.495 -0.0347  0.2857 -0.0517
 4130TIP3    H133949   6.432   1.549   0.458  0.2496  2.2218  0.9622
 4130TIP3    H233950   6.567   1.493   0.418 -0.5650  1.4395 -0.7764
 4131TIP3   OH233951   1.259   3.784   8.248 -0.2548 -0.1642  0.5629
 4131TIP3    H133952   1.354   3.777   8.260  0.1031  1.6852 -0.7721
 4131TIP3    H233953   1.228   3.829   8.326  0.1317  0.1364  0.5461
 4132TIP3   OH233954   1.223   0.308   6.657  0.0757  0.1292 -0.1708
 4132TIP3    H133955   1.278   0.387   6.661 -0.5270  0.5391  0.2488
 4132TIP3    H233956   1.186   0.301   6.745 -0.8662  0.0972 -0.5586
 4133TIP3   OH233957   6.668   1.718   0.150  0.2455  0.3269 -0.4188
 4133TIP3    H133958   6.592   1.660   0.139 -0.1961  0.8124 -0.0441
 4133TIP3    H233959   6.637   1.803   0.119  1.3571  0.0699 -2.3756
 4134TIP3   OH233960   4.840   5.387   8.154 -0.4618 -0.7664 -1.0413
 4134TIP3    H133961   4.816   5.413   8.066  0.0080 -1.4145 -1.3717
 4134TIP3    H233962   4.934   5.372   8.150 -0.0838  1.0223  0.0412
 4135TIP3   OH233963   2.822   2.139   1.475 -0.6478  0.4015  0.5244
 4135TIP3    H133964   2.798   2.168   1.387  1.5088  0.9815  0.0699
 4135TIP3    H233965   2.790   2.049   1.480  0.7152 -0.2645 -1.5519
 4136TIP3   OH233966   5.074   5.908   1.929 -0.5684  0.2058  0.2520
 4136TIP3    H133967   5.121   5.860   1.861 -0.6198 -0.9151  0.9707
 4136TIP3    H233968   5.117   5.993   1.932  2.5185 -1.2191  1.8704
 4137TIP3   OH233969   5.740   3.298   6.966 -0.1763 -0.3100  0.2455
 4137TIP3    H133970   5.654   3.336   6.984  0.5083  1.5762 -0.2387
 4137TIP3    H233971   5.746   3.296   6.870  0.7087  0.5181  0.2764
 4138TIP3   OH233972   4.125   6.015   7.372  0.0133 -0.9060  0.0732
 4138TIP3    H133973   4.150   6.088   7.315 -1.1444  0.3155  1.0332
 4138TIP3    H233974   4.198   6.006   7.433 -0.5032  0.6036  0.9741
 4139TIP3   OH233975   3.608   4.891   1.329  0.1239  0.7529  0.1393
 4139TIP3    H133976   3.669   4.958   1.360 -0.5533  1.0893  0.7966
 4139TIP3    H233977   3.550   4.876   1.404  0.0598 -0.3269 -0.1192
 4140TIP3   OH233978   0.615   4.861   8.065  0.2674 -0.2263  0.0344
 4140TIP3    H133979   0.564   4.781   8.058  1.2953 -0.7623 -2.3301
 4140TIP3    H233980   0.555   4.930   8.038  0.0320 -0.5033 -0.1487
 4141TIP3   OH233981   1.516   1.360   0.688 -0.1520  0.1466 -0.1011
 4141TIP3    H133982   1.445   1.380   0.748  0.2186  0.4890  0.2254
 4141TIP3    H233983   1.484   1.389   0.602 -2.0916 -3.4093 -0.7820
 4142TIP3   OH233984   4.594   4.565   0.311  0.3564 -0.1146  0.8472
 4142TIP3    H133985   4.527   4.598   0.252  0.8118 -0.6948 -0.0038
 4142TIP3    H233986   4.568   4.476   0.330  1.0129 -0.4354  0.3007
 4143TIP3   OH233987   2.592   3.452   6.720  0.0530 -0.2844  0.0484
 4143TIP3    H133988   2.671   3.399   6.721  0.8846  0.8424 -1.4557
 4143TIP3    H233989   2.558   3.444   6.631 -0.1318  1.1827 -0.0495
 4144TIP3   OH233990   6.138   1.219   6.766  0.0978 -0.3439  0.0848
 4144TIP3    H133991   6.087   1.155   6.717  1.9458 -1.7693 -0.1210
 4144TIP3    H233992   6.081   1.248   6.836 -1.4844 -0.6920 -1.0134
 4145TIP3   OH233993   2.645   5.545   0.847  0.2712 -0.2415  0.2292
 4145TIP3    H133994   2.648   5.621   0.905  0.3109  0.2925 -0.4501
 4145TIP3    H233995   2.721   5.556   0.789  0.9031 -1.3673  0.7964
 4146TIP3   OH233996   2.950   3.645   8.321  0.1399 -0.2251  0.0360
 4146TIP3    H133997   2.946   3.711   8.390 -1.2544  0.6085 -0.7984
 4146TIP3    H233998   2.861   3.611   8.315  0.3195 -0.5226 -1.1166
 4147TIP3   OH233999   6.892   4.734   7.633  0.6395  0.0998  0.0182
 4147TIP3    H134000   6.964   4.728   7.570 -0.4267 -0.4843 -1.1910
 4147TIP3    H234001   6.924   4.690   7.711  1.9125  0.6293 -0.1831
 4148TIP3   OH234002   3.520   4.328   7.985  0.4004  0.1169  0.4605
 4148TIP3    H134003   3.511   4.235   7.966  1.0778 -0.0939  1.1478
 4148TIP3    H234004   3.479   4.339   8.072  0.2399  0.4812  0.3439
 4149TIP3   OH234005   5.630   0.638   7.704  0.3474 -0.1542  0.1478
 4149TIP3    H134006   5.642   0.629   7.798  1.0784 -0.8225  0.0015
 4149TIP3    H234007   5.603   0.550   7.675 -1.0272  0.3237 -0.1121
 4150TIP3   OH234008   0.924   6.948   7.139 -0.3870 -0.4538 -0.1214
 4150TIP3    H134009   0.976   6.916   7.065  1.8681 -0.5432  1.4070
 4150TIP3    H234010   0.928   7.043   7.131 -4.0236 -0.3183 -2.5889
 4151TIP3   OH234011   5.051   0.440   1.717 -0.2104  0.3349  0.3963
 4151TIP3    H134012   4.989   0.386   1.767 -1.3652  1.7271  0.5042
 4151TIP3    H234013   5.036   0.529   1.748 -1.0240  1.2859 -2.4868
 4152TIP3   OH234014   1.536   6.807   7.609  0.4417 -0.6665 -0.3153
 4152TIP3    H134015   1.519   6.820   7.702 -1.1998 -1.3509 -0.4747
 4152TIP3    H234016   1.501   6.885   7.567 -0.2305 -1.0286 -0.4561
 4153TIP3   OH234017   3.968   2.841   2.677 -0.1496 -0.3343 -0.7247
 4153TIP3    H134018   4.007   2.857   2.763 -0.4183  1.8094 -0.9558
 4153TIP3    H234019   4.003   2.755   2.651  2.2863  0.2771  0.2541
 4154TIP3   OH234020   4.125   4.630   1.933  0.0854 -0.2772 -0.6165
 4154TIP3    H134021   4.125   4.535   1.947  0.3025 -0.2206 -0.2404
 4154TIP3    H234022   4.046   4.661   1.978 -0.9645 -0.4860 -2.1987
 4155TIP3   OH234023   0.077   3.968   2.129  0.0360 -0.5399 -0.5112
 4155TIP3    H134024   0.099   3.914   2.205 -1.2706 -1.6033 -0.8345
 4155TIP3    H234025   0.110   3.917   2.054  2.1761  0.9506 -0.6556
 4156TIP3   OH234026   0.010   0.917   0.400 -0.0471 -0.0866  0.3768
 4156TIP3    H134027  -0.074   0.907   0.354  0.3053 -0.0488 -0.2937
 4156TIP3    H234028  -0.014   0.946   0.488 -0.6669  2.4716 -0.5432
 4157TIP3   OH234029   6.681   5.218   5.297  0.1211  0.6312  0.4944
 4157TIP3    H134030   6.593   5.215   5.333 -0.1637 -0.3819 -0.2377
 4157TIP3    H234031   6.729   5.151   5.346  0.3259  0.7674  0.4835
 4158TIP3   OH234032   4.742   5.435   0.360 -0.2814  0.4353  0.0753
 4158TIP3    H134033   4.648   5.451   0.358 -0.2476  0.6288 -0.0182
 4158TIP3    H234034   4.759   5.381   0.283 -0.3412  0.2592  0.1854
 4159TIP3   OH234035   6.694   2.494   8.223  0.0931  0.3794 -0.1370
 4159TIP3    H134036   6.616   2.497   8.166 -1.1294 -0.1769  1.4338
 4159TIP3    H234037   6.721   2.586   8.230 -1.1502  0.7431  0.2259
 4160TIP3   OH234038   4.604   0.242   2.125  0.3620  0.0457  0.1757
 4160TIP3    H134039   4.681   0.189   2.145  0.2246 -0.2845 -0.1420
 4160TIP3    H234040   4.531   0.181   2.134  0.1803  0.2454  0.0476
 4161TIP3   OH234041   4.891   1.423   0.894 -0.1654  0.0565  0.4062
 4161TIP3    H134042   4.969   1.467   0.927  1.0191 -0.8237 -1.0825
 4161TIP3    H234043   4.902   1.332   0.919 -1.6550  0.2078  1.7847
 4162TIP3   OH234044   1.765   3.801   8.054  0.1070 -0.0786 -0.1348
 4162TIP3    H134045   1.730   3.889   8.039 -2.3544 -0.8827  0.3862
 4162TIP3    H234046   1.688   3.748   8.076  1.6442 -2.1431  0.6114
 4163TIP3   OH234047   4.231   4.261   7.768  0.1874 -0.0063  0.0460
 4163TIP3    H134048   4.165   4.269   7.698  0.7538 -1.9304 -0.7785
 4163TIP3    H234049   4.228   4.345   7.813 -0.9284  0.9428 -1.6639
 4164TIP3   OH234050   4.974   6.062   0.816 -0.0923 -0.3060  0.2074
 4164TIP3    H134051   4.954   6.152   0.841 -0.0317 -0.1210 -0.3809
 4164TIP3    H234052   4.890   6.017   0.817 -0.7008  0.5528 -2.5931
 4165TIP3   OH234053   4.379   2.389   6.478  0.0665 -0.1457 -0.3143
 4165TIP3    H134054   4.469   2.392   6.512 -0.3610  1.1022  0.7922
 4165TIP3    H234055   4.384   2.327   6.405  1.1338 -2.6756  1.7155
 4166TIP3   OH234056   3.096   1.519   8.316 -0.4594  0.6264  0.3097
 4166TIP3    H134057   3.088   1.475   8.401 -1.8294  1.2021  0.5014
 4166TIP3    H234058   3.109   1.447   8.253  1.2522  0.2426  1.0534
 4167TIP3   OH234059   6.869   2.021   7.361 -0.3415  0.7664  0.6282
 4167TIP3    H134060   6.821   2.011   7.278 -0.1308 -2.3848  0.7487
 4167TIP3    H234061   6.802   2.011   7.429 -0.0072 -0.4691  0.7964
 4168TIP3   OH234062   6.231   0.248   0.452 -0.4079 -0.3826  0.3556
 4168TIP3    H134063   6.213   0.209   0.537  1.1235 -0.6247  0.5950
 4168TIP3    H234064   6.324   0.235   0.439  0.0225  2.4304  0.0380
 4169TIP3   OH234065   0.191   3.439   6.820 -0.9039 -0.2365  0.3082
 4169TIP3    H134066   0.222   3.453   6.730 -1.7747  0.1856  0.0574
 4169TIP3    H234067   0.108   3.487   6.824 -2.1426 -2.2817  0.5838
 4170TIP3   OH234068   5.556   2.562   6.609 -0.0072  0.4794  0.3552
 4170TIP3    H134069   5.485   2.626   6.603  0.4493  0.9842  0.2695
 4170TIP3    H234070   5.583   2.549   6.518 -0.8443 -0.6992  0.2512
 4171TIP3   OH234071   3.644   2.386   0.349 -0.3380 -0.4620 -0.1725
 4171TIP3    H134072   3.712   2.386   0.281  0.4168  2.5482  0.4236
 4171TIP3    H234073   3.688   2.354   0.427 -0.2702 -0.8007 -0.3504
 4172TIP3   OH234074   0.694   2.885   6.794  0.6560 -0.2058  0.3440
 4172TIP3    H134075   0.664   2.795   6.805 -0.2853 -0.1472 -1.4702
 4172TIP3    H234076   0.755   2.882   6.721  3.1382  0.1468  2.2676
 4173TIP3   OH234077   3.728   4.066   0.459  0.7639  0.9459 -0.7312
 4173TIP3    H134078   3.784   3.989   0.459 -1.6128 -0.8830  0.4733
 4173TIP3    H234079   3.689   4.068   0.546 -1.1400  2.0620 -1.5502
 4174TIP3   OH234080   1.203   3.676   1.548  0.5870 -0.2014 -0.4571
 4174TIP3    H134081   1.226   3.588   1.578 -0.2095  0.3052  1.9427
 4174TIP3    H234082   1.129   3.701   1.605 -0.9746  1.0047 -2.8604
 4175TIP3   OH234083   3.588   2.275   1.456 -0.0222 -0.4161  0.1619
 4175TIP3    H134084   3.664   2.306   1.407 -0.2151 -0.9642 -0.5032
 4175TIP3    H234085   3.519   2.338   1.435  0.0129 -0.4112  0.0580
 4176TIP3   OH234086   5.599   5.370   7.998  0.4695  0.3033 -0.1760
 4176TIP3    H134087   5.532   5.306   8.019 -2.3940  3.0132 -0.3542
 4176TIP3    H234088   5.600   5.374   7.902  1.0241  0.1912 -0.1816
 4177TIP3   OH234089   5.440   0.376   1.381  0.2336  0.0827 -0.0437
 4177TIP3    H134090   5.352   0.402   1.407  0.0496 -0.5087 -0.0475
 4177TIP3    H234091   5.426   0.306   1.317  0.6939  0.6749 -0.8045
 4178TIP3   OH234092   1.778   6.217   0.165  0.8189  0.1076  0.8978
 4178TIP3    H134093   1.683   6.229   0.168  0.9840  1.8096  0.4963
 4178TIP3    H234094   1.804   6.248   0.079  1.5147 -2.6633 -0.0103
 4179TIP3   OH234095   0.558   3.505   6.583 -0.1139  0.6940  0.4544
 4179TIP3    H134096   0.579   3.598   6.586 -2.0486  1.2224 -0.2923
 4179TIP3    H234097   0.530   3.490   6.492 -0.3365 -0.4871  0.6992
 4180TIP3   OH234098   2.334   3.784   0.317 -0.1632 -0.0778  0.2714
 4180TIP3    H134099   2.354   3.733   0.239 -3.5735  0.1091 -0.8934
 4180TIP3    H234100   2.270   3.732   0.364 -0.3967  1.1650  1.3875
 4181TIP3   OH234101   3.993   3.709   0.770  0.3866  0.5839  0.5487
 4181TIP3    H134102   3.995   3.663   0.854  1.3569 -1.1420 -0.3843
 4181TIP3    H234103   4.084   3.710   0.740  0.0598  1.1669 -0.4958
 4182TIP3   OH234104   4.188   2.042   2.345  0.0310 -0.0720 -0.1430
 4182TIP3    H134105   4.207   1.983   2.417 -2.0950 -0.0796  0.4726
 4182TIP3    H234106   4.240   2.008   2.271  3.1195  0.5760  1.5366
 4183TIP3   OH234107   6.209   1.692   7.340  0.0160 -0.6537 -0.2181
 4183TIP3    H134108   6.150   1.690   7.415  0.2541  0.6356  0.0364
 4183TIP3    H234109   6.287   1.644   7.368 -0.1021 -0.6074  0.1862
 4184TIP3   OH234110   3.301   2.073   7.004  0.2478 -0.6332  0.2273
 4184TIP3    H134111   3.396   2.088   6.995 -0.2402  2.7622 -0.5717
 4184TIP3    H234112   3.284   2.088   7.097  0.2499  0.8766  0.0076
 4185TIP3   OH234113   2.508   1.956   0.084 -0.4029 -0.1345  0.0683
 4185TIP3    H134114   2.506   1.866   0.117  0.1877 -0.2249 -0.1280
 4185TIP3    H234115   2.585   1.996   0.127  0.6181 -0.3755 -1.4737
 4186TIP3   OH234116   1.048   5.664   7.867 -0.1194  0.5866  0.1656
 4186TIP3    H134117   1.133   5.620   7.878  0.5584  2.3559  2.9116
 4186TIP3    H234118   0.997   5.638   7.943 -1.5101  0.7594 -0.6778
 4187TIP3   OH234119   1.648   3.554   1.518  0.4621 -0.4610 -0.2336
 4187TIP3    H134120   1.615   3.614   1.451  2.5420  1.1252  0.0649
 4187TIP3    H234121   1.639   3.467   1.479 -0.5742  0.2131 -1.5792
 4188TIP3   OH234122   3.113   5.696   1.355 -0.0362  0.3138  0.4212
 4188TIP3    H134123   3.108   5.720   1.447  0.9959  0.1278  0.5358
 4188TIP3    H234124   3.079   5.607   1.351 -0.0777  0.3217  0.6251
 4189TIP3   OH234125   1.062   2.471   6.240 -0.5191 -0.0725 -0.1860
 4189TIP3    H134126   1.076   2.562   6.214 -2.1026  1.1031  2.6822
 4189TIP3    H234127   1.098   2.465   6.328 -2.9658 -1.3784  0.8230
 4190TIP3   OH234128   2.810   2.575   7.433 -0.4579 -0.1474 -0.7931
 4190TIP3    H134129   2.726   2.607   7.403  1.1408  1.7189 -3.6758
 4190TIP3    H234130   2.849   2.533   7.357  2.2155  1.2688 -0.3419
 4191TIP3   OH234131   0.878   1.686   0.704  0.5341 -0.2685 -0.2121
 4191TIP3    H134132   0.953   1.724   0.657 -0.8783  1.6071 -1.1079
 4191TIP3    H234133   0.856   1.608   0.653  0.3387  0.5694 -1.4653
 4192TIP3   OH234134   5.444   1.951   0.033 -0.4609 -0.9717 -0.1357
 4192TIP3    H134135   5.449   1.966  -0.062  0.1082 -2.5988 -0.3930
 4192TIP3    H234136   5.420   2.036   0.069  2.8190  0.6595 -1.4143
 4193TIP3   OH234137   1.538   0.225   6.701  0.0279 -0.9068 -0.1519
 4193TIP3    H134138   1.522   0.291   6.769 -0.4074 -0.0515 -1.0630
 4193TIP3    H234139   1.546   0.276   6.620 -0.6546 -2.0092 -0.9249
 4194TIP3   OH234140   1.721   3.053   7.673  0.4593  0.5887 -0.1664
 4194TIP3    H134141   1.757   3.100   7.748  1.2788 -1.1551  0.5838
 4194TIP3    H234142   1.787   3.064   7.604  0.3839  1.0041 -0.1712
 4195TIP3   OH234143   1.724   0.586   0.981 -0.0256 -0.2276 -0.7853
 4195TIP3    H134144   1.776   0.590   1.061  0.3244 -0.3146 -1.0063
 4195TIP3    H234145   1.732   0.496   0.952 -0.8840 -0.4230 -0.4423
 4196TIP3   OH234146   1.694   2.571   0.606 -0.2632 -0.1995  0.6026
 4196TIP3    H134147   1.691   2.525   0.523 -0.9386 -1.8814  1.5007
 4196TIP3    H234148   1.760   2.524   0.657 -0.1549  0.5343  1.1583
 4197TIP3   OH234149   0.349   6.700   1.097 -0.0663  0.0318 -0.3615
 4197TIP3    H134150   0.277   6.726   1.154 -1.2136  0.9423 -2.1390
 4197TIP3    H234151   0.311   6.697   1.009  2.0255  0.4273 -1.3570
 4198TIP3   OH234152   4.894   2.766   1.302 -0.1235  0.9356 -0.2441
 4198TIP3    H134153   4.966   2.819   1.338 -0.8159  0.0266  2.7916
 4198TIP3    H234154   4.815   2.803   1.343 -0.8900 -0.7412 -0.1546
 4199TIP3   OH234155   2.995   4.271   7.160 -0.4642 -0.0346 -0.1625
 4199TIP3    H134156   2.903   4.256   7.183 -0.8929  0.5220 -1.4296
 4199TIP3    H234157   3.013   4.360   7.191  0.1231 -0.6599  1.4216
 4200TIP3   OH234158   2.763   4.307   1.451 -0.3851  0.2674 -0.1527
 4200TIP3    H134159   2.780   4.395   1.486 -0.0843  0.2080 -0.1448
 4200TIP3    H234160   2.841   4.257   1.474 -0.3684  0.1132 -0.5320
 4201TIP3   OH234161   3.867   0.725   0.076  0.0781 -0.6483 -0.9248
 4201TIP3    H134162   3.804   0.729   0.005  1.6348 -1.8129 -2.4538
 4201TIP3    H234163   3.946   0.765   0.041  0.5692 -0.2554  0.5515
 4202TIP3   OH234164   6.406   1.561   1.848 -0.1132  0.1441 -0.3286
 4202TIP3    H134165   6.335   1.621   1.827 -0.4153  0.3460  1.1638
 4202TIP3    H234166   6.374   1.475   1.822 -0.8959  0.2441  0.2756
 4203TIP3   OH234167   5.050   5.792   1.356  0.2051 -0.3628  0.0817
 4203TIP3    H134168   4.994   5.718   1.331  0.1023 -0.1152 -0.4315
 4203TIP3    H234169   5.065   5.780   1.450  0.7315 -1.4047 -0.1254
 4204TIP3   OH234170   4.178   0.672   6.992  0.0203 -0.0864 -0.1244
 4204TIP3    H134171   4.134   0.612   6.931 -2.0064 -0.2289  1.3939
 4204TIP3    H234172   4.218   0.615   7.058  2.7920  0.0281 -1.5396
 4205TIP3   OH234173   6.741   1.091   6.604  0.1123  0.4173 -0.0039
 4205TIP3    H134174   6.810   1.127   6.548  1.0045 -1.1595 -0.0039
 4205TIP3    H234175   6.724   1.004   6.567 -1.0255  0.3052  0.7328
 4206TIP3   OH234176   3.296   3.464   6.866 -0.6197 -0.9913 -0.2429
 4206TIP3    H134177   3.341   3.449   6.949  1.6703  1.3324 -0.9440
 4206TIP3    H234178   3.248   3.545   6.878 -0.2819 -0.6412 -1.1723
 4207TIP3   OH234179   2.967   3.126   0.136 -0.0960  0.2170 -0.1952
 4207TIP3    H134180   3.060   3.107   0.150 -0.3220 -0.6830  0.1928
 4207TIP3    H234181   2.927   3.118   0.222 -0.8612 -1.5141 -0.6612
 4208TIP3   OH234182   5.874   1.972   0.436 -0.2046  0.0932 -0.3361
 4208TIP3    H134183   5.829   2.056   0.432 -0.2727  0.2100  1.7288
 4208TIP3    H234184   5.960   1.993   0.474 -0.6213 -0.8672  1.2122
 4209TIP3   OH234185   6.922   6.337   7.617  0.4005 -0.1808 -0.0677
 4209TIP3    H134186   6.904   6.243   7.626  1.1282 -0.1529  2.1822
 4209TIP3    H234187   6.883   6.377   7.694  2.9588  0.8891  0.7813
 4210TIP3   OH234188   0.256   2.271   0.463  0.4118 -0.5992  0.5440
 4210TIP3    H134189   0.267   2.179   0.437 -0.8580 -0.3981 -0.8805
 4210TIP3    H234190   0.199   2.267   0.540 -1.5060 -0.9715 -0.8138
 4211TIP3   OH234191   5.890   5.801   5.878 -0.6207 -0.1083  0.2820
 4211TIP3    H134192   5.945   5.772   5.806 -0.4624 -1.3005  0.8566
 4211TIP3    H234193   5.887   5.896   5.869  2.8631  0.2170  1.1462
 4212TIP3   OH234194   3.309   2.340   2.458 -0.3134  0.1077 -0.5133
 4212TIP3    H134195   3.239   2.275   2.457 -0.9423  0.7448  0.3643
 4212TIP3    H234196   3.303   2.384   2.373 -1.5023  0.6834 -0.1457
 4213TIP3   OH234197   4.411   1.831   0.436  0.0306 -0.0107 -0.5372
 4213TIP3    H134198   4.483   1.894   0.443 -0.8372  0.9553  0.1942
 4213TIP3    H234199   4.343   1.878   0.389 -0.3326 -0.7066 -0.7180
 4214TIP3   OH234200   4.942   5.525   1.319 -0.3247 -0.1693 -0.4957
 4214TIP3    H134201   4.999   5.519   1.243  1.6966 -0.0201  0.9149
 4214TIP3    H234202   4.995   5.492   1.392 -1.3942  1.6740  1.2282
 4215TIP3   OH234203   5.286   0.128   7.672  0.3876 -0.1571 -1.0949
 4215TIP3    H134204   5.240   0.090   7.596 -3.3255 -0.7060  1.1792
 4215TIP3    H234205   5.265   0.221   7.669  1.7900  0.1799 -1.6267
 4216TIP3   OH234206   3.780   6.552   0.004 -0.1122  0.0338  0.5992
 4216TIP3    H134207   3.783   6.548  -0.092 -1.1239 -0.4316  0.5795
 4216TIP3    H234208   3.779   6.646   0.024 -0.6345  0.1330  0.1259
 4217TIP3   OH234209   1.606   0.010   8.007 -0.0080 -0.1135 -0.3465
 4217TIP3    H134210   1.564  -0.051   7.947 -0.9118 -0.3260  0.4809
 4217TIP3    H234211   1.698  -0.014   8.006  0.3813  1.0996 -3.1016
 4218TIP3   OH234212   2.739   3.477   0.993 -0.0475  0.3206  0.2506
 4218TIP3    H134213   2.770   3.547   0.937 -0.7413  1.4098  1.1812
 4218TIP3    H234214   2.648   3.500   1.012 -1.2471 -2.2766 -1.6556
 4219TIP3   OH234215   5.284   1.855   7.413 -0.2046 -0.5578  0.1367
 4219TIP3    H134216   5.238   1.807   7.345 -0.9182  0.0506  0.1801
 4219TIP3    H234217   5.245   1.824   7.495 -0.9606  0.3614  0.1482
 4220TIP3   OH234218   6.117   5.580   7.231 -0.3241 -0.2959 -0.2772
 4220TIP3    H134219   6.172   5.657   7.249 -1.0917  0.0182  0.8193
 4220TIP3    H234220   6.178   5.516   7.194  0.9254 -0.1218  1.3307
 4221TIP3   OH234221   6.296   5.903   1.410 -0.4907  0.6903  0.0153
 4221TIP3    H134222   6.382   5.917   1.369 -0.1260  0.2331  0.6112
 4221TIP3    H234223   6.243   5.865   1.340  0.0891  0.0346 -0.0833
 4222TIP3   OH234224   0.213   4.088   1.839 -0.5884 -0.4497 -0.1429
 4222TIP3    H134225   0.191   3.997   1.860  0.3366 -0.3310  1.4843
 4222TIP3    H234226   0.131   4.124   1.804 -0.5247 -2.3275 -2.4942
 4223TIP3   OH234227   5.539   0.812   1.537 -0.3981  0.1663 -0.1185
 4223TIP3    H134228   5.629   0.818   1.570 -0.1169 -0.9804 -0.6028
 4223TIP3    H234229   5.490   0.876   1.589  0.4596 -0.0410  0.9973
 4224TIP3   OH234230   0.086   6.981   1.411 -0.0634 -0.1716 -0.2196
 4224TIP3    H134231   0.083   7.056   1.471  2.2861 -0.3523  0.1988
 4224TIP3    H234232   0.007   6.931   1.432 -0.7549  1.2456  0.7336
 4225TIP3   OH234233   0.063   6.167   1.121  0.9016 -0.5258 -0.0832
 4225TIP3    H134234   0.010   6.225   1.175  2.0952  0.5488 -0.0061
 4225TIP3    H234235   0.011   6.087   1.113  0.0716 -0.1855  1.4553
 4226TIP3   OH234236   0.892   5.067   6.489 -0.0025  0.0112  0.4090
 4226TIP3    H134237   0.983   5.038   6.503 -0.0064  0.1419  0.7036
 4226TIP3    H234238   0.895   5.162   6.500 -0.6022 -0.1777  2.8810
 4227TIP3   OH234239   4.097   6.399   7.977  0.6359  0.2534  0.1169
 4227TIP3    H134240   4.170   6.339   7.961  0.2286 -0.8788  2.2465
 4227TIP3    H234241   4.019   6.347   7.959  0.3002  0.4517  0.9514
 4228TIP3   OH234242   2.425   4.380   2.234  0.4266 -0.1147 -0.5104
 4228TIP3    H134243   2.383   4.427   2.161  2.1317 -0.6179 -1.8800
 4228TIP3    H234244   2.382   4.294   2.235  1.4476 -0.6886 -2.0119
 4229TIP3   OH234245   1.849   2.414   7.326  0.0541  0.3010 -0.8605
 4229TIP3    H134246   1.829   2.480   7.261  1.8006  0.7938 -0.9522
 4229TIP3    H234247   1.933   2.378   7.299  0.1979 -0.3956  0.4074
 4230TIP3   OH234248   3.233   5.988   0.799 -0.6715  0.0858  0.3678
 4230TIP3    H134249   3.173   5.927   0.842 -0.0927  0.7080  2.1611
 4230TIP3    H234250   3.187   6.071   0.798  0.7960  1.1432  3.7736
 4231TIP3   OH234251   1.144   1.611   0.631 -0.5978  0.1959  0.1140
 4231TIP3    H134252   1.097   1.612   0.547 -1.1925  2.4656  0.4033
 4231TIP3    H234253   1.223   1.662   0.615 -1.1909  1.4916  1.1500
 4232TIP3   OH234254   2.095   5.327   6.549 -0.6068 -0.4818  0.0291
 4232TIP3    H134255   2.075   5.266   6.478 -0.6314  0.8671 -1.1736
 4232TIP3    H234256   2.010   5.364   6.572 -0.4621 -0.1379  0.0147
 4233TIP3   OH234257   6.906   6.024   0.253 -0.3406 -0.1275  0.7388
 4233TIP3    H134258   6.828   6.065   0.291 -0.7304 -0.7173  0.6039
 4233TIP3    H234259   6.945   5.975   0.326  0.5400  1.0561  1.0869
 4234TIP3   OH234260   4.338   1.134   6.940 -0.0953  0.7283 -0.2217
 4234TIP3    H134261   4.404   1.145   6.871  1.7260 -0.2634  1.2539
 4234TIP3    H234262   4.352   1.045   6.971 -0.3749  1.3729  1.8803
 4235TIP3   OH234263   6.928   4.381   7.602  0.2029 -0.1533 -0.0057
 4235TIP3    H134264   6.961   4.448   7.541 -0.9286  0.1766 -0.2733
 4235TIP3    H234265   6.875   4.430   7.665 -0.3122 -0.7515  0.0297
 4236TIP3   OH234266   3.987   4.114   7.832  0.3491 -0.0735 -0.5418
 4236TIP3    H134267   3.941   4.031   7.825 -1.0232  0.7114 -1.2088
 4236TIP3    H234268   3.996   4.145   7.742  0.6770  0.5966 -0.2920
 4237TIP3   OH234269   3.980   1.191   7.572 -0.7679  0.4672  0.0320
 4237TIP3    H134270   3.945   1.141   7.498 -2.8472 -1.6337  2.2307
 4237TIP3    H234271   3.912   1.256   7.591 -0.2695  0.9596  0.1466
 4238TIP3   OH234272   4.474   0.034   1.311  0.5820  0.3751  0.1445
 4238TIP3    H134273   4.427   0.117   1.306  1.0783  0.6491 -0.1468
 4238TIP3    H234274   4.555   0.055   1.358  0.9000  0.1565 -0.2891
 4239TIP3   OH234275   1.806   4.285   1.808 -0.7456  0.0656 -0.3841
 4239TIP3    H134276   1.773   4.365   1.849 -0.7851  0.2759 -0.8181
 4239TIP3    H234277   1.793   4.217   1.874  1.3441  0.7929  0.8746
 4240TIP3   OH234278   3.408   4.470   0.449 -0.2664 -0.2079 -0.0202
 4240TIP3    H134279   3.396   4.559   0.416 -0.5657  0.0443  0.7571
 4240TIP3    H234280   3.340   4.460   0.516  0.7939 -0.4505  1.0398
 4241TIP3   OH234281   0.164   0.390   7.959  0.0565 -0.0856 -0.2201
 4241TIP3    H134282   0.225   0.430   7.898 -1.2223 -0.2175 -1.6603
 4241TIP3    H234283   0.091   0.451   7.964  1.0162  0.9650  2.9103
 4242TIP3   OH234284   4.987   2.651   1.834  0.3423  0.4683  0.0998
 4242TIP3    H134285   5.063   2.663   1.778  0.3227  1.3863  0.2564
 4242TIP3    H234286   4.931   2.591   1.786  0.6892  0.6150 -0.4959
 4243TIP3   OH234287   1.373   6.257   8.339  0.0146 -0.3744 -0.0653
 4243TIP3    H134288   1.307   6.325   8.356  0.6314  0.8219 -2.1619
 4243TIP3    H234289   1.324   6.175   8.343 -1.2691  0.3685  0.0209
 4244TIP3   OH234290   6.651   0.918   7.233 -0.6613 -0.1205 -0.4888
 4244TIP3    H134291   6.667   1.010   7.253 -0.7443  0.8262 -4.0971
 4244TIP3    H234292   6.716   0.871   7.285 -0.7855  1.9049  1.6337
 4245TIP3   OH234293   6.071   4.836   0.344 -0.6062 -0.1990 -0.2209
 4245TIP3    H134294   6.164   4.859   0.334 -0.2322 -0.5208  2.0072
 4245TIP3    H234295   6.025   4.918   0.331  0.1421  0.3474  0.4858
 4246TIP3   OH234296   2.063   4.927   7.550 -0.0925 -0.1748  0.3627
 4246TIP3    H134297   2.075   4.833   7.547  1.2870 -0.0088  0.3428
 4246TIP3    H234298   2.015   4.943   7.632 -1.0322 -0.9362 -0.0173
 4247TIP3   OH234299   2.377   5.450   6.939 -0.1020 -0.6376 -0.1244
 4247TIP3    H134300   2.425   5.503   6.875 -0.8203  0.2002  0.0112
 4247TIP3    H234301   2.402   5.360   6.919  0.5009 -0.3071 -0.9033
 4248TIP3   OH234302   4.003   4.558   7.143  0.5700 -0.0127  0.0522
 4248TIP3    H134303   4.088   4.580   7.182  0.4883 -1.4157  1.0637
 4248TIP3    H234304   3.953   4.640   7.149  1.5383  0.5854  0.2492
 4249TIP3   OH234305   3.618   5.354   1.357  0.0429 -0.4113  0.2610
 4249TIP3    H134306   3.621   5.301   1.437 -1.4998  0.6214  1.0377
 4249TIP3    H234307   3.543   5.412   1.368 -0.0055  0.0230 -1.7938
 4250TIP3   OH234308   4.444   2.193   1.459 -0.0459  0.6055  0.0100
 4250TIP3    H134309   4.405   2.168   1.543  0.4585  1.6459  0.5789
 4250TIP3    H234310   4.388   2.153   1.393 -0.1015 -0.7468  0.8477
 4251TIP3   OH234311   1.733   3.283   8.167  0.1434 -0.3148 -0.2204
 4251TIP3    H134312   1.776   3.247   8.244  1.3235  1.6343  0.1252
 4251TIP3    H234313   1.743   3.378   8.176 -1.0118  0.0441 -2.0281
 4252TIP3   OH234314   5.349   2.619   7.791  0.3175  0.3298 -0.3344
 4252TIP3    H134315   5.337   2.634   7.885 -2.1055 -0.3269 -0.4497
 4252TIP3    H234316   5.347   2.706   7.752  0.7732  0.5684  0.1673
 4253TIP3   OH234317   2.764   2.886   1.712 -0.2575  0.2356 -0.5653
 4253TIP3    H134318   2.706   2.963   1.714  1.3532  1.4905 -0.2731
 4253TIP3    H234319   2.748   2.847   1.626  0.3657  2.0995 -1.5695
 4254TIP3   OH234320   3.518   0.739   6.741  0.4131 -0.1418  0.1150
 4254TIP3    H134321   3.583   0.672   6.761  0.2782 -0.2550  0.1780
 4254TIP3    H234322   3.550   0.817   6.787  1.1555  0.1476 -0.8771
 4255TIP3   OH234323   0.069   1.148   1.565 -0.3528 -0.4396  0.2481
 4255TIP3    H134324   0.036   1.110   1.484  1.2418 -0.7172 -0.3025
 4255TIP3    H234325   0.070   1.076   1.627 -0.5201 -0.4932  0.1880
 4256TIP3   OH234326   5.831   5.483   1.330  0.2838 -0.4444 -0.1042
 4256TIP3    H134327   5.778   5.432   1.391 -2.3246  2.1992  0.0357
 4256TIP3    H234328   5.917   5.490   1.372 -0.0308 -2.5218  1.0045
 4257TIP3   OH234329   3.780   5.377   0.782  0.1892  0.4603  0.0119
 4257TIP3    H134330   3.735   5.441   0.727  1.4909 -0.1429 -1.8519
 4257TIP3    H234331   3.872   5.403   0.779  0.4674 -0.3580  0.8773
 4258TIP3   OH234332   1.632   3.040   1.915 -0.0276 -0.0769  0.0184
 4258TIP3    H134333   1.723   3.069   1.915  0.4895 -1.6219  0.8773
 4258TIP3    H234334   1.587   3.103   1.971  1.1563 -1.1220  2.2464
 4259TIP3   OH234335   2.363   5.203   8.135  0.0515 -0.2906 -0.0069
 4259TIP3    H134336   2.284   5.228   8.087  1.1052 -0.0822 -1.7066
 4259TIP3    H234337   2.395   5.285   8.173  2.1924  0.7686 -3.5989
 4260TIP3   OH234338   6.015   5.220   0.820 -0.6699 -0.7732  0.0873
 4260TIP3    H134339   5.952   5.149   0.831 -0.3862 -1.1508 -0.6724
 4260TIP3    H234340   6.081   5.185   0.760 -1.3262  0.6288 -1.5477
 4261TIP3   OH234341   6.520   2.690   0.053 -0.1288  0.7528  0.0150
 4261TIP3    H134342   6.521   2.702  -0.042 -3.0712  0.4232 -0.1457
 4261TIP3    H234343   6.457   2.755   0.085 -1.3902 -1.0373  1.3612
 4262TIP3   OH234344   2.128   3.165   6.842 -0.2742 -0.2898  0.3194
 4262TIP3    H134345   2.036   3.185   6.823  0.1808  0.6628 -1.1172
 4262TIP3    H234346   2.174   3.248   6.825  0.8944 -0.8701  0.5747
 4263TIP3   OH234347   1.152   5.086   6.590  0.2851  0.0475  0.0492
 4263TIP3    H134348   1.237   5.058   6.624  1.4379  0.4976 -2.2229
 4263TIP3    H234349   1.168   5.102   6.497 -1.5830  2.9197  0.0854
 4264TIP3   OH234350   0.017   4.270   1.017 -0.0677 -0.0006 -0.4866
 4264TIP3    H134351  -0.002   4.328   1.090  1.7413  0.7476 -0.5444
 4264TIP3    H234352   0.000   4.182   1.051  3.2463  0.0663  1.8448
 4265TIP3   OH234353   1.147   1.195   1.595  0.3892 -0.0994  0.3579
 4265TIP3    H134354   1.172   1.106   1.623 -3.4906 -0.5805  3.2040
 4265TIP3    H234355   1.101   1.181   1.512  1.7508 -0.3663 -0.3822
 4266TIP3   OH234356   3.472   1.202   0.486 -0.2970 -0.0418 -0.0601
 4266TIP3    H134357   3.465   1.140   0.559  0.0665  0.9674  0.8520
 4266TIP3    H234358   3.477   1.146   0.408  1.9846 -1.2783  0.8482
 4267TIP3   OH234359   5.436   4.570   1.638 -0.3192 -0.2588 -0.1890
 4267TIP3    H134360   5.476   4.531   1.561 -2.4077  0.0437 -1.5135
 4267TIP3    H234361   5.487   4.536   1.712  0.7226 -1.8658 -1.5754
 4268TIP3   OH234362   1.650   6.191   1.797 -0.0604  0.2108 -0.2365
 4268TIP3    H134363   1.620   6.187   1.888  0.7641  1.1863  0.0985
 4268TIP3    H234364   1.649   6.284   1.776 -0.2246 -0.0067 -1.2283
 4269TIP3   OH234365   6.779   5.973   2.388  0.0470 -0.2236  0.9487
 4269TIP3    H134366   6.786   5.877   2.387  0.6597 -0.1846 -0.5321
 4269TIP3    H234367   6.716   5.991   2.458 -0.0161 -1.6968  1.3183
 4270TIP3   OH234368   5.118   6.162   0.017  0.2060 -0.4527  0.1500
 4270TIP3    H134369   5.048   6.153  -0.049  1.0026 -0.5358 -0.7057
 4270TIP3    H234370   5.089   6.107   0.090 -0.2008 -1.2026 -0.5586
 4271TIP3   OH234371   3.506   3.542   6.515 -0.2551 -0.1975  1.0195
 4271TIP3    H134372   3.559   3.587   6.448 -0.2877  1.1028  1.8287
 4271TIP3    H234373   3.519   3.449   6.498 -0.1147  0.0994 -0.6842
 4272TIP3   OH234374   6.535   2.895   7.893  0.4056 -0.3035 -0.4987
 4272TIP3    H134375   6.573   2.808   7.909 -0.8627 -0.9885 -1.0676
 4272TIP3    H234376   6.457   2.898   7.949  2.1359  1.7830  2.0282
 4273TIP3   OH234377   2.289   3.629   0.676  0.1933  0.5266 -0.2318
 4273TIP3    H134378   2.228   3.611   0.604 -0.0243  0.1897  0.0324
 4273TIP3    H234379   2.237   3.616   0.755  0.8262 -0.6514  0.0184
 4274TIP3   OH234380   0.312   1.453   1.181  0.0328  0.3086  0.8910
 4274TIP3    H134381   0.226   1.424   1.149  1.2674 -2.5196 -0.2273
 4274TIP3    H234382   0.329   1.398   1.258  1.1050  0.3537  0.7053
 4275TIP3   OH234383   6.461   5.710   0.304 -0.2906  0.0148  0.2711
 4275TIP3    H134384   6.413   5.644   0.354 -2.3612 -1.0185 -2.7756
 4275TIP3    H234385   6.529   5.740   0.363 -1.9787 -1.6816  3.3285
 4276TIP3   OH234386   0.928   4.620   2.362 -0.1173  0.0425 -0.4012
 4276TIP3    H134387   1.013   4.661   2.344 -0.1307 -0.0008 -0.5622
 4276TIP3    H234388   0.887   4.612   2.276 -0.8271  1.2537 -0.2029
 4277TIP3   OH234389   0.212   2.480   7.055 -0.0990 -0.4520  0.0037
 4277TIP3    H134390   0.190   2.566   7.019  1.2197 -0.5775 -1.1721
 4277TIP3    H234391   0.181   2.484   7.146  1.2092  1.7940  0.4265
 4278TIP3   OH234392   0.877   0.571   7.248 -0.1480 -0.7589 -0.5762
 4278TIP3    H134393   0.910   0.629   7.179 -1.7901  1.2540  0.2122
 4278TIP3    H234394   0.799   0.531   7.210 -1.9193  1.4807  0.4696
 4279TIP3   OH234395   2.148   1.841   0.705  0.2004 -0.2256  0.0504
 4279TIP3    H134396   2.116   1.751   0.710  0.2272 -0.2461 -0.1545
 4279TIP3    H234397   2.242   1.835   0.726 -0.0353 -0.0953  1.2010
 4280TIP3   OH234398   6.666   2.563   0.814  0.4030  0.2476 -0.3506
 4280TIP3    H134399   6.617   2.547   0.894  0.8855  2.2281  0.4004
 4280TIP3    H234400   6.657   2.483   0.763 -0.1430 -0.9477  1.5599
 4281TIP3   OH234401   4.608   3.415   7.305 -0.2157  0.5303 -0.1039
 4281TIP3    H134402   4.643   3.378   7.386 -1.0022 -0.8130 -0.3562
 4281TIP3    H234403   4.536   3.472   7.335  0.1909  0.8939  0.2013
 4282TIP3   OH234404   0.982   0.782   0.543 -0.0223 -0.4042 -0.3525
 4282TIP3    H134405   0.924   0.810   0.614 -0.1109 -0.7302 -0.2975
 4282TIP3    H234406   0.925   0.733   0.484  0.0477 -0.1177 -0.6578
 4283TIP3   OH234407   2.214   3.592   1.918 -0.0338 -0.0106  0.0000
 4283TIP3    H134408   2.309   3.598   1.924 -0.0009 -0.3839 -0.0833
 4283TIP3    H234409   2.182   3.637   1.996  0.2398 -0.5331  0.4193
 4284TIP3   OH234410   3.078   5.322   7.927 -0.1665  0.2388  0.4553
 4284TIP3    H134411   3.077   5.384   7.853  0.0602  0.9010  0.9941
 4284TIP3    H234412   3.170   5.294   7.933 -0.1860  0.1801  0.4764
 4285TIP3   OH234413   3.606   0.830   0.813 -0.6759 -0.0749 -0.1826
 4285TIP3    H134414   3.671   0.867   0.754 -0.3213 -0.0626  0.2136
 4285TIP3    H234415   3.603   0.889   0.888 -0.9933 -0.1871 -0.1007
 4286TIP3   OH234416   6.265   3.246   1.573 -0.5831 -0.2190 -0.4551
 4286TIP3    H134417   6.356   3.218   1.565 -0.8724 -0.8873 -1.6928
 4286TIP3    H234418   6.220   3.172   1.614 -0.9510 -0.7912 -1.8207
 4287TIP3   OH234419   0.089   5.434   6.628 -0.3270  0.0584  0.2917
 4287TIP3    H134420   0.102   5.380   6.706 -1.7757 -1.1268 -0.2383
 4287TIP3    H234421  -0.001   5.415   6.600 -0.0113  0.8190 -1.3932
 4288TIP3   OH234422   2.901   3.679   2.261 -0.2745  0.6172 -0.1535
 4288TIP3    H134423   2.883   3.756   2.315 -0.4605 -0.4082  1.2846
 4288TIP3    H234424   2.823   3.669   2.207 -0.8966  0.5537  0.7408
 4289TIP3   OH234425   5.752   6.491   7.573  0.1958 -0.2384  0.0520
 4289TIP3    H134426   5.675   6.441   7.601  1.1393 -1.6970  0.0994
 4289TIP3    H234427   5.826   6.445   7.611  1.0257  2.3882  1.8891
 4290TIP3   OH234428   4.915   1.917   1.380  0.6069  0.0973  0.7313
 4290TIP3    H134429   4.865   1.844   1.344  0.1735  1.0300 -0.6572
 4290TIP3    H234430   4.848   1.978   1.412  0.7072  1.5444 -1.5182
 4291TIP3   OH234431   1.411   1.889   6.755  0.6741 -0.4224 -0.4742
 4291TIP3    H134432   1.437   1.943   6.829 -0.3343  0.2550 -0.5912
 4291TIP3    H234433   1.340   1.834   6.789 -1.2982  1.3777 -1.3981
 4292TIP3   OH234434   2.704   2.086   7.762  0.0973  0.2694  0.0691
 4292TIP3    H134435   2.618   2.111   7.795  0.2178 -1.0210  1.4443
 4292TIP3    H234436   2.765   2.143   7.807 -0.0273  1.5385 -1.2854
 4293TIP3   OH234437   5.744   4.471   2.108 -0.1509  0.2534  0.6152
 4293TIP3    H134438   5.826   4.440   2.070 -0.1361  0.6421  0.3197
 4293TIP3    H234439   5.717   4.401   2.167  0.2750  0.0221  0.5422
 4294TIP3   OH234440   3.092   3.645   2.470  0.2707  0.2095  0.5760
 4294TIP3    H134441   3.042   3.663   2.390  0.6176  1.2908  0.5780
 4294TIP3    H234442   3.031   3.598   2.526  0.4502 -1.8674 -0.8367
 4295TIP3   OH234443   3.140   0.479   7.334  0.3789 -0.1322 -0.0387
 4295TIP3    H134444   3.234   0.467   7.346  0.2552  0.1713  1.3973
 4295TIP3    H234445   3.132   0.520   7.247  1.5019 -0.7963 -0.4789
 4296TIP3   OH234446   6.891   0.589   7.100  0.3792  0.1347 -0.3554
 4296TIP3    H134447   6.910   0.504   7.060  1.3120 -0.9594  2.1983
 4296TIP3    H234448   6.872   0.569   7.191  1.1242  2.7288  0.4562
 4297TIP3   OH234449   3.878   0.732   6.657  0.0462 -0.4231  0.3733
 4297TIP3    H134450   3.892   0.750   6.564  0.0586 -1.3009  0.1969
 4297TIP3    H234451   3.885   0.818   6.699 -0.3459  0.0390 -0.4789
 4298TIP3   OH234452   0.016   2.145   6.672  0.1909  0.0017  0.0160
 4298TIP3    H134453   0.065   2.171   6.594  2.0938 -1.7544  0.5465
 4298TIP3    H234454   0.074   2.165   6.745 -0.6053 -0.5523  0.8301
 4299TIP3   OH234455   2.581   1.030   6.741 -0.3258  0.2734 -0.4811
 4299TIP3    H134456   2.493   1.056   6.714 -0.8205  0.2128  0.9833
 4299TIP3    H234457   2.583   1.045   6.836  1.3864  0.6882 -0.5417
 4300TIP3   OH234458   2.143   6.418   1.332  0.5256  0.5139  0.0912
 4300TIP3    H134459   2.195   6.358   1.279 -0.5459 -0.0724 -0.3205
 4300TIP3    H234460   2.186   6.417   1.417  1.2033  0.0737 -0.2380
 4301TIP3   OH234461   4.668   4.607   6.333  0.1352  0.1555 -0.0577
 4301TIP3    H134462   4.672   4.579   6.425 -0.6690  1.3693  0.3714
 4301TIP3    H234463   4.754   4.585   6.297 -0.3550 -2.6588  0.2617
 4302TIP3   OH234464   0.423   5.735   6.532  0.5822 -0.1540 -0.2342
 4302TIP3    H134465   0.446   5.807   6.591 -1.0928  0.0810  0.1930
 4302TIP3    H234466   0.400   5.778   6.449 -0.1664 -0.2134 -0.0603
 4303TIP3   OH234467   4.451   1.977   7.216 -0.7104 -0.0623 -0.2175
 4303TIP3    H134468   4.373   1.989   7.161 -1.4181 -2.2834  0.1899
 4303TIP3    H234469   4.418   1.980   7.305 -0.4391 -1.3569 -0.0451
 4304TIP3   OH234470   1.040   0.839   1.210 -0.1432  0.0026  0.0132
 4304TIP3    H134471   0.956   0.795   1.195  0.2672 -0.4620 -0.9976
 4304TIP3    H234472   1.080   0.844   1.123  0.6764  0.6419  0.4174
 4305TIP3   OH234473   4.474   1.595   7.301  0.3174  0.3107  0.2476
 4305TIP3    H134474   4.426   1.633   7.228 -0.0164 -0.3926  0.0930
 4305TIP3    H234475   4.528   1.526   7.261  2.2623  1.7505  0.2530
 4306TIP3   OH234476   0.095   5.705   1.463 -0.3298  0.5058 -0.9594
 4306TIP3    H134477   0.068   5.711   1.371 -2.2777  2.4740 -0.3610
 4306TIP3    H234478   0.090   5.795   1.495 -0.9161 -0.2745  1.3771
 4307TIP3   OH234479   4.659   0.269   1.049  0.5326  0.1185 -0.0806
 4307TIP3    H134480   4.723   0.327   1.009  1.8670 -0.1569  1.5405
 4307TIP3    H234481   4.590   0.327   1.081  0.2829  0.4837 -1.2557
 4308TIP3   OH234482   0.581   0.246   1.594 -0.0288  0.0102  0.1388
 4308TIP3    H134483   0.626   0.191   1.658  0.3303  0.9576  0.7084
 4308TIP3    H234484   0.495   0.261   1.632 -0.0388  0.0595  0.0964
 4309TIP3   OH234485   6.629   2.361   1.529  0.0197  0.7123  0.1846
 4309TIP3    H134486   6.550   2.375   1.476  0.1443  1.7579  0.2688
 4309TIP3    H234487   6.696   2.336   1.465 -0.6841 -1.6619  0.2517
 4310TIP3   OH234488   5.666   3.540   7.454  0.5613  0.2611 -0.4058
 4310TIP3    H134489   5.617   3.590   7.388  1.8116 -0.0502 -1.6105
 4310TIP3    H234490   5.598   3.505   7.512 -0.6376  0.1485 -1.8007
 4311TIP3   OH234491   3.891   0.142   7.003  0.4945 -0.0078  0.7745
 4311TIP3    H134492   3.980   0.145   6.966 -0.8695 -0.7460 -3.0041
 4311TIP3    H234493   3.868   0.049   7.001 -0.4519  0.1986  1.5004
 4312TIP3   OH234494   1.555   5.765   7.492 -0.0712  0.1979 -0.4109
 4312TIP3    H134495   1.578   5.843   7.441  0.0023  1.2733  1.2171
 4312TIP3    H234496   1.576   5.692   7.433  1.4268  1.3388 -1.3754
 4313TIP3   OH234497   3.315   6.114   7.341  0.3323 -0.4320  0.1736
 4313TIP3    H134498   3.244   6.087   7.283  1.1358 -1.4704 -0.3646
 4313TIP3    H234499   3.273   6.127   7.426 -0.7558  0.5382 -0.4902
 4314TIP3   OH234500   4.352   5.843   1.246 -0.0701  0.2695 -0.4269
 4314TIP3    H134501   4.446   5.835   1.262  0.1267 -0.1657 -1.6824
 4314TIP3    H234502   4.342   5.824   1.153 -1.4577 -0.1254 -0.2165
 4315TIP3   OH234503   6.551   2.825   6.847  0.1374 -0.2347 -0.4222
 4315TIP3    H134504   6.495   2.865   6.781 -0.0042  0.2345 -0.0215
 4315TIP3    H234505   6.543   2.882   6.924  1.3800 -0.0044 -0.4433
 4316TIP3   OH234506   6.588   4.903   1.793 -0.1657  0.0453  0.2395
 4316TIP3    H134507   6.654   4.972   1.792 -0.2858  0.1921 -2.1457
 4316TIP3    H234508   6.514   4.941   1.840  1.0302  0.2018  2.1319
 4317TIP3   OH234509   6.500   0.713   1.196  0.6110 -0.3899 -0.0129
 4317TIP3    H134510   6.509   0.801   1.234 -0.4788 -0.4377  0.3830
 4317TIP3    H234511   6.486   0.656   1.272 -1.4028 -0.5167 -0.4494
 4318TIP3   OH234512   2.304   3.480   1.474 -0.4127 -0.0173 -0.1937
 4318TIP3    H134513   2.347   3.544   1.418  2.2380  0.0677  1.7703
 4318TIP3    H234514   2.213   3.511   1.480  0.1554  2.0581 -1.3760
 4319TIP3   OH234515   2.411   2.175   6.814 -0.3947 -0.1976 -0.0491
 4319TIP3    H134516   2.405   2.179   6.719  0.1305  0.9577 -0.0469
 4319TIP3    H234517   2.393   2.264   6.843 -0.8606 -0.6069  0.9592
 4320TIP3   OH234518   5.512   6.537   0.328 -0.0949  0.0025 -0.1413
 4320TIP3    H134519   5.577   6.539   0.257  0.4738 -1.1196  0.3264
 4320TIP3    H234520   5.469   6.622   0.323  1.5699  0.8782 -0.3188
 4321TIP3   OH234521   1.007   4.771   7.968  0.2598 -0.1094  0.1648
 4321TIP3    H134522   1.097   4.801   7.973  0.6466 -0.9404 -1.1797
 4321TIP3    H234523   0.955   4.851   7.960  1.0991  0.3178 -1.4399
 4322TIP3   OH234524   3.418   2.668   0.154 -0.0189 -0.6513  0.3618
 4322TIP3    H134525   3.362   2.637   0.083  1.0569  1.2537 -1.4216
 4322TIP3    H234526   3.506   2.673   0.115  0.6402  0.2236  1.8745
 4323TIP3   OH234527   0.543   4.737   7.287  0.7242 -0.0233 -0.0362
 4323TIP3    H134528   0.476   4.709   7.350  1.1045 -1.0601 -0.0803
 4323TIP3    H234529   0.498   4.801   7.232 -0.5926 -1.5477 -0.8044
 4324TIP3   OH234530   3.043   2.491   0.622  0.5817 -0.2047 -0.5252
 4324TIP3    H134531   2.988   2.471   0.698 -2.3182 -1.6048 -2.8020
 4324TIP3    H234532   3.117   2.431   0.629 -1.8206 -3.4978 -0.8684
 4325TIP3   OH234533   6.984   1.113   7.144 -0.3072  0.4082  0.3133
 4325TIP3    H134534   6.960   1.206   7.144  0.1198  0.6486 -2.7900
 4325TIP3    H234535   6.913   1.070   7.096 -0.5422 -0.9336  1.7825
 4326TIP3   OH234536   0.228   4.612   1.352  0.5765 -0.4894 -0.5138
 4326TIP3    H134537   0.133   4.607   1.347  0.2572  1.5775  1.5998
 4326TIP3    H234538   0.246   4.633   1.444  3.1746 -2.0046 -0.5653
 4327TIP3   OH234539   3.265   0.978   1.278 -0.0718 -0.0120  0.2874
 4327TIP3    H134540   3.350   0.966   1.320 -0.4448  1.7140  1.6526
 4327TIP3    H234541   3.252   1.073   1.278 -0.9935 -0.0872 -1.9872
 4328TIP3   OH234542   3.189   6.207   7.602 -0.2809 -0.1313  0.1823
 4328TIP3    H134543   3.203   6.272   7.533  1.8565 -1.4379 -0.7196
 4328TIP3    H234544   3.097   6.180   7.591 -0.1981  0.2338 -1.6934
 4329TIP3   OH234545   1.948   1.709   8.039 -0.1824  0.1899 -0.3379
 4329TIP3    H134546   2.027   1.717   8.091  0.4706 -0.3087 -1.2288
 4329TIP3    H234547   1.967   1.759   7.959 -0.6958 -0.0753 -0.6339
 4330TIP3   OH234548   1.765   4.970   1.259  0.5476 -0.1460  0.2805
 4330TIP3    H134549   1.721   5.040   1.212 -0.2656 -1.1909 -0.5634
 4330TIP3    H234550   1.858   4.980   1.238  0.1557 -0.9120 -2.0320
 4331TIP3   OH234551   0.904   0.197   0.305  0.1401  0.2198  0.3237
 4331TIP3    H134552   0.852   0.140   0.249 -1.2386  0.4090  1.3470
 4331TIP3    H234553   0.992   0.159   0.303 -0.9582 -2.7512  1.9403
 4332TIP3   OH234554   4.603   4.278   0.950 -0.3435  0.2525  1.0559
 4332TIP3    H134555   4.538   4.223   0.906  0.7110 -0.7780  0.7438
 4332TIP3    H234556   4.653   4.218   1.005 -0.7309  1.2984  2.6421
 4333TIP3   OH234557   1.294   2.264   7.899 -0.3481 -0.0948  0.2177
 4333TIP3    H134558   1.335   2.332   7.953  0.3588  0.0542 -0.4821
 4333TIP3    H234559   1.359   2.193   7.897 -0.8730 -0.5872  0.5348
 4334TIP3   OH234560   6.707   2.631   6.756  0.2431  0.2658  0.6289
 4334TIP3    H134561   6.619   2.661   6.776 -0.7296  0.2966 -2.9139
 4334TIP3    H234562   6.760   2.710   6.753  0.0168  0.4378  1.2257
 4335TIP3   OH234563   3.261   6.347   7.925  0.2058 -0.4177 -0.0403
 4335TIP3    H134564   3.278   6.428   7.972 -0.7392  0.2566 -0.8202
 4335TIP3    H234565   3.175   6.360   7.885  0.9843 -0.9343 -1.9805
 4336TIP3   OH234566   2.353   4.894   1.957  0.5951 -0.5688 -0.2256
 4336TIP3    H134567   2.299   4.884   1.879  1.4640 -0.2843 -0.8728
 4336TIP3    H234568   2.345   4.987   1.980 -0.7577 -0.9125  0.8581
 4337TIP3   OH234569   4.769   6.213   7.529  0.5096 -0.0599 -0.3357
 4337TIP3    H134570   4.693   6.166   7.563  0.6411 -1.2346 -1.5756
 4337TIP3    H234571   4.760   6.302   7.563 -1.1638 -0.2923 -0.0957
 4338TIP3   OH234572   5.193   0.721   6.803 -0.0786  0.0216  0.1224
 4338TIP3    H134573   5.214   0.662   6.731 -1.7675  0.7285 -1.0158
 4338TIP3    H234574   5.137   0.669   6.861 -2.7857  0.7801 -1.6090
 4339TIP3   OH234575   2.607   2.250   7.534 -0.5530 -0.2779  0.1684
 4339TIP3    H134576   2.623   2.332   7.581 -2.1338  0.4748 -0.5319
 4339TIP3    H234577   2.646   2.183   7.589 -0.5792  0.7929  1.5447
 4340TIP3   OH234578   2.337   4.730   7.305  0.1584 -0.3727  0.3261
 4340TIP3    H134579   2.416   4.753   7.354  1.6169 -2.0810 -1.1120
 4340TIP3    H234580   2.339   4.787   7.228  1.1352 -1.7878 -0.7405
 4341TIP3   OH234581   1.240   5.480   7.974 -0.1312 -0.3832 -0.1653
 4341TIP3    H134582   1.242   5.445   8.063  1.1747  1.0195  0.3943
 4341TIP3    H234583   1.282   5.413   7.920  1.6364 -0.0747  0.7637
 4342TIP3   OH234584   2.144   1.718   8.254  0.1160 -0.6182  0.1625
 4342TIP3    H134585   2.219   1.659   8.241 -0.3758 -0.8956 -1.8760
 4342TIP3    H234586   2.102   1.686   8.334  1.8983 -0.7364  1.0960
 4343TIP3   OH234587   3.410   3.953   0.647 -0.1709  0.1676 -0.1747
 4343TIP3    H134588   3.378   3.863   0.642  0.0210  0.0721  0.2413
 4343TIP3    H234589   3.493   3.947   0.695  0.2281  0.4753 -0.8175
 4344TIP3   OH234590   1.905   2.693   1.386  0.1095  0.9511  0.3733
 4344TIP3    H134591   1.980   2.706   1.444 -0.1024  1.7809  0.4786
 4344TIP3    H234592   1.840   2.756   1.417 -1.7526 -1.6242  2.1131
 4345TIP3   OH234593   1.715   1.343   6.536 -0.3183 -0.0211 -0.5355
 4345TIP3    H134594   1.736   1.375   6.448  1.0658 -0.9413 -0.5560
 4345TIP3    H234595   1.627   1.308   6.527 -0.4906  0.5652 -1.3685
 4346TIP3   OH234596   5.338   0.856   1.333 -0.0990  0.5310 -0.0936
 4346TIP3    H134597   5.287   0.776   1.343  0.2078  0.4327  0.7406
 4346TIP3    H234598   5.425   0.834   1.366  1.3370 -0.0876 -3.8012
 4347TIP3   OH234599   6.691   4.897   1.477  0.2460 -0.4600 -0.2487
 4347TIP3    H134600   6.615   4.867   1.527  0.7968 -0.0598  0.8718
 4347TIP3    H234601   6.656   4.921   1.391 -1.3329  1.8359  0.9275
 4348TIP3   OH234602   6.275   6.044   5.766 -0.4249 -0.1489 -0.6348
 4348TIP3    H134603   6.341   6.113   5.760 -1.7142  1.0166 -3.2864
 4348TIP3    H234604   6.246   6.046   5.857  0.4782  1.9635 -0.3254
 4349TIP3   OH234605   2.994   6.921   1.364 -0.0070 -0.6494 -0.2736
 4349TIP3    H134606   3.048   6.998   1.344  0.8156 -0.0832  3.4017
 4349TIP3    H234607   2.911   6.958   1.394  0.4256 -1.1309  1.6057
 4350TIP3   OH234608   2.874   1.729   8.299 -0.0498  0.1112 -0.0166
 4350TIP3    H134609   2.835   1.642   8.296  0.8410 -0.2909 -0.7618
 4350TIP3    H234610   2.966   1.713   8.320 -0.1365  0.9753  1.0771
 4351TIP3   OH234611   5.428   5.374   1.699  0.3175 -0.7234  0.2608
 4351TIP3    H134612   5.341   5.403   1.671  1.2220  1.2672 -0.7477
 4351TIP3    H234613   5.420   5.363   1.794 -0.1661  3.2542  0.8550
 4352TIP3   OH234614   4.037   0.371   7.876 -0.2473  0.1376  0.4050
 4352TIP3    H134615   3.962   0.326   7.915 -0.0167 -0.6193  0.0058
 4352TIP3    H234616   4.112   0.317   7.902  0.0948  0.5913  0.3537
 4353TIP3   OH234617   2.154   4.860   8.081  0.1689  0.1138 -0.3302
 4353TIP3    H134618   2.164   4.898   8.168 -3.1228 -0.0831  0.2863
 4353TIP3    H234619   2.095   4.785   8.094 -0.2768 -0.0271 -2.6688
 4354TIP3   OH234620   0.146   5.290   6.157  0.3161 -0.7294 -0.3368
 4354TIP3    H134621   0.183   5.237   6.086  0.7017  0.6798 -1.2230
 4354TIP3    H234622   0.109   5.367   6.113 -0.2461 -0.2584  0.9109
 4355TIP3   OH234623   2.517   2.712   2.089 -0.2269 -0.2246 -0.1815
 4355TIP3    H134624   2.506   2.794   2.041 -0.2980  0.7344  1.3982
 4355TIP3    H234625   2.432   2.696   2.129  0.5297  0.5263  1.8778
 4356TIP3   OH234626   0.971   4.917   1.250  0.7488 -0.2217  0.4437
 4356TIP3    H134627   1.025   4.863   1.307 -0.1120 -1.3332  0.2524
 4356TIP3    H234628   0.882   4.907   1.284  0.2635 -0.6612 -0.8768
 4357TIP3   OH234629   0.753   1.864   8.220  0.0896  0.4255 -0.6770
 4357TIP3    H134630   0.661   1.877   8.244  0.9097  2.2260  1.8750
 4357TIP3    H234631   0.776   1.781   8.260 -0.1056  0.5983 -0.1943
 4358TIP3   OH234632   0.437   1.684   7.972  0.0469  0.1534 -0.1266
 4358TIP3    H134633   0.420   1.704   8.064  0.0695 -1.2419  0.2110
 4358TIP3    H234634   0.511   1.739   7.948  0.2708  0.2732  0.8017
 4359TIP3   OH234635   5.957   6.544   8.204 -0.1273  0.2102 -0.3573
 4359TIP3    H134636   5.929   6.634   8.218 -0.2587  0.3044 -1.1778
 4359TIP3    H234637   5.961   6.535   8.109 -1.3294 -1.0299 -0.3177
 4360TIP3   OH234638   4.342   4.279   0.600  0.3504  0.3400  0.6610
 4360TIP3    H134639   4.263   4.236   0.568  0.7633  0.1925 -0.1770
 4360TIP3    H234640   4.334   4.369   0.569  0.8778  0.1309 -0.0858
 4361TIP3   OH234641   5.565   6.567   7.152  0.7405 -0.4954  0.3501
 4361TIP3    H134642   5.541   6.635   7.088 -2.2866  0.0156  1.8445
 4361TIP3    H234643   5.644   6.601   7.194  1.0219  0.6244 -1.0170
 4362TIP3   OH234644   3.204   1.272   7.815  0.4062  0.3579  0.6549
 4362TIP3    H134645   3.262   1.198   7.833  2.2710  1.6852  0.3956
 4362TIP3    H234646   3.118   1.232   7.805  1.5267 -1.9710 -0.8399
 4363TIP3   OH234647   1.387   6.547   0.603 -0.3841  1.0146 -0.3128
 4363TIP3    H134648   1.431   6.609   0.545 -0.5146  0.0795 -1.4614
 4363TIP3    H234649   1.454   6.482   0.624 -0.5942  0.8513 -0.1465
 4364TIP3   OH234650   0.980   6.955   1.197  0.3232  0.0989 -0.3031
 4364TIP3    H134651   1.003   7.046   1.180 -0.6830  0.7664  1.5989
 4364TIP3    H234652   0.884   6.955   1.206  0.2553 -1.2241 -0.7135
 4365TIP3   OH234653   4.368   2.546   0.667  0.3309 -0.3245 -0.4862
 4365TIP3    H134654   4.346   2.636   0.690  4.2305  0.4071  1.1354
 4365TIP3    H234655   4.332   2.494   0.739  2.2745  0.6120  1.2597
 4366TIP3   OH234656   6.533   3.964   6.817 -0.2612 -0.0845  0.0249
 4366TIP3    H134657   6.558   4.055   6.801  0.6899 -0.8724 -4.0018
 4366TIP3    H234658   6.439   3.962   6.805 -0.1583  0.2167 -0.8464
 4367TIP3   OH234659   0.475   1.092   7.883  0.1029  0.2418  0.1372
 4367TIP3    H134660   0.513   1.053   7.804  1.8266 -0.7965  1.3823
 4367TIP3    H234661   0.387   1.056   7.888  0.2364 -0.2691 -0.9148
 4368TIP3   OH234662   0.698   4.171   0.642  0.0993  0.4183  0.4347
 4368TIP3    H134663   0.700   4.080   0.669 -0.3410  0.1902 -0.2828
 4368TIP3    H234664   0.606   4.196   0.648 -0.2755 -0.0979 -2.2932
 4369TIP3   OH234665   3.284   3.965   6.863 -0.0432 -0.1497  0.2785
 4369TIP3    H134666   3.337   3.915   6.925  0.5191 -1.2922 -1.0642
 4369TIP3    H234667   3.271   4.050   6.905  0.1148 -0.9658  2.0380
 4370TIP3   OH234668   4.637   4.847   1.014  0.4659 -0.0086 -0.9091
 4370TIP3    H134669   4.654   4.804   1.098  0.2825 -0.7395 -1.2421
 4370TIP3    H234670   4.719   4.890   0.991  0.3580  0.6618 -0.0925
 4371TIP3   OH234671   0.473   5.013   2.311 -0.0710 -0.0278 -0.3264
 4371TIP3    H134672   0.463   5.105   2.335  1.7644  0.5712 -1.6465
 4371TIP3    H234673   0.504   4.971   2.391 -0.8014  0.5075  0.2555
 4372TIP3   OH234674   0.598   6.575   8.045  0.2747 -0.3868  0.1988
 4372TIP3    H134675   0.513   6.578   8.088  0.1123 -0.3207 -0.1224
 4372TIP3    H234676   0.639   6.659   8.067  0.0008 -0.1587 -0.1632
 4373TIP3   OH234677   4.448   2.484   8.100 -0.3348  0.0013  0.5118
 4373TIP3    H134678   4.386   2.441   8.159  0.1184 -1.5103 -0.0481
 4373TIP3    H234679   4.449   2.429   8.021 -0.6886  1.7867 -0.8073
 4374TIP3   OH234680   4.339   4.023   0.282  0.5491  0.9826  0.0819
 4374TIP3    H134681   4.409   4.021   0.216 -0.1026 -2.8618 -0.7553
 4374TIP3    H234682   4.354   3.944   0.335 -3.7880 -0.8930 -1.0281
 4375TIP3   OH234683   6.920   2.103   0.378  0.6286  0.2382  0.6827
 4375TIP3    H134684   6.950   2.076   0.465  2.3676  2.9297  1.0339
 4375TIP3    H234685   6.869   2.182   0.393 -0.2247 -0.0264 -0.6625
 4376TIP3   OH234686   2.755   1.799   7.329  0.6975 -1.1282 -0.1109
 4376TIP3    H134687   2.754   1.846   7.412  2.5064 -0.0230 -0.6425
 4376TIP3    H234688   2.695   1.726   7.341 -1.0920  0.4519  1.2863
 4377TIP3   OH234689   2.487   0.630   1.164  0.2562  0.5590 -0.3331
 4377TIP3    H134690   2.422   0.660   1.100 -0.1157 -0.2441 -0.3508
 4377TIP3    H234691   2.567   0.677   1.142 -0.4441  1.9546  0.0088
 4378TIP3   OH234692   0.761   3.704   0.851 -0.2261  0.3359 -0.2003
 4378TIP3    H134693   0.670   3.681   0.874  0.3650 -1.6287  0.3908
 4378TIP3    H234694   0.808   3.702   0.935  0.1258  2.9276 -0.2448
 4379TIP3   OH234695   3.229   0.215   0.268 -0.0102  0.2747  0.9638
 4379TIP3    H134696   3.265   0.277   0.332 -0.7787  1.8122 -0.0284
 4379TIP3    H234697   3.261   0.247   0.184 -2.4054  0.8135  0.1795
 4380TIP3   OH234698   6.403   3.868   1.683 -0.1376 -0.1172  0.1794
 4380TIP3    H134699   6.426   3.776   1.690 -2.7636 -1.0319 -1.5284
 4380TIP3    H234700   6.308   3.870   1.697 -0.4721  2.0009 -1.7299
 4381TIP3   OH234701   2.145   6.139   2.119 -0.4916 -0.6070  0.4657
 4381TIP3    H134702   2.090   6.092   2.057  0.0873 -0.4771 -0.1655
 4381TIP3    H234703   2.144   6.086   2.198 -0.9408 -0.9693  0.2201
 4382TIP3   OH234704   5.343   5.045   1.195 -0.3160  0.4387 -0.0256
 4382TIP3    H134705   5.376   5.049   1.105 -0.3332 -1.7927 -0.1938
 4382TIP3    H234706   5.405   5.097   1.246  0.4653  0.6119 -1.1234
 4383TIP3   OH234707   6.203   3.306   6.302  0.1199 -0.4972 -0.0277
 4383TIP3    H134708   6.202   3.356   6.384 -1.6850 -0.9952  0.3027
 4383TIP3    H234709   6.111   3.281   6.288  0.4220 -0.6795 -2.0513
 4384TIP3   OH234710   0.306   1.452   6.935  0.0555  0.1163  0.1269
 4384TIP3    H134711   0.296   1.426   7.027  0.8699  1.4746  0.6342
 4384TIP3    H234712   0.218   1.476   6.908  0.0792  1.5144  1.1624
 4385TIP3   OH234713   1.413   5.954   7.940 -0.2472 -0.7966  0.0232
 4385TIP3    H134714   1.417   5.933   7.847 -1.1155  0.0571 -0.2250
 4385TIP3    H234715   1.428   5.871   7.985 -0.4850 -1.3315 -0.8753
 4386TIP3   OH234716   6.287   0.253   7.219  0.3438  0.1608  0.0606
 4386TIP3    H134717   6.324   0.180   7.269  0.0682  0.5718  0.8868
 4386TIP3    H234718   6.205   0.273   7.264  0.5359  1.1318 -0.0040
 4387TIP3   OH234719   4.467   4.726   0.781  0.0645 -0.0073  0.9330
 4387TIP3    H134720   4.474   4.815   0.744 -1.3202  0.0252  0.7217
 4387TIP3    H234721   4.546   4.717   0.835  0.6459  1.0420  0.3020
 4388TIP3   OH234722   3.818   2.849   1.326 -0.6057  0.5331  0.0041
 4388TIP3    H134723   3.848   2.824   1.413  2.0709  1.4767 -0.5609
 4388TIP3    H234724   3.874   2.800   1.266 -0.6205  1.8779 -1.1600
 4389TIP3   OH234725   1.078   6.987   7.450  0.0411 -0.4031 -0.7891
 4389TIP3    H134726   1.001   7.025   7.408 -1.3070 -0.9433  1.0964
 4389TIP3    H234727   1.057   6.985   7.543  2.7903  0.4646 -0.0438
 4390TIP3   OH234728   3.957   5.791   1.084  0.4728  0.0103 -0.0690
 4390TIP3    H134729   3.925   5.763   1.169 -0.0924 -2.1850 -0.9438
 4390TIP3    H234730   3.879   5.819   1.036  0.4802 -0.8437 -0.5949
 4391TIP3   OH234731   6.560   4.998   7.898 -0.2834 -0.0404 -0.4769
 4391TIP3    H134732   6.655   5.006   7.884 -0.6114  1.7551 -2.1583
 4391TIP3    H234733   6.523   4.995   7.810 -1.8108 -0.9043  0.1481
 4392TIP3   OH234734   0.898   1.013   0.698 -0.0439  0.4450  0.2161
 4392TIP3    H134735   0.895   1.001   0.793  0.5003 -1.0092  0.0827
 4392TIP3    H234736   0.980   1.060   0.682  2.9181 -4.0847  0.1677
 4393TIP3   OH234737   1.590   4.434   7.071 -0.0530  0.3554  0.1339
 4393TIP3    H134738   1.606   4.353   7.118 -1.5667  0.4448  0.8724
 4393TIP3    H234739   1.614   4.415   6.980 -0.2641 -0.8730  0.3250
 4394TIP3   OH234740   2.240   4.502   6.196  0.5457  0.4401  0.2685
 4394TIP3    H134741   2.145   4.515   6.197  0.2101 -1.3996  2.5329
 4394TIP3    H234742   2.270   4.549   6.119 -2.5479 -1.3339 -2.2491
 4395TIP3   OH234743   6.857   6.504   6.446  0.3226  1.3333 -0.4075
 4395TIP3    H134744   6.798   6.545   6.508  0.8576  2.1778 -0.4387
 4395TIP3    H234745   6.887   6.576   6.390  1.1272  0.8717 -0.5905
 4396TIP3   OH234746   2.722   3.419   0.503  0.2960  0.3524 -0.2447
 4396TIP3    H134747   2.721   3.403   0.408 -0.5926 -1.6753  0.0451
 4396TIP3    H234748   2.630   3.435   0.525  0.5470  1.1735  0.2457
 4397TIP3   OH234749   4.300   6.315   1.214  0.1641  0.4078  0.1679
 4397TIP3    H134750   4.319   6.405   1.240 -0.3886  0.6413 -0.2134
 4397TIP3    H234751   4.385   6.279   1.188  0.1325  1.4377 -1.5199
 4398TIP3   OH234752   0.288   2.059   0.008  0.8548 -0.3460 -0.0340
 4398TIP3    H134753   0.218   2.036   0.068 -0.2075 -1.1872 -1.5327
 4398TIP3    H234754   0.244   2.076  -0.075  2.1874  1.5195 -0.4459
 4399TIP3   OH234755   1.415   4.667   7.437  0.4712 -0.1084  0.0074
 4399TIP3    H134756   1.430   4.650   7.344 -1.2292  0.3950 -0.3929
 4399TIP3    H234757   1.399   4.581   7.475 -2.0368 -0.0990 -0.8352
 4400TIP3   OH234758   1.942   4.099   6.850  0.2464  0.5839  0.6488
 4400TIP3    H134759   1.992   4.176   6.824 -0.8131  1.0934  0.0469
 4400TIP3    H234760   1.859   4.135   6.881 -0.6226 -0.3628 -0.5174
 4401TIP3   OH234761   4.582   2.262   7.552 -0.1192  0.1563 -0.0277
 4401TIP3    H134762   4.537   2.296   7.475  0.2223  0.2565 -0.1810
 4401TIP3    H234763   4.617   2.178   7.524 -0.3493  0.0041  0.1406
 4402TIP3   OH234764   0.158   3.612   0.501 -0.4173 -0.5950  0.8341
 4402TIP3    H134765   0.132   3.527   0.537 -1.8123 -0.2658  0.6915
 4402TIP3    H234766   0.114   3.616   0.416  2.0924 -0.9806 -0.5872
 4403TIP3   OH234767   5.479   2.089   7.648  0.5058 -0.1841 -0.0861
 4403TIP3    H134768   5.572   2.099   7.668  0.7269  1.1363 -1.5808
 4403TIP3    H234769   5.478   2.046   7.563 -0.2468  0.4453 -0.3945
 4404TIP3   OH234770   5.278   4.569   7.658  0.5631 -0.3851  0.4521
 4404TIP3    H134771   5.242   4.506   7.595  1.5744 -1.3993  0.8679
 4404TIP3    H234772   5.352   4.608   7.612 -0.1509  0.6607  0.1364
 4405TIP3   OH234773   6.497   0.635   7.911  0.3341  0.4466 -0.1185
 4405TIP3    H134774   6.464   0.555   7.951  1.4235  0.2636  0.4390
 4405TIP3    H234775   6.434   0.703   7.938 -0.1572 -0.0748  0.0600
 4406TIP3   OH234776   2.182   0.437   1.289 -0.4127  0.5289 -0.3006
 4406TIP3    H134777   2.265   0.466   1.326 -1.5924 -0.1699  3.3661
 4406TIP3    H234778   2.201   0.349   1.254  0.3862  0.2778  0.7090
 4407TIP3   OH234779   5.678   2.232   0.675 -0.8052  0.2385  0.3660
 4407TIP3    H134780   5.614   2.303   0.681 -2.5452 -1.2743  0.8955
 4407TIP3    H234781   5.653   2.185   0.595  1.1328  0.8934 -0.6949
 4408TIP3   OH234782   5.567   3.395   1.178 -0.8257  0.2915  0.1070
 4408TIP3    H134783   5.628   3.347   1.123  0.3867  1.0811  0.7028
 4408TIP3    H234784   5.481   3.373   1.145 -0.1683 -0.1026 -1.3935
 4409TIP3   OH234785   4.512   6.348   6.956 -0.2430 -0.5808 -0.2229
 4409TIP3    H134786   4.586   6.342   7.017  0.2148  2.2677 -0.3662
 4409TIP3    H234787   4.511   6.263   6.912 -0.4044 -2.7082  3.4227
 4410TIP3   OH234788   3.459   4.902   6.853 -0.4154  0.1664 -0.6950
 4410TIP3    H134789   3.507   4.870   6.930 -0.5932 -0.8445 -0.9877
 4410TIP3    H234790   3.503   4.860   6.779  0.5197  2.0698 -1.2613
 4411TIP3   OH234791   3.856   6.030   1.324 -0.5429  0.1187 -0.0817
 4411TIP3    H134792   3.916   6.065   1.390  0.1719 -2.6020  0.8514
 4411TIP3    H234793   3.904   6.036   1.242  0.3078 -0.4167  0.3699
 4412TIP3   OH234794   1.568   6.650   1.339 -0.2493  0.0993  0.0065
 4412TIP3    H134795   1.617   6.592   1.282 -0.7541 -0.5996  0.2642
 4412TIP3    H234796   1.485   6.665   1.293 -1.2050 -1.5096  1.0759
 4413TIP3   OH234797   3.300   1.219   1.000 -0.3723 -0.6249 -0.1668
 4413TIP3    H134798   3.282   1.244   1.091 -1.7476  0.7707 -0.7885
 4413TIP3    H234799   3.349   1.293   0.964  0.3580 -1.2679 -0.5194
 4414TIP3   OH234800   6.039   2.804   6.872 -0.1910  0.0730  0.3732
 4414TIP3    H134801   6.062   2.843   6.788  0.6863  1.1697  1.0842
 4414TIP3    H234802   6.033   2.878   6.932 -0.8703 -0.6776  1.2631
 4415TIP3   OH234803   0.663   1.377   0.289 -0.8356 -0.2448  0.4656
 4415TIP3    H134804   0.569   1.368   0.274 -1.1391 -0.6400  2.2908
 4415TIP3    H234805   0.697   1.288   0.278 -0.5244  0.0236 -0.9219
 4416TIP3   OH234806   1.173   1.767   1.786 -0.3392 -0.2268 -0.0541
 4416TIP3    H134807   1.226   1.689   1.769 -0.8998 -0.4805 -0.7112
 4416TIP3    H234808   1.170   1.773   1.881 -0.3665 -1.0742  0.0124
 4417TIP3   OH234809   3.247   1.949   5.924  0.5814  0.3043  0.0613
 4417TIP3    H134810   3.289   1.868   5.952 -0.0721  0.8331  2.8818
 4417TIP3    H234811   3.296   1.976   5.847  1.1149 -2.4943 -0.6986
 4418TIP3   OH234812   3.548   0.093   8.309  0.1419  0.3007  0.2838
 4418TIP3    H134813   3.557   0.186   8.290 -1.2975  0.4577  0.2453
 4418TIP3    H234814   3.536   0.089   8.404 -1.3653  0.3160  0.1105
 4419TIP3   OH234815   3.250   6.173   0.233  0.1000  0.0267 -0.2776
 4419TIP3    H134816   3.290   6.254   0.263  1.2361 -0.8921  0.7895
 4419TIP3    H234817   3.315   6.135   0.173 -0.5056 -0.0094 -0.9216
 4420TIP3   OH234818   4.188   1.102   7.428  0.0347 -0.3284  0.1181
 4420TIP3    H134819   4.235   1.174   7.386  2.1357 -1.3892  0.5211
 4420TIP3    H234820   4.128   1.145   7.489 -0.1145  1.1027 -0.9837
 4421TIP3   OH234821   2.144   1.845   0.413 -0.0710 -0.5669  0.9157
 4421TIP3    H134822   2.125   1.755   0.439 -3.1918 -0.6932 -1.2903
 4421TIP3    H234823   2.096   1.899   0.475 -1.3742 -0.6149 -0.0139
 4422TIP3   OH234824   0.388   4.562   1.132 -0.2655 -0.5842 -0.2364
 4422TIP3    H134825   0.443   4.629   1.092  0.7385 -1.1687  0.1382
 4422TIP3    H234826   0.344   4.608   1.204 -1.7055  0.3427 -1.6360
 4423TIP3   OH234827   3.132   4.336   6.372  0.0136 -0.0807 -0.3097
 4423TIP3    H134828   3.199   4.403   6.384 -1.9476  2.0225 -0.1984
 4423TIP3    H234829   3.050   4.385   6.371 -1.7786 -2.6733  2.0349
 4424TIP3   OH234830   6.371   4.994   7.677 -0.5196  0.2851 -0.1999
 4424TIP3    H134831   6.398   4.935   7.606 -1.6947  0.0724 -0.4881
 4424TIP3    H234832   6.288   4.957   7.708  0.7411 -0.5872  2.4135
 4425TIP3   OH234833   5.333   0.991   6.500 -0.6917  0.3701 -0.0097
 4425TIP3    H134834   5.383   1.049   6.442 -1.7208  0.1019 -1.2020
 4425TIP3    H234835   5.260   1.045   6.531  0.1724  0.6973  1.5625
 4426TIP3   OH234836   3.802   6.283   0.776 -0.3005  0.3407 -0.3547
 4426TIP3    H134837   3.737   6.351   0.793 -1.2923 -0.4331 -0.9185
 4426TIP3    H234838   3.849   6.313   0.698 -0.2792  0.7082 -0.1973
 4427TIP3   OH234839   5.697   6.783   1.851 -0.1917  0.1119  0.2225
 4427TIP3    H134840   5.642   6.750   1.922  0.7587 -1.3845  0.3002
 4427TIP3    H234841   5.707   6.709   1.791  1.7132  0.3150  0.2161
 4428TIP3   OH234842   0.828   4.444   0.743 -0.2694  0.2806 -0.2218
 4428TIP3    H134843   0.872   4.527   0.763  1.1794 -0.2886 -0.9137
 4428TIP3    H234844   0.738   4.458   0.770  0.1006  1.8512  0.3124
 4429TIP3   OH234845   0.757   4.093   8.188 -0.1892 -0.2017  0.4938
 4429TIP3    H134846   0.692   4.097   8.258 -0.2192  0.9031  0.4215
 4429TIP3    H234847   0.797   4.180   8.187  1.1896 -0.8004  0.4371
 4430TIP3   OH234848   0.660   4.401   1.618  0.2405 -0.5035  0.0555
 4430TIP3    H134849   0.679   4.366   1.705 -0.8289 -0.0439  0.5005
 4430TIP3    H234850   0.634   4.324   1.567 -0.6513 -0.5848  0.6045
 4431TIP3   OH234851   0.294   5.094   8.029 -0.1003  0.6227 -0.9114
 4431TIP3    H134852   0.275   5.174   8.078 -3.6329  0.2733 -1.4763
 4431TIP3    H234853   0.288   5.024   8.093  2.7926  0.6507 -0.4606
 4432TIP3   OH234854   3.154   1.982   0.710 -0.0393  0.2064  0.3626
 4432TIP3    H134855   3.196   2.057   0.752  1.1256  0.2805 -0.8292
 4432TIP3    H234856   3.115   2.019   0.630 -1.6207 -0.0392  0.9921
 4433TIP3   OH234857   4.189   2.450   2.219 -0.3753  0.0389 -0.3400
 4433TIP3    H134858   4.131   2.435   2.293  0.3125 -0.5045  0.1005
 4433TIP3    H234859   4.201   2.363   2.180 -0.9981  0.3678 -1.3038
 4434TIP3   OH234860   6.001   0.460   1.924  0.7144 -0.3499 -1.2425
 4434TIP3    H134861   5.994   0.555   1.926  0.9616 -0.3364 -0.1415
 4434TIP3    H234862   6.052   0.441   1.845  0.8554  0.4431 -1.3478
 4435TIP3   OH234863   2.089   6.120   1.012  0.2684 -0.0757  0.0699
 4435TIP3    H134864   2.154   6.184   0.984 -1.7873  1.6526 -1.0112
 4435TIP3    H234865   2.055   6.082   0.931 -0.5367 -0.4648  0.5777
 4436TIP3   OH234866   6.505   6.707   0.596  0.0332 -0.1328  0.4171
 4436TIP3    H134867   6.414   6.733   0.583  0.3330  0.0641 -1.6533
 4436TIP3    H234868   6.540   6.772   0.657 -1.2874 -0.4309  1.5291
 4437TIP3   OH234869   6.245   3.655   7.578 -0.3225 -0.0010 -0.3372
 4437TIP3    H134870   6.308   3.583   7.575 -1.5111 -1.0518 -1.0291
 4437TIP3    H234871   6.236   3.683   7.487 -0.9843  0.0026 -0.2761
 4438TIP3   OH234872   6.659   1.471   7.503 -0.1850  0.0696  0.2017
 4438TIP3    H134873   6.673   1.423   7.585 -0.4326  0.0850  0.2547
 4438TIP3    H234874   6.572   1.442   7.474 -0.3967  0.5929  0.3054
 4439TIP3   OH234875   0.657   1.896   7.393  0.1616 -0.2597  0.3709
 4439TIP3    H134876   0.576   1.912   7.343  1.4987  0.2717 -1.7452
 4439TIP3    H234877   0.626   1.864   7.478 -2.2543 -0.7812 -0.6097
 4440TIP3   OH234878   6.029   6.352   0.033  0.2460 -0.4695  0.3093
 4440TIP3    H134879   5.999   6.394  -0.048 -1.3401 -2.3233 -0.1299
 4440TIP3    H234880   6.075   6.421   0.080 -0.0156  1.0352 -1.5334
 4441TIP3   OH234881   2.411   4.671   6.367  0.3658 -0.5851 -0.1662
 4441TIP3    H134882   2.386   4.724   6.291 -1.5463 -0.6773  0.3442
 4441TIP3    H234883   2.396   4.581   6.340  2.2200 -0.8054 -0.5402
 4442TIP3   OH234884   2.653   2.080   0.887 -1.1491 -0.3772  0.1116
 4442TIP3    H134885   2.640   1.997   0.842  1.1009 -0.0215 -1.3550
 4442TIP3    H234886   2.606   2.144   0.834 -0.3814 -0.3044 -0.5085
 4443TIP3   OH234887   0.186   1.301   6.025  0.5844 -0.0404  0.3548
 4443TIP3    H134888   0.153   1.273   5.940  0.7984  1.0260 -0.0999
 4443TIP3    H234889   0.115   1.353   6.063  1.0990  0.8830  0.0868
 4444TIP3   OH234890   0.322   4.103   6.403  0.2431  0.2035 -0.2033
 4444TIP3    H134891   0.388   4.048   6.445 -0.5166  0.2852  1.1409
 4444TIP3    H234892   0.238   4.069   6.434 -0.5466 -1.2019 -3.4294
 4445TIP3   OH234893   0.765   0.354   6.184  0.4527  0.4538  0.1771
 4445TIP3    H134894   0.705   0.308   6.125  1.0768  0.2231 -0.2933
 4445TIP3    H234895   0.795   0.429   6.133  1.0458  0.2178  0.1710
 4446TIP3   OH234896   6.398   0.856   7.126 -0.7158  0.2394 -0.0029
 4446TIP3    H134897   6.384   0.927   7.063  0.1368 -0.3742 -0.9200
 4446TIP3    H234898   6.485   0.872   7.162 -1.0812  0.4189  0.8245
 4447TIP3   OH234899   3.544   1.057   0.259 -0.7087 -0.5417  0.3037
 4447TIP3    H134900   3.637   1.062   0.236 -0.9699  1.8701 -0.5303
 4447TIP3    H234901   3.525   0.964   0.261  1.6325 -1.0897  0.1063
 4448TIP3   OH234902   6.103   6.612   6.869 -0.1050  0.4050  0.1025
 4448TIP3    H134903   6.156   6.673   6.817 -0.8682  1.0629  0.0679
 4448TIP3    H234904   6.022   6.661   6.888 -0.8711 -0.7079 -0.1852
 4449TIP3   OH234905   0.276   1.463   7.616 -0.3894 -0.2093 -0.1234
 4449TIP3    H134906   0.266   1.550   7.653  0.6781  0.2312 -0.8082
 4449TIP3    H234907   0.189   1.440   7.584 -1.0691 -0.1321  1.5674
 4450TIP3   OH234908   1.455   1.642   8.167  0.2071  0.3807 -0.0590
 4450TIP3    H134909   1.499   1.621   8.084 -1.9658 -0.4861 -1.0690
 4450TIP3    H234910   1.474   1.567   8.223  0.0316  0.0318 -0.4652
 4451TIP3   OH234911   6.754   4.404   1.596 -0.3505 -0.2326 -0.6616
 4451TIP3    H134912   6.761   4.437   1.507  0.0999 -0.0851 -0.5752
 4451TIP3    H234913   6.844   4.383   1.621 -0.5690 -1.0215 -0.5231
 4452TIP3   OH234914   0.983   4.358   0.296  0.8884 -0.9070  0.0768
 4452TIP3    H134915   0.904   4.308   0.274  0.7595 -0.3235 -0.8240
 4452TIP3    H234916   0.989   4.351   0.392 -0.5631 -0.4994  0.2265
 4453TIP3   OH234917   1.280   6.441   1.106  0.2497  0.4789 -0.3981
 4453TIP3    H134918   1.315   6.529   1.089 -1.0703  1.3624  1.1703
 4453TIP3    H234919   1.311   6.420   1.195 -1.2375  0.3173  0.1111
 4454TIP3   OH234920   1.309   3.283   1.017 -0.1832  0.2913 -0.2467
 4454TIP3    H134921   1.328   3.334   0.938  1.0069  0.1471 -0.0733
 4454TIP3    H234922   1.366   3.322   1.084  0.9027 -1.3642 -0.1627
 4455TIP3   OH234923   3.727   4.508   0.148 -0.1104 -0.1762 -0.4161
 4455TIP3    H134924   3.750   4.504   0.241  1.4070  4.2257 -0.3832
 4455TIP3    H234925   3.636   4.537   0.147  0.3119  1.2357 -0.2040
 4456TIP3   OH234926   2.094   0.385   7.594 -0.4503 -0.0410  0.2527
 4456TIP3    H134927   2.127   0.305   7.635  0.1301  0.4724  0.8125
 4456TIP3    H234928   2.172   0.437   7.575 -0.7999  0.2780 -0.3710
 4457TIP3   OH234929   4.205   3.536   7.638  0.2164 -0.6597  0.7524
 4457TIP3    H134930   4.164   3.551   7.723  0.8379  0.8937  0.8157
 4457TIP3    H234931   4.276   3.475   7.655 -0.7534 -1.7694  0.9970
 4458TIP3   OH234932   4.820   4.401   7.760  0.3928  0.2236 -0.1884
 4458TIP3    H134933   4.850   4.428   7.673  1.9516 -0.4283  0.1151
 4458TIP3    H234934   4.817   4.306   7.756 -2.9160  0.2301 -0.5579
 4459TIP3   OH234935   0.614   0.516   0.285 -0.0545 -0.1256 -0.0149
 4459TIP3    H134936   0.521   0.539   0.281 -0.7150 -2.5857 -1.5275
 4459TIP3    H234937   0.628   0.462   0.207  3.2407  1.9900 -1.0815
 4460TIP3   OH234938   6.516   1.717   8.008  0.2344 -0.0704  0.5532
 4460TIP3    H134939   6.568   1.657   8.062 -1.5871 -2.1998  0.0658
 4460TIP3    H234940   6.538   1.694   7.918  1.8123  2.1708  0.2807
 4461TIP3   OH234941   5.331   0.880   7.210 -0.4425  0.2693 -0.0870
 4461TIP3    H134942   5.385   0.959   7.207  1.6400 -1.0806  0.5744
 4461TIP3    H234943   5.365   0.825   7.140  0.2418 -1.3100  1.4231
 4462TIP3   OH234944   1.658   1.703   7.367  0.0376  0.3631  0.5315
 4462TIP3    H134945   1.625   1.640   7.302 -0.6190  0.6367  0.5966
 4462TIP3    H234946   1.752   1.686   7.370 -0.1539 -0.7366  0.6704
 4463TIP3   OH234947   2.931   3.143   7.120  0.2008  0.2194 -0.1210
 4463TIP3    H134948   2.871   3.218   7.118  1.1855  1.1449  2.1216
 4463TIP3    H234949   2.916   3.103   7.206  1.9899 -0.1935  0.0270
 4464TIP3   OH234950   2.227   6.367   2.027  0.1007  0.2710  0.1804
 4464TIP3    H134951   2.197   6.355   1.937  0.6346  1.2627 -0.1448
 4464TIP3    H234952   2.193   6.291   2.074 -0.5807 -0.0214 -0.7543
 4465TIP3   OH234953   4.484   1.080   1.450 -0.1672  0.3821 -0.5769
 4465TIP3    H134954   4.573   1.057   1.477 -0.7993  0.5806  1.9870
 4465TIP3    H234955   4.438   1.098   1.532 -2.6162  0.2000 -1.8084
 4466TIP3   OH234956   0.420   5.595   8.135  0.4263 -0.1134 -0.6046
 4466TIP3    H134957   0.438   5.620   8.225  0.0892  1.1117 -0.8632
 4466TIP3    H234958   0.362   5.664   8.101  1.4281  0.0496 -2.0935
 4467TIP3   OH234959   5.061   6.482   6.944  0.1017 -0.0533  0.3625
 4467TIP3    H134960   5.034   6.556   6.890  0.5624  0.2998  0.6134
 4467TIP3    H234961   5.068   6.517   7.033  2.1769  0.1050  0.1936
 4468TIP3   OH234962   1.989   6.062   0.768  0.1795  0.4892  0.3365
 4468TIP3    H134963   2.074   6.063   0.723  0.0628  1.8349  0.1020
 4468TIP3    H234964   1.971   5.970   0.784  0.0492 -0.1065 -2.7174
 4469TIP3   OH234965   0.823   2.201   7.132  0.1861  0.1639  0.4941
 4469TIP3    H134966   0.822   2.201   7.037 -1.3099  1.0591  0.4833
 4469TIP3    H234967   0.752   2.141   7.157  0.5451 -0.0422  1.0500
 4470TIP3   OH234968   1.550   4.760   8.092  0.4141  0.0517 -0.2336
 4470TIP3    H134969   1.578   4.670   8.110  0.2868 -0.1374 -0.9650
 4470TIP3    H234970   1.522   4.758   8.001 -3.3272 -0.1247  0.7651
 4471TIP3   OH234971   0.449   4.201   1.248 -0.0115 -0.1043 -0.7380
 4471TIP3    H134972   0.429   4.193   1.154  2.8002 -0.5700 -1.3820
 4471TIP3    H234973   0.371   4.243   1.285 -2.2847 -2.1681 -2.8059
 4472TIP3   OH234974   2.280   1.906   6.858 -0.0106 -0.2459 -0.0181
 4472TIP3    H134975   2.224   1.910   6.780 -1.3613 -0.6394  0.8968
 4472TIP3    H234976   2.349   1.970   6.841  0.1078 -0.7934 -1.8229
 4473TIP3   OH234977   1.392   0.363   6.909  1.1030  0.3691 -0.5115
 4473TIP3    H134978   1.397   0.267   6.912  0.8715  0.3033 -1.5643
 4473TIP3    H234979   1.475   0.393   6.946  1.2974 -0.2484 -0.4336
 4474TIP3   OH234980   5.559   2.398   6.958 -0.0578  0.1492  0.1789
 4474TIP3    H134981   5.518   2.461   7.018  0.4828  1.0727 -0.3878
 4474TIP3    H234982   5.567   2.318   7.009  0.9248  1.0809  1.5440
 4475TIP3   OH234983   5.983   1.754   8.312  0.4107  0.0125 -0.2749
 4475TIP3    H134984   5.897   1.773   8.276  0.4283  0.2478 -0.1908
 4475TIP3    H234985   6.041   1.820   8.273  0.1114  1.4478  1.5802
 4476TIP3   OH234986   4.224   0.805   1.018  0.1577  0.1209 -0.1889
 4476TIP3    H134987   4.315   0.827   1.036  0.3195  0.0879 -0.9290
 4476TIP3    H234988   4.225   0.772   0.928 -0.6169  0.3276 -0.2789
 4477TIP3   OH234989   1.307   2.298   1.475 -0.4876 -0.2926 -0.9199
 4477TIP3    H134990   1.251   2.332   1.405 -0.7883 -0.4186 -0.7414
 4477TIP3    H234991   1.275   2.341   1.555 -0.3521 -0.3886 -0.8119
 4478TIP3   OH234992   0.120   1.051   0.079  0.4835 -0.3288 -0.2576
 4478TIP3    H134993   0.066   0.972   0.088  1.0052 -0.7050 -0.3470
 4478TIP3    H234994   0.067   1.120   0.118  0.2130 -0.8127  0.2576
 4479TIP3   OH234995   4.467   5.502   8.037  0.1248  0.3401 -0.1408
 4479TIP3    H134996   4.481   5.408   8.040 -0.2683  0.2706 -0.4003
 4479TIP3    H234997   4.496   5.534   8.123 -0.1468 -0.0733  0.1104
 4480TIP3   OH234998   0.490   2.408   0.562  0.3876  0.1538 -0.1736
 4480TIP3    H134999   0.486   2.374   0.652 -0.2856  0.1584 -0.1930
 4480TIP3    H235000   0.398   2.414   0.535  0.5951 -0.0847 -0.9567
 4481TIP3   OH235001   6.870   5.121   5.689  0.8061 -0.6232 -0.3480
 4481TIP3    H135002   6.814   5.066   5.634 -0.8405  1.3284 -0.7551
 4481TIP3    H235003   6.957   5.081   5.682 -0.2938 -3.2159 -0.4847
 4482TIP3   OH235004   6.469   1.523   7.214 -0.2702  0.5217 -0.1493
 4482TIP3    H135005   6.452   1.454   7.278  0.7462  0.1708 -0.2434
 4482TIP3    H235006   6.560   1.509   7.187 -0.8743  0.2477 -2.1832
 4483TIP3   OH235007   6.696   1.727   0.560  0.0625  0.0463 -0.2379
 4483TIP3    H135008   6.603   1.703   0.570  0.1770  0.0545  1.0719
 4483TIP3    H235009   6.734   1.653   0.513 -0.9704  0.9244 -2.5835
 4484TIP3   OH235010   0.387   6.586   7.146  0.4133 -0.0766 -0.1529
 4484TIP3    H135011   0.397   6.502   7.101 -1.7281 -0.1312 -0.6072
 4484TIP3    H235012   0.376   6.563   7.238  2.3915 -0.0924  0.1369
 4485TIP3   OH235013   2.205   0.149   6.753  0.4618  0.0347  0.3670
 4485TIP3    H135014   2.163   0.070   6.788  0.2335 -1.1275 -2.3045
 4485TIP3    H235015   2.274   0.116   6.696 -0.2418  1.7008 -1.5662
 4486TIP3   OH235016   4.877   4.939   0.375 -0.2129 -0.3994 -0.6905
 4486TIP3    H135017   4.857   5.032   0.364  0.1661 -0.1984  0.2366
 4486TIP3    H235018   4.796   4.894   0.351 -1.4868  0.3403  1.8506
 4487TIP3   OH235019   6.421   5.855   7.826  0.1553  0.0563 -0.4452
 4487TIP3    H135020   6.468   5.932   7.858  0.3153  0.2414 -1.1238
 4487TIP3    H235021   6.428   5.792   7.898 -0.4098  0.8430  0.3207
 4488TIP3   OH235022   3.673   4.033   0.732 -0.3319 -0.0874  0.0716
 4488TIP3    H135023   3.741   3.968   0.750  1.1310  0.8786 -1.6359
 4488TIP3    H235024   3.706   4.113   0.773 -1.8050 -0.2059  1.5934
 4489TIP3   OH235025   4.854   6.899   0.724  0.3678  0.5053  0.2788
 4489TIP3    H135026   4.838   6.945   0.642  0.2697  0.9533  0.5485
 4489TIP3    H235027   4.931   6.845   0.706  0.7796  1.1377  0.0995
 4490TIP3   OH235028   0.598   5.560   0.622 -0.2485 -0.0185 -0.1421
 4490TIP3    H135029   0.505   5.568   0.599 -0.1906  0.1869 -0.3045
 4490TIP3    H235030   0.620   5.470   0.601 -0.9567 -0.7084  1.8534
 4491TIP3   OH235031   6.605   4.441   7.374  0.1779  0.1659  0.2870
 4491TIP3    H135032   6.536   4.492   7.333  1.6592  1.0343 -1.2381
 4491TIP3    H235033   6.617   4.365   7.316  0.7274  0.2059  0.3385
 4492TIP3   OH235034   0.570   4.756   6.558 -0.2498  0.4133  0.4297
 4492TIP3    H135035   0.627   4.679   6.563 -2.6540 -1.5187 -0.1942
 4492TIP3    H235036   0.623   4.827   6.596  1.8235 -1.6606  1.6819
 4493TIP3   OH235037   2.457   1.025   0.104  0.2408  0.0118 -0.1511
 4493TIP3    H135038   2.403   0.953   0.136 -0.3832 -0.1009 -1.4051
 4493TIP3    H235039   2.430   1.100   0.157  0.0149 -0.3989  0.3256
 4494TIP3   OH235040   1.028   4.911   7.556 -0.6547  0.0511 -0.3883
 4494TIP3    H135041   1.107   4.918   7.503 -0.9457 -1.2066 -1.0356
 4494TIP3    H235042   0.957   4.900   7.492 -0.9800 -1.7692  0.2062
 4495TIP3   OH235043   0.130   2.275   0.711 -0.2972 -0.0122 -0.2173
 4495TIP3    H135044   0.087   2.193   0.734  1.6586 -1.1488 -0.3635
 4495TIP3    H235045   0.187   2.295   0.786 -0.0890  0.7299 -0.5606
 4496TIP3   OH235046   6.524   2.362   0.172  0.1704 -0.0800 -0.2386
 4496TIP3    H135047   6.486   2.448   0.189  0.9018  0.6219 -1.9007
 4496TIP3    H235048   6.592   2.379   0.107 -0.3299 -2.0308 -1.3471
 4497TIP3   OH235049   1.598   4.746   1.348  0.1418 -0.3188  0.1200
 4497TIP3    H135050   1.634   4.834   1.360  0.0731 -0.1257 -0.9824
 4497TIP3    H235051   1.505   4.760   1.330  0.1226 -0.6276 -0.0232
 4498TIP3   OH235052   6.470   0.788   6.836  0.1488 -0.1860  0.4456
 4498TIP3    H135053   6.400   0.723   6.836  0.3616 -0.4543 -0.9139
 4498TIP3    H235054   6.537   0.752   6.894 -0.4754 -0.3250  1.0904
 4499TIP3   OH235055   5.771   2.111   8.143 -0.3687  0.0238 -0.0053
 4499TIP3    H135056   5.691   2.163   8.149 -1.1833 -0.9277 -1.7260
 4499TIP3    H235057   5.842   2.175   8.139 -1.1654  0.9298  0.0141
 4500TIP3   OH235058   2.045   1.921   7.869 -0.6638 -0.3487 -0.7112
 4500TIP3    H135059   2.075   1.977   7.797 -2.1884 -1.6640 -2.4486
 4500TIP3    H235060   2.016   1.983   7.936 -0.5134  0.9395 -1.7867
 4501TIP3   OH235061   1.018   0.398   7.858 -0.0431  0.1672  0.6855
 4501TIP3    H135062   1.092   0.345   7.889  1.1054  1.8036  0.8460
 4501TIP3    H235063   0.945   0.335   7.851  0.9511 -1.2030  1.9483
 4502TIP3   OH235064   6.447   4.542   7.158  0.2036  0.0201  0.4345
 4502TIP3    H135065   6.392   4.579   7.090 -0.4520 -0.2149  0.8271
 4502TIP3    H235066   6.495   4.472   7.114  0.9179  0.8410 -0.1358
 4503TIP3   OH235067   3.074   2.439   6.798 -0.5327 -0.0596 -0.1090
 4503TIP3    H135068   3.121   2.465   6.719 -1.5739  2.8104  0.1080
 4503TIP3    H235069   3.129   2.471   6.870 -0.4729 -1.0512  0.2989
 4504TIP3   OH235070   0.741   1.633   1.400 -0.2400  0.5588 -0.2093
 4504TIP3    H135071   0.770   1.551   1.360  0.2048  0.4999  0.2215
 4504TIP3    H235072   0.667   1.662   1.346 -2.4513 -1.7164  1.4185
 4505TIP3   OH235073   0.543   1.588   1.218 -0.2989  0.0437 -0.4519
 4505TIP3    H135074   0.455   1.556   1.201 -0.6143  0.4605  0.3556
 4505TIP3    H235075   0.600   1.527   1.172 -0.9083 -1.3439  0.5754
 4506TIP3   OH235076   0.957   0.384   7.482  0.3897  0.1821 -0.3056
 4506TIP3    H135077   0.913   0.424   7.556  1.5867 -2.2169  1.8660
 4506TIP3    H235078   0.933   0.439   7.407 -1.4729  2.2980  1.6839
 4507TIP3   OH235079   1.396   5.831   1.884  0.0556  0.4061 -0.3703
 4507TIP3    H135080   1.311   5.834   1.840 -0.6406 -0.4070  0.8318
 4507TIP3    H235081   1.374   5.827   1.977  1.4330  0.7012 -0.0129
 4508TIP3   OH235082   2.716   3.767   7.400  0.0785  0.4115 -0.0647
 4508TIP3    H135083   2.760   3.770   7.315 -0.4526  0.9592 -0.3291
 4508TIP3    H235084   2.623   3.780   7.379 -0.4205 -2.0683  0.3549
 4509TIP3   OH235085   3.760   2.096   1.526  0.4913  0.1646  0.2508
 4509TIP3    H135086   3.793   2.136   1.607 -2.3545 -0.8379  2.0824
 4509TIP3    H235087   3.698   2.160   1.491  1.1510  0.2743 -0.7415
 4510TIP3   OH235088   0.664   1.961   0.218 -0.2245  0.5000  0.4495
 4510TIP3    H135089   0.634   2.034   0.272 -0.1328  0.3996  0.6390
 4510TIP3    H235090   0.740   1.995   0.171 -0.3176  0.5943  0.3661
 4511TIP3   OH235091   0.012   3.675   6.823 -0.0351  0.4191 -0.9213
 4511TIP3    H135092  -0.024   3.682   6.735  0.0488 -0.1977 -1.0069
 4511TIP3    H235093   0.084   3.738   6.825  0.0823  0.3001 -1.3578
 4512TIP3   OH235094   1.293   0.490   1.110 -0.0895 -0.4047 -0.0775
 4512TIP3    H135095   1.224   0.432   1.141 -0.1035  0.2123  1.1032
 4512TIP3    H235096   1.279   0.496   1.015 -1.5592 -0.4140  0.1155
 4513TIP3   OH235097   4.863   0.334   1.881  0.3543  0.0380  0.0582
 4513TIP3    H135098   4.845   0.418   1.924 -0.0429  0.2989 -0.6064
 4513TIP3    H235099   4.806   0.271   1.926 -0.8459  0.5017 -0.7678
 4514TIP3   OH235100   6.038   1.456   0.574 -0.1718  0.0066  0.2463
 4514TIP3    H135101   6.094   1.445   0.497 -0.2611  0.5748  0.0952
 4514TIP3    H235102   6.062   1.542   0.608  0.0660 -0.3541  1.0151
 4515TIP3   OH235103   4.339   3.457   2.012 -0.8770  0.3736  0.1788
 4515TIP3    H135104   4.370   3.544   2.037  0.1542 -0.6454  2.7342
 4515TIP3    H235105   4.245   3.469   1.997 -0.7327  1.9437  0.3583
 4516TIP3   OH235106   5.708   0.065   7.593 -0.8240 -0.7101  0.3733
 4516TIP3    H135107   5.615   0.045   7.590 -0.4690 -2.4810 -0.7408
 4516TIP3    H235108   5.747  -0.006   7.645 -0.1866  0.4505  1.5172
 4517TIP3   OH235109   5.790   1.353   0.566  0.0137 -0.3031 -0.4731
 4517TIP3    H135110   5.771   1.323   0.654 -0.9744  1.7277  0.0685
 4517TIP3    H235111   5.876   1.395   0.572 -0.1783  0.0811 -0.4148
 4518TIP3   OH235112   1.360   5.534   1.864 -0.1924 -0.6468 -0.2737
 4518TIP3    H135113   1.343   5.485   1.783  0.3170  0.4392 -1.0555
 4518TIP3    H235114   1.283   5.591   1.874  0.3956  0.2527 -0.7838
 4519TIP3   OH235115   2.843   4.780   8.069  0.5486  0.2032  0.5007
 4519TIP3    H135116   2.850   4.870   8.037  1.7838  0.3448  1.1299
 4519TIP3    H235117   2.802   4.788   8.155 -0.3912  0.0392  0.0909
 4520TIP3   OH235118   6.327   3.507   1.167  0.2625  0.3390  0.3498
 4520TIP3    H135119   6.374   3.553   1.098 -0.1595  0.2864  0.0241
 4520TIP3    H235120   6.379   3.427   1.183  0.7450  0.6964  0.5978
 4521TIP3   OH235121   0.509   1.791   7.110 -0.3814  0.1246 -0.8158
 4521TIP3    H135122   0.548   1.707   7.088 -1.2719  0.2444 -3.1164
 4521TIP3    H235123   0.418   1.783   7.082 -0.6293  1.6675 -0.5462
 4522TIP3   OH235124   3.476   4.082   1.940 -0.8388 -0.3319  0.0401
 4522TIP3    H135125   3.535   4.040   2.002 -0.0299  1.3977  0.4942
 4522TIP3    H235126   3.406   4.118   1.993  1.2092  3.5182  0.4638
 4523TIP3   OH235127   4.385   4.576   6.031  0.2818 -0.2870  0.4577
 4523TIP3    H135128   4.315   4.629   6.069 -0.6947 -0.5941 -0.8725
 4523TIP3    H235129   4.360   4.486   6.050  1.0129 -0.3637  1.1271
 4524TIP3   OH235130   4.391   0.395   0.142 -0.3005 -0.3702  0.1909
 4524TIP3    H135131   4.437   0.377   0.224  1.1318  3.2306  0.3438
 4524TIP3    H235132   4.459   0.431   0.085 -1.3973 -2.1681 -2.4480
 4525TIP3   OH235133   6.520   2.409   8.032  0.3126  0.3252  0.1086
 4525TIP3    H135134   6.606   2.379   8.002  0.6376  0.2668  1.0715
 4525TIP3    H235135   6.490   2.468   7.963 -0.2114 -1.9138 -1.7064
 4526TIP3   OH235136   6.413   3.705   8.275  0.2738 -0.6159  0.3014
 4526TIP3    H135137   6.419   3.693   8.181 -0.4155 -2.1667  0.4248
 4526TIP3    H235138   6.468   3.636   8.312  1.5656  0.7628  1.0459
 4527TIP3   OH235139   5.628   2.482   6.321  0.2769  0.0019 -0.6783
 4527TIP3    H135140   5.617   2.393   6.288  0.6692 -0.4361  0.3603
 4527TIP3    H235141   5.706   2.515   6.277 -0.0589 -0.0340 -1.3200
 4528TIP3   OH235142   2.859   5.384   0.287  0.0204 -0.3810 -0.0010
 4528TIP3    H135143   2.806   5.377   0.207  1.3717  2.2923 -1.2432
 4528TIP3    H235144   2.871   5.293   0.315 -2.5567 -1.2691 -1.3931
 4529TIP3   OH235145   4.228   6.344   0.241  0.0111  1.1135  0.3809
 4529TIP3    H135146   4.207   6.286   0.167  2.2610  0.6467  0.0202
 4529TIP3    H235147   4.148   6.346   0.293 -1.3793  0.7900 -1.6256
 4530TIP3   OH235148   6.719   4.192   6.556  0.0237 -0.6326 -0.2363
 4530TIP3    H135149   6.645   4.170   6.498 -0.3027  2.9931 -1.4320
 4530TIP3    H235150   6.678   4.222   6.637  0.2298 -0.1281 -0.3169
 4531TIP3   OH235151   3.693   0.320   1.150 -0.3490  0.7190  0.0304
 4531TIP3    H135152   3.722   0.318   1.241  0.2578 -0.9231 -0.1658
 4531TIP3    H235153   3.621   0.257   1.147 -0.7199  1.1659 -0.5206
 4532TIP3   OH235154   1.611   5.092   7.721 -0.3874 -0.4481 -0.1510
 4532TIP3    H135155   1.588   5.067   7.631  2.0428 -1.0628 -0.6682
 4532TIP3    H235156   1.678   5.029   7.747 -1.9650 -1.1087  2.6473
 4533TIP3   OH235157   4.421   0.729   6.537 -0.3720 -0.1402  0.2552
 4533TIP3    H135158   4.394   0.784   6.464 -1.4904 -0.1532  0.6281
 4533TIP3    H235159   4.375   0.765   6.613  1.2598  0.2606  1.0980
 4534TIP3   OH235160   4.877   3.100   7.618 -0.0886 -0.0616 -0.4598
 4534TIP3    H135161   4.817   3.071   7.549 -0.0916  1.2421 -1.0429
 4534TIP3    H235162   4.959   3.119   7.573 -0.1043  0.8529 -0.1342
 4535TIP3   OH235163   3.585   3.116   7.196  0.4090  0.7451  0.4092
 4535TIP3    H135164   3.565   3.055   7.125 -0.8411  2.2378 -0.5913
 4535TIP3    H235165   3.611   3.060   7.269 -0.2111 -0.9473 -0.6101
 4536TIP3   OH235166   4.423   3.083   7.066 -0.1431 -0.1416  0.4772
 4536TIP3    H135167   4.377   3.023   7.125 -1.9878  1.1859  0.4742
 4536TIP3    H235168   4.399   3.171   7.098 -0.9437  0.6261 -2.0248
 4537TIP3   OH235169   5.952   6.488   0.675  0.1848 -0.0330 -0.4694
 4537TIP3    H135170   5.940   6.557   0.741  0.1076 -1.5789  1.2049
 4537TIP3    H235171   5.863   6.461   0.652  0.2217 -0.0797 -0.5557
 4538TIP3   OH235172   2.790   5.269   1.051 -0.1287 -0.5007  0.5298
 4538TIP3    H135173   2.776   5.181   1.086 -2.4808  0.5677  2.6119
 4538TIP3    H235174   2.722   5.280   0.985  1.0330 -0.6763 -0.7334
 4539TIP3   OH235175   2.480   5.118   7.429 -0.4289 -0.0184 -0.7838
 4539TIP3    H135176   2.481   5.031   7.468 -0.6298  0.6895  0.8733
 4539TIP3    H235177   2.542   5.169   7.482 -1.2624  1.1698 -0.9104
 4540TIP3   OH235178   1.112   4.941   0.656 -0.1525  0.4221  0.9780
 4540TIP3    H135179   1.168   4.919   0.730 -1.5198 -1.6276  1.4823
 4540TIP3    H235180   1.103   4.859   0.608  0.8507  1.7261 -1.6362
 4541TIP3   OH235181   4.556   5.507   1.025 -0.0167  0.6102  0.2797
 4541TIP3    H135182   4.513   5.523   0.941 -0.9063  3.2382  1.1251
 4541TIP3    H235183   4.491   5.459   1.077 -0.2416  0.7159  0.0965
 4542TIP3   OH235184   6.634   6.396   7.192 -0.1497  0.3235  0.4176
 4542TIP3    H135185   6.725   6.368   7.180  0.7976  2.6189  1.5389
 4542TIP3    H235186   6.640   6.490   7.207 -2.5817  0.3057  2.0606
 4543TIP3   OH235187   2.664   5.579   7.267  0.8858 -0.2434  0.4592
 4543TIP3    H135188   2.571   5.570   7.286  0.8984  0.5258  0.9215
 4543TIP3    H235189   2.670   5.574   7.172  0.3098  0.1947  0.3983
 4544TIP3   OH235190   4.624   2.694   1.480  0.6483 -0.6468  0.4041
 4544TIP3    H135191   4.694   2.642   1.442 -0.9124 -2.5707 -0.0280
 4544TIP3    H235192   4.545   2.663   1.436 -0.8029 -0.5152  2.7248
 4545TIP3   OH235193   4.559   3.235   1.055 -0.8543 -0.7274  0.4227
 4545TIP3    H135194   4.636   3.178   1.064 -2.0650 -2.4804  0.3273
 4545TIP3    H235195   4.575   3.307   1.115  1.2858 -0.5334 -0.2923
 4546TIP3   OH235196   0.863   1.242   1.500  0.3745 -0.2006 -0.3972
 4546TIP3    H135197   0.926   1.229   1.571  0.6344 -3.5809 -1.0980
 4546TIP3    H235198   0.777   1.236   1.543  0.5321 -0.9181 -0.1683
 4547TIP3   OH235199   4.963   1.476   6.790  0.0773  0.2258 -0.1918
 4547TIP3    H135200   4.953   1.571   6.784 -2.9409 -0.0411 -2.0513
 4547TIP3    H235201   4.877   1.442   6.765  1.1221 -3.0190  0.1679
 4548TIP3   OH235202   5.529   2.940   0.655  0.0686 -0.1286 -0.1258
 4548TIP3    H135203   5.544   2.888   0.576 -0.4514  0.3025 -0.5167
 4548TIP3    H235204   5.609   2.932   0.706  0.9395  0.6914 -1.3288
 4549TIP3   OH235205   4.741   3.508   0.295  0.2852 -0.4696  0.0578
 4549TIP3    H135206   4.771   3.596   0.318  0.0204 -0.4709  0.4083
 4549TIP3    H235207   4.811   3.451   0.328  0.1612 -0.4345  0.3814
 4550TIP3   OH235208   2.055   3.877   6.659 -0.1492 -0.3230  0.1088
 4550TIP3    H135209   1.995   3.918   6.721 -0.4512  0.4533 -0.6752
 4550TIP3    H235210   2.128   3.937   6.653 -0.9294  0.5178 -1.6051
 4551TIP3   OH235211   2.692   0.695   8.041  0.0804 -0.4132 -0.3960
 4551TIP3    H135212   2.740   0.742   7.972  0.9158 -0.6908 -0.0210
 4551TIP3    H235213   2.726   0.732   8.122  0.9901 -1.8734 -0.0842
 4552TIP3   OH235214   6.328   1.968   0.740 -0.1698 -0.0379  0.3725
 4552TIP3    H135215   6.385   1.902   0.779  0.3684  0.0863 -0.1821
 4552TIP3    H235216   6.384   2.046   0.731 -0.9430  0.6751  1.5060
 4553TIP3   OH235217   1.521   4.925   8.309  0.5853 -0.2229  0.1591
 4553TIP3    H135218   1.578   4.888   8.376 -1.7633 -3.9404  0.3317
 4553TIP3    H235219   1.540   4.873   8.230 -1.1228 -0.2224 -0.2950
 4554TIP3   OH235220   6.273   2.117   6.928 -0.3371  0.5489 -0.2400
 4554TIP3    H135221   6.345   2.178   6.945  0.4330 -0.6014  0.9168
 4554TIP3    H235222   6.289   2.044   6.989 -3.4135  0.9939  1.2921
 4555TIP3   OH235223   4.393   1.577   8.327 -0.5093 -0.6375  0.0821
 4555TIP3    H135224   4.415   1.512   8.394  0.8450  0.3291  0.6223
 4555TIP3    H235225   4.317   1.622   8.361  0.0118 -0.3318  0.8699
 4556TIP3   OH235226   6.660   4.052   1.986 -0.0904 -0.0196  0.1179
 4556TIP3    H135227   6.613   3.971   1.966  1.6325 -1.3669  1.2621
 4556TIP3    H235228   6.597   4.103   2.038 -0.3226 -1.7925  1.6720
 4557TIP3   OH235229   3.880   3.327   8.150 -0.1033  0.1510  0.3898
 4557TIP3    H135230   3.932   3.363   8.078 -2.1892  0.2787 -1.1559
 4557TIP3    H235231   3.859   3.403   8.204  0.9803  0.1570  0.8129
 4558TIP3   OH235232   5.252   4.420   0.557  0.7712  0.0894 -0.1105
 4558TIP3    H135233   5.257   4.358   0.630  1.0370  1.0112  0.6799
 4558TIP3    H235234   5.201   4.375   0.491 -0.9119 -0.1600  1.2950
 4559TIP3   OH235235   1.897   2.374   6.597 -0.5765  0.0428  0.1650
 4559TIP3    H135236   1.856   2.396   6.681  0.4480  0.0260  0.6861
 4559TIP3    H235237   1.946   2.294   6.615 -0.2155  0.1286 -0.4136
 4560TIP3   OH235238   6.808   3.404   0.327 -0.4427  0.2129  0.0519
 4560TIP3    H135239   6.803   3.384   0.420  0.4524  0.9645  0.2776
 4560TIP3    H235240   6.825   3.320   0.285  1.1419  0.1447  0.7688
 4561TIP3   OH235241   0.728   5.453   7.036 -0.6791 -0.3658 -0.1181
 4561TIP3    H135242   0.801   5.456   7.097 -1.0707 -2.0059  0.4955
 4561TIP3    H235243   0.666   5.518   7.070  1.0114  2.1513 -1.4894
 4562TIP3   OH235244   4.708   4.305   1.425  0.1355  0.2181  0.1178
 4562TIP3    H135245   4.752   4.252   1.358  0.8559  1.7127 -0.6252
 4562TIP3    H235246   4.766   4.299   1.501 -0.5544 -1.2712  0.5637
 4563TIP3   OH235247   3.006   2.133   0.160  0.1169  0.4316  0.4905
 4563TIP3    H135248   3.007   2.200   0.228  0.6280  0.5079  0.4133
 4563TIP3    H235249   3.076   2.072   0.186  1.4203  1.3141 -0.8037
 4564TIP3   OH235250   3.406   0.769   7.042  0.3752 -0.4476 -0.0557
 4564TIP3    H135251   3.455   0.708   6.987 -0.1910 -1.0602  0.0998
 4564TIP3    H235252   3.351   0.818   6.981  1.0596  0.1403 -0.2150
 4565TIP3   OH235253   5.941   1.112   8.114  0.6832  0.8433  0.0991
 4565TIP3    H135254   5.853   1.082   8.092  1.1611 -0.2476 -0.4115
 4565TIP3    H235255   5.928   1.199   8.152 -0.7321  0.1155  1.3986
 4566TIP3   OH235256   6.611   1.464   0.763  0.4283  0.1699  0.0901
 4566TIP3    H135257   6.640   1.455   0.673  0.7039 -1.5424  0.3146
 4566TIP3    H235258   6.554   1.541   0.763  2.5799  1.8647 -0.9542
 4567TIP3   OH235259   1.173   3.522   8.237  0.2455  0.4402 -0.2440
 4567TIP3    H135260   1.088   3.519   8.281 -0.4268  0.7042 -1.4653
 4567TIP3    H235261   1.195   3.615   8.232  0.9394  0.3360  0.6554
 4568TIP3   OH235262   6.628   5.648   6.856 -0.0461  0.1037 -0.2993
 4568TIP3    H135263   6.701   5.611   6.907 -1.1961  0.3255  1.6086
 4568TIP3    H235264   6.585   5.572   6.817  2.1774  0.0605 -2.9959
 4569TIP3   OH235265   0.064   5.747   1.178 -0.0764  0.0195  0.2252
 4569TIP3    H135266   0.038   5.662   1.142  0.8261  0.0502 -0.5621
 4569TIP3    H235267   0.154   5.760   1.145 -0.0834  1.1277  0.5962
 4570TIP3   OH235268   5.941   5.597   7.652 -0.4291  0.1368 -0.0330
 4570TIP3    H135269   5.966   5.683   7.685  1.6940 -0.5976  0.3734
 4570TIP3    H235270   5.919   5.547   7.730 -1.3566  0.1902 -0.2481
 4571TIP3   OH235271   5.559   0.839   6.039  0.2623 -0.5261 -0.6494
 4571TIP3    H135272   5.471   0.876   6.051 -0.1766 -1.2030 -1.6685
 4571TIP3    H235273   5.579   0.855   5.947  1.4885  0.1840 -0.2848
 4572TIP3   OH235274   6.590   3.497   0.014  0.1836  0.3520  0.2797
 4572TIP3    H135275   6.631   3.455  -0.062 -1.6182 -0.2096 -0.4402
 4572TIP3    H235276   6.662   3.541   0.059  1.2645  1.1151 -2.0368
 4573TIP3   OH235277   0.039   4.712   0.429 -0.0239  0.3800  0.5925
 4573TIP3    H135278   0.128   4.729   0.396 -0.0116  0.1583  0.5141
 4573TIP3    H235279  -0.019   4.746   0.361 -0.0428 -2.6670 -1.0959
 4574TIP3   OH235280   2.328   6.700   0.264 -0.1244 -0.1115 -0.2212
 4574TIP3    H135281   2.282   6.621   0.293 -1.9654  0.6632 -0.8449
 4574TIP3    H235282   2.259   6.754   0.225  0.8499  2.2571  1.1257
 4575TIP3   OH235283   6.149   4.017   7.375  1.3198  0.3556  0.1851
 4575TIP3    H135284   6.099   3.936   7.361  0.9654  0.4818  0.6967
 4575TIP3    H235285   6.099   4.065   7.441  1.5519  0.9781 -0.0913
 4576TIP3   OH235286   0.967   5.582   0.164  0.1073 -0.2694  0.1624
 4576TIP3    H135287   0.998   5.600   0.253  0.6462  0.8950 -0.2424
 4576TIP3    H235288   1.014   5.645   0.109 -0.9394 -0.3200 -0.8282
 4577TIP3   OH235289   4.540   0.425   2.342  0.0258  0.4460 -0.3942
 4577TIP3    H135290   4.600   0.434   2.416  1.7408  0.7289 -1.7575
 4577TIP3    H235291   4.527   0.331   2.332 -2.2590  0.4150  1.7491
 4578TIP3   OH235292   2.346   1.494   8.220 -0.8043 -0.0997 -0.6607
 4578TIP3    H135293   2.294   1.454   8.150 -2.7476  2.2832 -0.7366
 4578TIP3    H235294   2.310   1.457   8.300 -1.3856  0.1735 -0.7890
 4579TIP3   OH235295   3.765   6.142   6.592  0.0613  0.0425  0.0107
 4579TIP3    H135296   3.833   6.079   6.569 -0.0146  0.8931 -2.8949
 4579TIP3    H235297   3.700   6.134   6.522 -1.8746  0.6671  1.6415
 4580TIP3   OH235298   5.495   0.165   6.451  0.3202 -0.2222 -0.1858
 4580TIP3    H135299   5.428   0.121   6.399 -0.4992 -0.5470  1.1164
 4580TIP3    H235300   5.495   0.255   6.419  1.4316 -0.9109 -2.2983
 4581TIP3   OH235301   6.397   1.214   6.601 -0.5654 -0.0042 -0.1131
 4581TIP3    H135302   6.321   1.246   6.649  0.4521  0.0852  1.4930
 4581TIP3    H235303   6.461   1.193   6.668  0.0508 -2.2163 -1.2936
 4582TIP3   OH235304   0.253   5.175   0.021  0.3124  0.2597 -0.2797
 4582TIP3    H135305   0.278   5.230   0.095 -1.5699  0.6892  0.0988
 4582TIP3    H235306   0.248   5.236  -0.053  0.1362  0.2353 -0.2885
 4583TIP3   OH235307   6.641   3.123   7.025  0.0597 -0.2892  0.4103
 4583TIP3    H135308   6.636   3.199   7.084  0.7090 -1.5603  2.1895
 4583TIP3    H235309   6.646   3.161   6.938 -1.6329  1.6746  1.0730
 4584TIP3   OH235310   1.954   6.530   7.834 -0.1370 -0.1256 -0.0243
 4584TIP3    H135311   1.979   6.443   7.865  1.0642  0.3629  0.4438
 4584TIP3    H235312   1.909   6.513   7.751 -2.6976 -1.3925  1.5093
 4585TIP3   OH235313   1.560   0.111   7.537 -0.2965 -0.2565  0.0162
 4585TIP3    H135314   1.646   0.113   7.579 -0.9761  0.2900  1.4257
 4585TIP3    H235315   1.535   0.203   7.527  0.5360 -0.2373 -3.1795
 4586TIP3   OH235316   2.524   5.109   1.064 -0.1300  0.0530  0.3668
 4586TIP3    H135317   2.538   5.022   1.025 -0.6170  0.6119 -1.1347
 4586TIP3    H235318   2.530   5.169   0.990  2.2618  1.5504  1.6717
 4587TIP3   OH235319   6.040   1.182   0.774 -0.2086  0.4784  0.0601
 4587TIP3    H135320   6.022   1.254   0.834  1.8827  0.3919  0.8636
 4587TIP3    H235321   6.088   1.223   0.701  0.2041  0.0497  0.0888
 4588TIP3   OH235322   5.903   6.505   2.490  0.0681  0.4264 -0.0014
 4588TIP3    H135323   5.879   6.427   2.441  0.4950  0.7291 -0.7065
 4588TIP3    H235324   5.995   6.520   2.468 -0.2583  1.6767 -0.6512
 4589TIP3   OH235325   1.160   6.278   7.248 -0.2776 -0.0366  0.0835
 4589TIP3    H135326   1.146   6.331   7.170  1.9971  0.7432  0.1254
 4589TIP3    H235327   1.139   6.336   7.321 -1.9119 -0.6080  0.1150
 4590TIP3   OH235328   3.855   1.500   7.454 -0.1543  0.2065 -0.1178
 4590TIP3    H135329   3.818   1.466   7.536 -1.6238  0.7956 -0.5123
 4590TIP3    H235330   3.903   1.426   7.417 -0.1375 -0.3034  0.8743
 4591TIP3   OH235331   0.986   0.727   7.050 -0.3785  0.0983 -0.2462
 4591TIP3    H135332   0.927   0.786   7.003 -0.0735  0.0724 -0.6639
 4591TIP3    H235333   1.055   0.708   6.987 -1.9730 -3.1246 -1.2283
 4592TIP3   OH235334   2.311   6.784   7.591 -0.6670  0.2753 -0.5699
 4592TIP3    H135335   2.270   6.870   7.583  1.1643  1.1634 -1.0913
 4592TIP3    H235336   2.307   6.747   7.503  0.9856  1.0619 -1.0189
 4593TIP3   OH235337   1.383   0.519   6.666  0.7281  0.2333  0.3628
 4593TIP3    H135338   1.474   0.547   6.657 -0.2127  3.2404 -1.6786
 4593TIP3    H235339   1.358   0.545   6.755  1.0304  2.5629 -0.1652
 4594TIP3   OH235340   3.402   1.178   0.057 -0.5344  0.0441  0.3252
 4594TIP3    H135341   3.467   1.153   0.122 -0.1339  0.6181  0.1537
 4594TIP3    H235342   3.438   1.256   0.016 -0.9069 -0.1574 -0.4034
 4595TIP3   OH235343   2.788   2.432   7.740 -0.0614 -0.3905 -0.0590
 4595TIP3    H135344   2.831   2.394   7.817 -1.0015 -0.3725  0.4987
 4595TIP3    H235345   2.855   2.433   7.673  0.5726 -1.1139  0.5407
 4596TIP3   OH235346   0.635   4.861   6.927  0.6898  0.0578 -0.5836
 4596TIP3    H135347   0.622   4.955   6.939  2.0709  0.2783 -0.7180
 4596TIP3    H235348   0.716   4.854   6.878  0.6014 -1.2145 -0.5707
 4597TIP3   OH235349   6.130   1.563   7.026 -0.9349  0.6970 -0.1221
 4597TIP3    H135350   6.102   1.651   7.050 -3.5767  0.0062 -0.3553
 4597TIP3    H235351   6.083   1.506   7.087  0.1711 -0.5923 -0.4427
 4598TIP3   OH235352   1.898   6.621   5.858  0.6014 -0.2287  0.1042
 4598TIP3    H135353   1.959   6.606   5.931 -0.1872 -0.1672  0.7855
 4598TIP3    H235354   1.876   6.714   5.866 -0.8600 -0.6206  0.8780
 4599TIP3   OH235355   6.955   2.186   1.793  0.3755 -0.0612  0.3010
 4599TIP3    H135356   6.921   2.208   1.880  0.1687 -0.1783  0.2511
 4599TIP3    H235357   6.951   2.268   1.744 -0.4598 -0.2230  0.0919
 4600TIP3   OH235358   3.934   0.440   0.773  0.4525 -0.0322  0.1232
 4600TIP3    H135359   3.967   0.522   0.809 -0.1541  0.1757  0.2090
 4600TIP3    H235360   3.966   0.373   0.833  1.8758  0.0176 -0.5368
 4601TIP3   OH235361   3.755   4.454   1.438  0.1276 -0.1616 -0.4820
 4601TIP3    H135362   3.819   4.382   1.437  1.9000  1.2718  1.5771
 4601TIP3    H235363   3.738   4.473   1.345  0.3539 -2.5192 -1.0751
 4602TIP3   OH235364   0.008   5.053   7.660  0.3483  0.0763  0.6006
 4602TIP3    H135365   0.000   5.126   7.598  0.0383 -0.6617 -0.2527
 4602TIP3    H235366   0.073   4.995   7.621 -1.3096 -1.3996 -0.0979
 4603TIP3   OH235367   2.247   6.044   0.565 -0.4388 -0.1474 -0.2824
 4603TIP3    H135368   2.275   5.972   0.509 -1.3687 -0.7656  0.0268
 4603TIP3    H235369   2.262   6.012   0.654 -1.4914 -0.2353 -0.1283
 4604TIP3   OH235370   2.076   6.918   0.710  0.0616 -0.1969 -0.1531
 4604TIP3    H135371   1.996   6.869   0.730 -0.0133  0.4382  1.1878
 4604TIP3    H235372   2.078   6.922   0.615 -3.3027  2.6546 -0.2907
 4605TIP3   OH235373   4.029   6.411   7.404  0.6990  0.1954 -0.7865
 4605TIP3    H135374   4.006   6.418   7.497  0.9874  4.2065 -0.8617
 4605TIP3    H235375   3.945   6.397   7.360 -0.0774  2.5204 -0.1634
 4606TIP3   OH235376   6.104   2.297   7.661 -0.1738 -0.1903  0.1758
 4606TIP3    H135377   6.110   2.204   7.639  1.1960 -0.1819  0.3967
 4606TIP3    H235378   6.048   2.334   7.593 -0.3833 -1.0994 -0.1646
 4607TIP3   OH235379   1.946   6.450   8.099 -0.1374  1.1035 -0.2949
 4607TIP3    H135380   2.031   6.475   8.061 -0.0177  0.1977 -0.6375
 4607TIP3    H235381   1.883   6.468   8.030 -0.3783  2.7104  0.2952
 4608TIP3   OH235382   3.977   6.356   1.557  0.2005  0.7927 -0.0137
 4608TIP3    H135383   3.897   6.369   1.506 -1.4366  0.2950  2.2543
 4608TIP3    H235384   3.995   6.442   1.595 -0.1194  0.5803  0.6289
 4609TIP3   OH235385   3.537   0.760   7.795 -0.2216 -0.1601 -0.0092
 4609TIP3    H135386   3.486   0.707   7.856 -1.0586  0.8226  0.1750
 4609TIP3    H235387   3.627   0.754   7.827 -0.6342  0.2655  1.2857
 4610TIP3   OH235388   1.647   6.359   8.315  0.2746  0.1394 -0.1035
 4610TIP3    H135389   1.558   6.330   8.336  0.0622  1.1274  0.4234
 4610TIP3    H235390   1.638   6.406   8.232  0.2087  0.6899  0.2127
 4611TIP3   OH235391   3.227   6.563   0.775  0.0594 -0.2126  0.2493
 4611TIP3    H135392   3.264   6.478   0.752  1.0609  0.0381  0.9092
 4611TIP3    H235393   3.298   6.611   0.817 -0.6737  0.7231  0.4755
 4612TIP3   OH235394   6.034   6.833   2.286 -0.0798 -0.2931  0.0364
 4612TIP3    H135395   6.097   6.773   2.245 -0.7296 -0.8802 -0.1120
 4612TIP3    H235396   6.089   6.903   2.322  0.8140 -1.6351  1.4057
 4613TIP3   OH235397   0.022   0.409   1.559 -0.1866 -0.0163  0.1910
 4613TIP3    H135398   0.060   0.470   1.622 -0.4881  0.0882  0.2736
 4613TIP3    H235399  -0.014   0.464   1.490 -0.3440 -0.1036  0.2005
 4614TIP3   OH235400   5.233   0.075   0.127 -0.5342  0.0135  0.4171
 4614TIP3    H135401   5.156   0.048   0.076  0.1916 -0.0770 -0.6598
 4614TIP3    H235402   5.308   0.049   0.074  0.2404  1.4230  0.7544
 4615TIP3   OH235403   3.403   1.469   7.702 -0.0408  0.1187  0.3310
 4615TIP3    H135404   3.473   1.445   7.762 -0.1359 -0.9149  0.0472
 4615TIP3    H235405   3.332   1.409   7.723 -0.1581 -0.0951 -0.6429
 4616TIP3   OH235406   4.959   1.271   0.426 -0.2331  0.4195  0.1060
 4616TIP3    H135407   4.961   1.354   0.378 -1.6819  0.6497  0.4147
 4616TIP3    H235408   4.974   1.204   0.359  0.4323  0.8860 -0.2236
 4617TIP3   OH235409   6.980   2.254   1.381  0.3501  0.4680 -0.7078
 4617TIP3    H135410   7.060   2.295   1.413  0.5274  2.5768 -3.4111
 4617TIP3    H235411   7.006   2.211   1.300 -0.8654 -0.6522 -0.5335
 4618TIP3   OH235412   6.107   2.096   0.977  0.2187  0.3458 -0.3047
 4618TIP3    H135413   6.169   2.159   1.014  0.1385  0.4542 -0.3548
 4618TIP3    H235414   6.053   2.148   0.918 -0.6851  0.4942  0.6166
 4619TIP3   OH235415   5.385   6.436   6.784 -0.0249  0.0936 -0.3916
 4619TIP3    H135416   5.460   6.466   6.732 -0.2762 -0.7540 -1.2712
 4619TIP3    H235417   5.310   6.479   6.743  0.0736  2.2816  1.5024
 4620TIP3   OH235418   4.848   4.241   0.432  0.0512 -0.5805  0.5853
 4620TIP3    H135419   4.764   4.249   0.477  0.1227 -2.4670  1.1254
 4620TIP3    H235420   4.907   4.205   0.498  1.1724  0.2549  0.0619
 4621TIP3   OH235421   6.946   5.207   8.133  0.4030 -0.0393 -0.1202
 4621TIP3    H135422   6.983   5.270   8.071  1.1749 -0.9106 -0.5720
 4621TIP3    H235423   6.879   5.256   8.180  1.6980  1.4181  0.2736
 4622TIP3   OH235424   5.416   3.181   1.736  0.1891 -0.0297 -0.1826
 4622TIP3    H135425   5.373   3.141   1.812 -1.4140 -0.1903 -1.1117
 4622TIP3    H235426   5.452   3.263   1.768  0.2084 -0.4591  0.9147
 4623TIP3   OH235427   5.277   3.208   7.536  0.0289 -0.6456  0.1260
 4623TIP3    H135428   5.338   3.239   7.469 -0.0409 -0.1769  0.2758
 4623TIP3    H235429   5.214   3.280   7.546 -0.0639 -0.7869  0.5675
 4624TIP3   OH235430   2.063   4.500   1.881 -0.0356 -0.0483  0.3955
 4624TIP3    H135431   1.997   4.463   1.823 -0.7628  0.5129  0.8405
 4624TIP3    H235432   2.018   4.572   1.926  0.2961 -0.8870  2.1606
 4625TIP3   OH235433   2.651   0.172   0.657  1.1022 -0.0136 -0.4571
 4625TIP3    H135434   2.701   0.225   0.719 -0.7881  0.9074  0.3553
 4625TIP3    H235435   2.691   0.086   0.662  1.1815  0.0847  1.9139
 4626TIP3   OH235436   6.071   4.356   7.939 -0.1256 -0.5648  0.5197
 4626TIP3    H135437   6.044   4.425   8.000  1.6305 -1.1160  2.0208
 4626TIP3    H235438   6.040   4.275   7.979 -1.0582 -0.7782 -0.5852
 4627TIP3   OH235439   5.818   1.616   7.183 -0.2179  0.0516  0.0902
 4627TIP3    H135440   5.737   1.588   7.139 -0.3644 -2.3482  1.7575
 4627TIP3    H235441   5.845   1.541   7.235  1.5780  1.7711  1.7941
 4628TIP3   OH235442   3.050   2.274   8.222  0.8647 -0.0425  0.2640
 4628TIP3    H135443   3.127   2.315   8.182  0.4557 -0.8258 -1.4480
 4628TIP3    H235444   3.075   2.259   8.313  1.3744  3.0696  0.7583
 4629TIP3   OH235445   2.226   4.544   0.577  0.1384 -0.0175  0.4593
 4629TIP3    H135446   2.277   4.571   0.653 -1.1723  1.2868  0.8966
 4629TIP3    H235447   2.146   4.507   0.613 -0.7268  1.1005 -0.2796
 4630TIP3   OH235448   4.946   1.440   7.153 -0.5039  0.5985  0.0421
 4630TIP3    H135449   4.945   1.511   7.089 -0.3340  1.4860  0.9986
 4630TIP3    H235450   4.932   1.483   7.237  2.0318 -0.1845  0.9463
 4631TIP3   OH235451   1.268   5.405   0.531 -0.0700  0.3210  0.2037
 4631TIP3    H135452   1.281   5.424   0.438  1.8067 -0.6950  0.2071
 4631TIP3    H235453   1.173   5.392   0.540 -0.2887  0.4555 -1.5561
 4632TIP3   OH235454   6.636   6.016   6.509 -0.0249 -0.4420 -0.1629
 4632TIP3    H135455   6.688   6.016   6.589  0.1746  2.9867 -0.1310
 4632TIP3    H235456   6.668   6.092   6.460 -2.1465 -0.6970 -2.1247
 4633TIP3   OH235457   3.615   2.129   7.317  0.2854 -0.0203 -0.2815
 4633TIP3    H135458   3.710   2.117   7.319  0.5266  1.6605 -0.5425
 4633TIP3    H235459   3.595   2.171   7.400 -0.1757  0.0892 -0.4490
 4634TIP3   OH235460   3.023   0.635   6.174  0.5856 -0.3125 -0.3709
 4634TIP3    H135461   3.093   0.596   6.226  1.8703  0.6304 -1.2910
 4634TIP3    H235462   3.070   0.685   6.106 -0.9957  0.2357 -1.1050
 4635TIP3   OH235463   1.571   2.431   7.679 -0.0750  0.1624  0.2349
 4635TIP3    H135464   1.579   2.525   7.659 -2.2486  0.2206 -0.6995
 4635TIP3    H235465   1.555   2.428   7.773  1.0323  0.6280  0.4534
 4636TIP3   OH235466   3.999   1.726   8.354 -0.4420  0.3843 -0.2531
 4636TIP3    H135467   4.067   1.691   8.411 -0.5476  1.4255  0.5330
 4636TIP3    H235468   4.044   1.788   8.297 -0.7773  1.3839  0.5436
 4637TIP3   OH235469   1.599   2.121   7.244 -0.2908 -0.2497 -0.1971
 4637TIP3    H135470   1.538   2.162   7.305 -0.9627 -0.3207 -0.7961
 4637TIP3    H235471   1.624   2.192   7.184 -1.3531 -0.6557 -1.1556
 4638TIP3   OH235472   2.234   4.650   2.264  0.2769 -0.1234 -0.3624
 4638TIP3    H135473   2.304   4.626   2.325  0.2176  1.5201  0.4146
 4638TIP3    H235474   2.157   4.662   2.320 -0.2815 -0.5706 -1.0288
 4639TIP3   OH235475   5.315   0.928   0.834  0.4549  0.3728  0.0054
 4639TIP3    H135476   5.266   0.994   0.785 -1.3100 -0.7731  0.1317
 4639TIP3    H235477   5.285   0.938   0.925  1.5852  0.6211  0.3634
 4640TIP3   OH235478   2.776   0.602   0.572 -0.3957  0.1138  0.5543
 4640TIP3    H135479   2.732   0.629   0.652 -0.9589 -0.5812  0.4934
 4640TIP3    H235480   2.708   0.608   0.504 -0.0291  0.3287  0.2033
 4641TIP3   OH235481   1.591   2.063   1.474 -0.0961 -0.0097 -0.5922
 4641TIP3    H135482   1.571   2.008   1.398  2.3505 -1.6107 -0.1867
 4641TIP3    H235483   1.577   2.006   1.550 -1.0296  1.0993  0.1088
 4642TIP3   OH235484   0.737   6.892   0.016  0.2394  0.3194 -0.4454
 4642TIP3    H135485   0.714   6.828   0.083 -1.3601  1.3566  0.0358
 4642TIP3    H235486   0.821   6.861  -0.019  1.0902 -0.2967  1.9639
 4643TIP3   OH235487   1.057   0.861   8.200  0.3219 -0.5650 -0.3088
 4643TIP3    H135488   1.054   0.808   8.121  2.0221 -0.9472 -0.1368
 4643TIP3    H235489   0.988   0.825   8.256 -0.1076 -1.0468 -1.1410
 4644TIP3   OH235490   6.798   2.701   1.788  0.4272  0.0768  0.2292
 4644TIP3    H135491   6.889   2.672   1.791  1.0067  1.6923 -0.5342
 4644TIP3    H235492   6.788   2.755   1.867  0.1860  0.0664  0.2053
 4645TIP3   OH235493   0.334   2.062   7.662  0.3106  0.0158 -0.3650
 4645TIP3    H135494   0.346   2.156   7.671  0.1220 -0.0631  0.8487
 4645TIP3    H235495   0.303   2.033   7.748  3.5367 -1.6462  0.3885
 4646TIP3   OH235496   2.606   0.272   2.003 -0.8962 -0.2357  0.7202
 4646TIP3    H135497   2.595   0.230   1.918 -0.6987  0.0509  0.5483
 4646TIP3    H235498   2.519   0.303   2.027 -0.5894  1.7524 -0.4824
 4647TIP3   OH235499   0.457   6.862   7.910 -0.0682 -0.1071  0.1017
 4647TIP3    H135500   0.464   6.775   7.871 -0.0222  0.2534 -0.7300
 4647TIP3    H235501   0.535   6.871   7.964  1.0524  0.2075 -1.4756
 4648TIP3   OH235502   4.488   3.433   1.212 -0.2510 -0.3356  0.6659
 4648TIP3    H135503   4.506   3.468   1.299  0.0126  0.3340  0.3437
 4648TIP3    H235504   4.458   3.508   1.161  0.7741 -0.4523 -0.1577
 4649TIP3   OH235505   0.897   3.245   0.045  0.0299 -0.4372  0.0042
 4649TIP3    H135506   0.823   3.186   0.052 -0.0815 -0.2606  0.3984
 4649TIP3    H235507   0.895   3.277  -0.045  0.1639 -1.1175 -0.2460
 4650TIP3   OH235508   3.298   5.985   7.725  0.0183  0.0922  0.1189
 4650TIP3    H135509   3.234   6.050   7.696 -1.2442 -1.2489 -0.2313
 4650TIP3    H235510   3.374   6.036   7.752 -1.0018  1.7106  0.0461
 4651TIP3   OH235511   4.770   4.249   6.814  0.0348  0.0227  0.2999
 4651TIP3    H135512   4.704   4.290   6.870  0.3950  0.5986  0.3150
 4651TIP3    H235513   4.830   4.320   6.792 -0.6505  0.0663 -1.6787
 4652TIP3   OH235514   2.728   6.942   7.683 -0.3685  0.3702  0.1668
 4652TIP3    H135515   2.638   6.964   7.708 -0.7954  3.0258 -2.9911
 4652TIP3    H235516   2.782   7.002   7.734 -0.5563  0.3129  0.4374
 4653TIP3   OH235517   5.271   1.103   7.518  0.4580 -0.3038  0.3171
 4653TIP3    H135518   5.251   1.167   7.450  0.9244 -0.6391 -0.1367
 4653TIP3    H235519   5.366   1.090   7.512  0.1862 -2.2468 -0.6940
 4654TIP3   OH235520   2.382   5.326   6.622  0.3738  0.5499 -0.0873
 4654TIP3    H135521   2.370   5.380   6.544  2.5049 -0.9665 -1.5759
 4654TIP3    H235522   2.313   5.261   6.618  0.9699 -0.0390 -1.2267
 4655TIP3   OH235523   5.362   0.485   0.680  0.0430  0.0155  1.0648
 4655TIP3    H135524   5.376   0.579   0.684  0.2077 -0.0145  1.2144
 4655TIP3    H235525   5.417   0.456   0.607  1.3046 -0.1917  2.0532
 4656TIP3   OH235526   0.527   0.069   6.517  0.3089  0.0280  0.3170
 4656TIP3    H135527   0.559   0.107   6.599  1.1290  0.5810 -0.2357
 4656TIP3    H235528   0.602   0.075   6.457 -0.0545 -1.0106 -0.2667
 4657TIP3   OH235529   5.665   4.950   0.038 -0.2645 -0.6388 -0.2046
 4657TIP3    H135530   5.578   4.911   0.032  0.3715 -2.0974 -0.4193
 4657TIP3    H235531   5.709   4.922  -0.043  0.2091  0.6058 -0.3962
 4658TIP3   OH235532   4.871   3.377   1.419 -0.2547 -1.1215  0.0838
 4658TIP3    H135533   4.932   3.321   1.466  0.2032 -1.7302 -1.1743
 4658TIP3    H235534   4.913   3.463   1.418 -0.0810 -1.2000  0.4295
 4659TIP3   OH235535   1.300   2.733   6.483  0.1968 -0.4238  0.0413
 4659TIP3    H135536   1.394   2.749   6.483  0.4234 -1.6818 -0.6951
 4659TIP3    H235537   1.287   2.660   6.423 -1.0711 -1.2837  1.2932
 4660TIP3   OH235538   0.572   6.806   7.195  0.2445 -0.4919  0.3894
 4660TIP3    H135539   0.503   6.743   7.175  1.7225 -1.8471 -0.7178
 4660TIP3    H235540   0.569   6.816   7.290 -1.8132 -0.0688  0.3241
 4661TIP3   OH235541   2.319   3.459   7.060 -0.2210 -0.0255  0.4016
 4661TIP3    H135542   2.247   3.493   7.007 -0.6929 -1.8815 -0.2618
 4661TIP3    H235543   2.383   3.428   6.995 -0.9965 -2.7393  0.7905
 4662TIP3   OH235544   4.524   4.540   1.381  0.9365  0.0599 -0.0599
 4662TIP3    H135545   4.597   4.506   1.433 -1.0588 -0.5408  2.6106
 4662TIP3    H235546   4.496   4.619   1.428 -0.3155  0.0897 -0.8158
 4663TIP3   OH235547   2.142   3.597   0.377  0.1873 -0.4076 -0.6552
 4663TIP3    H135548   2.063   3.637   0.415  1.2403  0.0598  1.2022
 4663TIP3    H235549   2.114   3.510   0.349 -1.4582  0.4949 -1.9860
 4664TIP3   OH235550   2.996   4.494   7.285  0.1296  0.5085  0.7778
 4664TIP3    H135551   2.981   4.484   7.379 -1.0807  1.1279  0.6690
 4664TIP3    H235552   3.059   4.566   7.278 -0.3600  0.9716  1.0894
 4665TIP3   OH235553   5.191   6.321   1.150  0.0383  0.3284 -0.5008
 4665TIP3    H135554   5.237   6.294   1.230 -0.8721  0.2235 -0.0008
 4665TIP3    H235555   5.178   6.240   1.102  0.3188  0.3502 -0.6164
 4666TIP3   OH235556   3.495   0.846   0.465 -0.6447 -0.7297 -0.5914
 4666TIP3    H135557   3.545   0.893   0.531 -1.2511  0.4183 -0.9235
 4666TIP3    H235558   3.561   0.818   0.401 -0.1081 -1.5168  0.2693
 4667TIP3   OH235559   5.644   2.687   7.325  0.2778  0.1725  0.2944
 4667TIP3    H135560   5.690   2.618   7.277  0.2470  0.0849  0.3898
 4667TIP3    H235561   5.567   2.643   7.362  0.8710 -0.0243  1.3463
 4668TIP3   OH235562   1.420   6.604   8.281  0.0181 -0.4338  0.0076
 4668TIP3    H135563   1.461   6.570   8.202 -1.3814  0.1498 -1.0039
 4668TIP3    H235564   1.484   6.666   8.317  0.5438 -0.4840 -0.8292
 4669TIP3   OH235565   1.945   1.651   1.248 -0.1260 -0.2638 -0.5514
 4669TIP3    H135566   1.986   1.683   1.328 -0.0611  1.1448 -1.1093
 4669TIP3    H235567   1.899   1.572   1.274 -0.4053  0.3658  0.9547
 4670TIP3   OH235568   1.931   0.499   6.889  0.0534 -0.6843 -0.3725
 4670TIP3    H135569   1.837   0.514   6.882  0.4494  2.6025 -0.2280
 4670TIP3    H235570   1.964   0.575   6.937  2.9718 -0.8548 -1.8779
 4671TIP3   OH235571   3.417   3.347   8.214  0.3291  0.7470  0.1238
 4671TIP3    H135572   3.360   3.398   8.272  0.1793 -0.8530  1.4586
 4671TIP3    H235573   3.379   3.260   8.214  1.2005  0.3408 -1.2431
 4672TIP3   OH235574   0.119   2.633   1.502  0.1200  0.5778 -0.2237
 4672TIP3    H135575   0.119   2.728   1.491  1.5314  0.7294  0.9015
 4672TIP3    H235576   0.198   2.603   1.457  1.0856  0.2511  1.5884
 4673TIP3   OH235577   0.380   5.823   1.388 -0.0017  0.3948 -0.3856
 4673TIP3    H135578   0.365   5.871   1.306 -0.5023 -0.1087 -0.6025
 4673TIP3    H235579   0.297   5.777   1.404  0.9841 -1.7778 -1.1245
 4674TIP3   OH235580   5.651   3.864   0.136 -0.0301 -0.1731 -0.7148
 4674TIP3    H135581   5.725   3.822   0.179  1.0543  2.1765 -0.1010
 4674TIP3    H235582   5.579   3.802   0.146  1.4941 -1.9415 -0.1217
 4675TIP3   OH235583   0.637   5.730   1.085 -0.1587 -0.4260 -0.2106
 4675TIP3    H135584   0.627   5.792   1.013  1.1316  0.2464  0.1457
 4675TIP3    H235585   0.700   5.666   1.053 -1.1282 -1.3087 -0.4016
 4676TIP3   OH235586   6.912   1.915   7.845 -0.0107 -0.5580 -0.1188
 4676TIP3    H135587   6.866   1.937   7.926  0.0717  0.0283 -0.2295
 4676TIP3    H235588   6.998   1.955   7.854 -0.7976  1.6722 -1.5030
 4677TIP3   OH235589   5.011   0.842   7.149 -0.2644  0.2752 -0.3554
 4677TIP3    H135590   4.973   0.857   7.236 -1.4703 -0.1200 -0.7921
 4677TIP3    H235591   5.104   0.827   7.166 -0.4420  0.4344  0.8458
 4678TIP3   OH235592   5.283   2.293   0.622 -0.4586  0.1547 -0.0424
 4678TIP3    H135593   5.196   2.323   0.596 -1.1968 -0.4801  1.5659
 4678TIP3    H235594   5.320   2.365   0.673 -0.0070  0.4373 -0.7524
 4679TIP3   OH235595   5.214   6.918   0.968  0.1804 -0.3506 -0.3407
 4679TIP3    H135596   5.192   6.870   0.888 -1.1086 -2.6433  1.2740
 4679TIP3    H235597   5.230   6.850   1.033  0.6936  1.4403  1.5066
 4680TIP3   OH235598   5.142   4.297   6.115 -0.2032 -0.2451  0.0063
 4680TIP3    H135599   5.153   4.211   6.157  0.5101 -1.0902 -1.8386
 4680TIP3    H235600   5.231   4.331   6.104 -0.4953  1.0311  1.2211
 4681TIP3   OH235601   0.085   6.416   6.603  0.4478  0.0532  0.0433
 4681TIP3    H135602   0.011   6.449   6.552  1.0829 -0.1080 -1.0106
 4681TIP3    H235603   0.160   6.467   6.572  0.9842 -0.6095  0.2239
 4682TIP3   OH235604   3.704   3.623   7.453 -0.1296 -0.3045 -0.5714
 4682TIP3    H135605   3.777   3.566   7.478 -0.1837  0.3621  1.1974
 4682TIP3    H235606   3.637   3.563   7.422  1.5855 -0.8788 -3.6007
 4683TIP3   OH235607   6.425   5.596   2.097 -0.4528 -0.0470 -0.5702
 4683TIP3    H135608   6.355   5.559   2.043  0.2983  0.0482 -1.6292
 4683TIP3    H235609   6.488   5.632   2.034 -0.0503  0.9875  0.3859
 4684TIP3   OH235610   5.069   1.654   0.727 -0.7051  0.3769 -0.0570
 4684TIP3    H135611   5.061   1.567   0.688  0.0346  0.0310  0.5336
 4684TIP3    H235612   5.083   1.637   0.820  2.0977  0.9726 -0.2620
 4685TIP3   OH235613   6.063   0.536   0.985  0.2300  0.4209 -0.2118
 4685TIP3    H135614   6.021   0.602   1.041  0.7740  0.4909  0.1214
 4685TIP3    H235615   6.154   0.532   1.016  0.0453 -0.9788  0.2368
 4686TIP3   OH235616   4.312   0.270   1.423  0.0002 -0.0571 -0.1096
 4686TIP3    H135617   4.233   0.215   1.420 -0.2008  0.2424 -0.3288
 4686TIP3    H235618   4.322   0.292   1.515 -0.4830  0.3489 -0.1518
 4687TIP3   OH235619   4.114   0.106   7.265 -0.7135  0.0152 -0.4607
 4687TIP3    H135620   4.188   0.085   7.322  0.0906 -1.7591 -2.0566
 4687TIP3    H235621   4.095   0.024   7.219 -2.1890  1.0311 -1.7572
 4688TIP3   OH235622   4.497   3.310   1.770 -0.0191 -0.3431  0.2318
 4688TIP3    H135623   4.437   3.264   1.712  0.0022  0.3508 -0.3613
 4688TIP3    H235624   4.457   3.303   1.857 -0.5075 -0.6346 -0.0147
 4689TIP3   OH235625   4.079   3.746   6.562 -0.1339  0.2589  0.6024
 4689TIP3    H135626   4.044   3.697   6.488  0.2796 -0.1117  0.6482
 4689TIP3    H235627   4.170   3.763   6.539  0.1575 -0.3495  1.2649
 4690TIP3   OH235628   6.871   2.712   0.957  0.7259 -0.4557 -0.0790
 4690TIP3    H135629   6.843   2.802   0.972  1.1534 -0.4899  1.0266
 4690TIP3    H235630   6.790   2.662   0.953  0.4759 -0.0011 -0.9149
 4691TIP3   OH235631   6.281   0.842   0.452  0.1747  0.3155  0.2139
 4691TIP3    H135632   6.264   0.868   0.362 -1.1152  0.2741  0.4236
 4691TIP3    H235633   6.288   0.746   0.449 -0.1386  0.2928  0.1961
 4692TIP3   OH235634   1.041   1.950   7.730 -0.3695 -0.0327 -0.1211
 4692TIP3    H135635   0.986   1.873   7.712 -0.4032 -0.4706  1.7006
 4692TIP3    H235636   0.981   2.015   7.765 -0.2313  0.6419 -1.0984
 4693TIP3   OH235637   0.552   5.358   8.024 -0.1659  0.2658  0.3562
 4693TIP3    H135638   0.535   5.447   8.054 -1.6193  0.0248  0.3507
 4693TIP3    H235639   0.566   5.307   8.103 -0.0357  0.3763  0.4032
 4694TIP3   OH235640   5.194   6.103   0.995 -0.4292 -0.3280 -0.5079
 4694TIP3    H135641   5.271   6.068   0.951 -0.4212  1.1552 -1.7600
 4694TIP3    H235642   5.125   6.102   0.929 -1.4555 -1.3603  0.5083
 4695TIP3   OH235643   2.964   4.380   7.856  0.5064 -0.1356 -0.0546
 4695TIP3    H135644   3.051   4.342   7.867  0.2164 -0.4597  1.3931
 4695TIP3    H235645   2.921   4.365   7.941 -0.5524  1.0419 -0.3568
 4696TIP3   OH235646   6.414   0.891   8.225  0.0503  0.4440  0.1061
 4696TIP3    H135647   6.428   0.869   8.318 -0.2794 -0.9318 -0.1524
 4696TIP3    H235648   6.321   0.873   8.210 -0.0968  1.5022 -0.2819
 4697TIP3   OH235649   0.405   3.075   6.620 -0.0798  0.1121 -0.1168
 4697TIP3    H135650   0.413   3.138   6.691 -1.4380  0.1010  0.0715
 4697TIP3    H235651   0.370   3.125   6.546 -1.4535 -0.4384  0.1230
 4698TIP3   OH235652   6.129   2.919   6.599 -0.0441  0.1060 -0.4820
 4698TIP3    H135653   6.070   2.994   6.605  0.1037  0.2633 -0.9568
 4698TIP3    H235654   6.112   2.882   6.513 -2.1441 -2.1091  0.7526
 4699TIP3   OH235655   6.527   3.723   7.322 -0.2903  0.5710  0.1886
 4699TIP3    H135656   6.536   3.776   7.242 -0.5030  0.1140 -0.1447
 4699TIP3    H235657   6.585   3.764   7.385 -0.2621  1.0544 -0.1457
 4700TIP3   OH235658   0.103   2.733   1.771 -0.1924 -0.2845  0.0562
 4700TIP3    H135659   0.113   2.667   1.703 -0.7909  0.5501 -0.8734
 4700TIP3    H235660   0.193   2.758   1.794  0.0460  0.7616 -1.7997
 4701TIP3   OH235661   2.387   5.177   6.906  0.0255 -0.1201  0.0550
 4701TIP3    H135662   2.340   5.114   6.852 -0.8707 -1.5529  2.3635
 4701TIP3    H235663   2.320   5.213   6.965  1.3261 -0.3232  1.7256
 4702TIP3   OH235664   3.656   0.526   7.338  0.0026 -0.2499 -0.3396
 4702TIP3    H135665   3.731   0.585   7.331  1.7660 -2.4219 -0.8923
 4702TIP3    H235666   3.685   0.446   7.295 -2.3029 -1.5131  0.3281
 4703TIP3   OH235667   4.093   2.739   0.804  0.4523  0.0602 -0.1154
 4703TIP3    H135668   4.018   2.714   0.751 -0.3693 -1.2045  1.5316
 4703TIP3    H235669   4.164   2.753   0.741  0.1638 -3.5257 -1.4694
 4704TIP3   OH235670   2.988   3.949   6.982 -0.3673  0.0653 -0.7872
 4704TIP3    H135671   3.025   3.997   7.055  0.3002 -0.0680 -1.0306
 4704TIP3    H235672   3.062   3.902   6.943 -0.5023  0.9276 -2.1652
 4705TIP3   OH235673   6.354   1.218   0.246  0.2667 -0.1197  0.2245
 4705TIP3    H135674   6.272   1.170   0.249  0.4158 -0.5556 -1.5004
 4705TIP3    H235675   6.393   1.206   0.332 -1.0409 -0.6843  0.7535
 4706TIP3   OH235676   4.905   1.854   1.891  0.4475 -0.0410 -0.4977
 4706TIP3    H135677   4.941   1.866   1.979 -1.6425 -2.2900  0.7771
 4706TIP3    H235678   4.818   1.816   1.905  0.9386 -2.7195 -3.5415
 4707TIP3   OH235679   5.240   6.601   6.604 -0.3017  0.0176  0.1697
 4707TIP3    H135680   5.234   6.696   6.590 -1.2404 -0.0534  0.0645
 4707TIP3    H235681   5.262   6.566   6.518 -1.9464 -0.0288 -0.2675
 4708TIP3   OH235682   6.439   5.867   6.012 -0.0961  0.0472 -0.1777
 4708TIP3    H135683   6.365   5.920   6.041  0.7937  1.5041 -0.4459
 4708TIP3    H235684   6.408   5.825   5.932 -1.6297 -1.8169  1.2940
 4709TIP3   OH235685   0.867   0.106   2.036 -0.5444 -0.3480 -0.6825
 4709TIP3    H135686   0.944   0.133   2.086  0.3824  0.7691 -2.6131
 4709TIP3    H235687   0.798   0.097   2.102  1.1415 -1.1811  1.0778
 4710TIP3   OH235688   5.480   3.266   6.782  0.0269 -0.2197 -0.3399
 4710TIP3    H135689   5.569   3.252   6.750 -0.3752  0.0430 -1.6281
 4710TIP3    H235690   5.444   3.334   6.725 -1.4944 -1.3866 -0.8395
 4711TIP3   OH235691   3.081   1.054   8.089 -0.0458 -0.0164 -0.0506
 4711TIP3    H135692   3.068   0.991   8.160  0.9832 -1.6423 -1.2243
 4711TIP3    H235693   3.146   1.116   8.123 -4.2957  3.4815  2.8981
 4712TIP3   OH235694   6.555   3.448   0.438  0.4686 -0.0620  0.2689
 4712TIP3    H135695   6.633   3.437   0.384 -0.3331 -0.7585 -0.7821
 4712TIP3    H235696   6.546   3.543   0.449  2.0902  0.0034  1.3921
 4713TIP3   OH235697   4.272   1.733   7.452  0.0656 -0.5096  0.4120
 4713TIP3    H135698   4.317   1.813   7.480 -1.0858 -0.4794  2.3288
 4713TIP3    H235699   4.342   1.679   7.415  1.3267  0.3509  1.4131
 4714TIP3   OH235700   2.758   2.223   1.224  0.4006 -0.5247  0.0770
 4714TIP3    H135701   2.797   2.161   1.162  2.2071  1.1673 -0.5735
 4714TIP3    H235702   2.722   2.292   1.169  1.3890  0.6475  0.8621
 4715TIP3   OH235703   1.405   5.183   8.237 -0.3405  0.2593  0.1947
 4715TIP3    H135704   1.452   5.184   8.153  0.8986 -0.6718  0.8460
 4715TIP3    H235705   1.435   5.104   8.281 -1.9684  0.0280  0.9928
 4716TIP3   OH235706   0.329   5.707   1.081 -0.3243 -0.5636  0.4810
 4716TIP3    H135707   0.364   5.648   1.147  0.6836  1.2750  1.6833
 4716TIP3    H235708   0.394   5.776   1.073 -0.9826 -0.0895 -1.5944
 4717TIP3   OH235709   0.278   1.956   2.010  0.1494 -0.1708  0.1143
 4717TIP3    H135710   0.304   1.890   2.074 -1.0690 -0.2747  0.5224
 4717TIP3    H235711   0.196   1.923   1.973  1.3359 -0.6667 -2.3211
 4718TIP3   OH235712   2.015   0.682   0.710 -0.0894  0.3370 -0.3901
 4718TIP3    H135713   2.013   0.590   0.736 -0.8957  0.1751 -0.9743
 4718TIP3    H235714   1.939   0.721   0.751  1.7569  1.4680  2.2388
 4719TIP3   OH235715   1.841   3.137   0.003  0.5009  0.0106 -0.3850
 4719TIP3    H135716   1.806   3.053  -0.026  1.6497  0.0539 -2.0460
 4719TIP3    H235717   1.926   3.116   0.043  0.1730  0.2581  0.4778
 4720TIP3   OH235718   0.000   4.327   1.813 -0.2881 -0.1053  0.0829
 4720TIP3    H135719  -0.039   4.287   1.891  1.7369 -0.9022  0.7584
 4720TIP3    H235720   0.035   4.411   1.844  0.7268 -0.5272  0.1396
 4721TIP3   OH235721   3.724   4.175   8.129 -0.6172 -0.3929  0.2010
 4721TIP3    H135722   3.799   4.126   8.096 -0.5991  0.9653 -1.9540
 4721TIP3    H235723   3.652   4.112   8.132  0.0302 -1.1490  0.0304
 4722TIP3   OH235724   5.009   4.146   7.804 -0.3057 -0.1835 -0.1405
 4722TIP3    H135725   5.032   4.163   7.895  3.0047 -0.9010 -0.7298
 4722TIP3    H235726   4.917   4.117   7.808 -0.9760  1.8484  2.6425
 4723TIP3   OH235727   1.397   3.479   7.585 -0.2376  0.3792 -0.2148
 4723TIP3    H135728   1.460   3.407   7.577  1.9552  2.0946  0.5367
 4723TIP3    H235729   1.389   3.494   7.679  0.0663  1.6925 -0.3863
 4724TIP3   OH235730   3.994   0.633   7.761 -0.5681  0.2587  0.6172
 4724TIP3    H135731   3.952   0.627   7.675  4.6055 -0.5819 -2.2539
 4724TIP3    H235732   3.988   0.545   7.797 -0.2710 -0.1572 -0.3159
 4725TIP3   OH235733   0.813   6.917   6.680 -0.2693  0.1612 -0.1606
 4725TIP3    H135734   0.888   6.973   6.660 -0.2225 -0.1206 -0.7846
 4725TIP3    H235735   0.803   6.924   6.775  1.3775 -0.8572  0.1202
 4726TIP3   OH235736   5.872   1.819   1.273  0.3953  0.4256 -0.3792
 4726TIP3    H135737   5.892   1.892   1.331 -0.6391  0.0503  0.5094
 4726TIP3    H235738   5.843   1.859   1.192  0.3344  0.9920 -0.0824
 4727TIP3   OH235739   2.085   3.800   7.627 -0.2029 -0.1659 -0.4984
 4727TIP3    H135740   2.152   3.738   7.597  1.7253  1.2697  0.6471
 4727TIP3    H235741   2.043   3.757   7.701 -1.0205 -1.3341 -1.6039
 4728TIP3   OH235742   6.067   5.838   7.003 -0.3522 -0.1921 -0.0513
 4728TIP3    H135743   6.032   5.760   6.959  1.1327  0.0360 -1.7653
 4728TIP3    H235744   6.162   5.829   6.995 -0.1406  1.6492 -0.0273
 4729TIP3   OH235745   3.171   5.111   7.481 -0.2088 -1.0458  0.1940
 4729TIP3    H135746   3.260   5.077   7.491 -0.8322 -2.2106  2.6012
 4729TIP3    H235747   3.181   5.187   7.424  2.5351 -0.4487  1.2815
 4730TIP3   OH235748   0.083   5.384   7.546  0.0830 -0.6085 -0.1693
 4730TIP3    H135749   0.149   5.318   7.525  2.5664  2.1055 -1.6576
 4730TIP3    H235750   0.003   5.352   7.505  1.2748 -2.4923 -1.1643
 4731TIP3   OH235751   1.119   3.725   1.278  0.7103 -0.0477 -0.1907
 4731TIP3    H135752   1.148   3.696   1.364  0.2007  0.7016  0.2463
 4731TIP3    H235753   1.128   3.648   1.222  1.8895 -0.3053  0.3205
 4732TIP3   OH235754   4.547   5.696   6.690 -0.5733 -0.5629 -0.3472
 4732TIP3    H135755   4.588   5.747   6.759 -1.0805 -1.2001  0.4428
 4732TIP3    H235756   4.480   5.754   6.653  0.4595  0.1807 -1.0838
 4733TIP3   OH235757   1.304   1.527   0.169 -0.2527  0.3375 -0.5732
 4733TIP3    H135758   1.389   1.561   0.199 -1.2443  1.7766  0.7515
 4733TIP3    H235759   1.293   1.445   0.217  1.7706 -1.5842 -3.1434
 4734TIP3   OH235760   1.358   0.022   1.746  0.9480 -0.1545 -0.0062
 4734TIP3    H135761   1.305   0.101   1.735  0.1784 -0.6381  0.1856
 4734TIP3    H235762   1.432   0.035   1.686  1.0421  0.8892  0.3198
 4735TIP3   OH235763   2.177   3.558   7.538 -0.8440  0.2407 -0.2550
 4735TIP3    H135764   2.110   3.497   7.570 -0.2904 -0.9659 -1.3451
 4735TIP3    H235765   2.144   3.586   7.452  0.3289 -0.8810 -1.1046
 4736TIP3   OH235766   0.522   4.712   5.791  0.5678  0.1875  0.2370
 4736TIP3    H135767   0.573   4.731   5.870 -0.3946 -0.7175  1.1112
 4736TIP3    H235768   0.452   4.778   5.792  0.4988  0.1151  0.1858
 4737TIP3   OH235769   2.459   4.136   0.079  0.5414 -0.8236 -0.3665
 4737TIP3    H135770   2.365   4.140   0.062  0.2870 -2.7228  0.3107
 4737TIP3    H235771   2.480   4.222   0.117 -0.6485  0.0781 -1.6473
 4738TIP3   OH235772   1.334   5.891   1.131  0.3569  0.2154  0.0733
 4738TIP3    H135773   1.409   5.948   1.147  1.3720  0.0274 -3.2130
 4738TIP3    H235774   1.355   5.846   1.049 -2.5649 -1.2377 -0.0257
 4739TIP3   OH235775   6.316   6.979   0.241  0.8203  0.5866  0.0467
 4739TIP3    H135776   6.301   6.885   0.232 -1.8902  0.8445  0.9732
 4739TIP3    H235777   6.374   6.987   0.317 -1.9734 -0.2909  2.4378
 4740TIP3   OH235778   5.207   5.422   0.370  0.2087  0.7216  0.0532
 4740TIP3    H135779   5.300   5.444   0.360  0.0729  0.8066 -1.2226
 4740TIP3    H235780   5.166   5.503   0.401  0.6712  0.4501  1.4521
 4741TIP3   OH235781   5.649   5.219   7.751  0.3651  0.1606  0.5256
 4741TIP3    H135782   5.649   5.134   7.795  0.6109 -0.4966 -0.6797
 4741TIP3    H235783   5.676   5.199   7.661 -1.0863  1.2806 -0.2137
 4742TIP3   OH235784   3.572   2.150   7.023  0.1034  0.1563 -0.3418
 4742TIP3    H135785   3.542   2.106   7.102 -0.4817 -1.7861 -1.5656
 4742TIP3    H235786   3.664   2.171   7.040  0.3599 -1.4156  0.3912
 4743TIP3   OH235787   6.652   2.281   6.707  0.5343 -0.5181  0.0636
 4743TIP3    H135788   6.593   2.233   6.648 -0.6650 -0.5088  1.2142
 4743TIP3    H235789   6.704   2.213   6.750 -0.3619 -0.7297  0.8414
 4744TIP3   OH235790   0.387   6.172   0.554  0.5334  0.5116  0.2773
 4744TIP3    H135791   0.324   6.139   0.618 -0.3359  0.5732 -0.5197
 4744TIP3    H235792   0.391   6.103   0.487 -0.3749  1.4489 -0.7870
 4745TIP3   OH235793   5.842   0.535   6.725  0.5171  0.5736 -0.4744
 4745TIP3    H135794   5.923   0.586   6.722  1.2309  0.0696  3.6941
 4745TIP3    H235795   5.863   0.455   6.676  2.9262  0.1021  1.1334
 4746TIP3   OH235796   3.124   3.505   1.366 -0.0611 -0.9347  0.2692
 4746TIP3    H135797   3.152   3.438   1.429  2.2171  0.1329  0.4906
 4746TIP3    H235798   3.145   3.468   1.281 -3.1465 -2.3805 -0.0025
 4747TIP3   OH235799   5.927   5.445   6.137 -0.3333 -0.5091 -0.2163
 4747TIP3    H135800   5.832   5.457   6.134 -0.2298  1.0625  1.2739
 4747TIP3    H235801   5.963   5.526   6.102  0.4331  0.0017  1.6463
 4748TIP3   OH235802   3.654   6.549   6.817  0.0686 -0.5343  0.7289
 4748TIP3    H135803   3.590   6.586   6.757  0.5255 -1.2346 -0.2222
 4748TIP3    H235804   3.603   6.497   6.878 -0.3611 -0.2801  0.5869
 4749TIP3   OH235805   3.661   5.836   7.174 -0.3775 -0.4472 -0.7334
 4749TIP3    H135806   3.687   5.810   7.086  1.1998  0.6933 -0.6493
 4749TIP3    H235807   3.730   5.801   7.231 -1.5410 -1.4602  0.1332
 4750TIP3   OH235808   2.919   1.246   0.567 -0.8892  0.2109  0.4537
 4750TIP3    H135809   2.925   1.226   0.473  0.0249  3.3082 -0.2720
 4750TIP3    H235810   2.991   1.196   0.607  0.4853  0.9425 -0.9849
 4751TIP3   OH235811   5.569   6.145   7.929 -0.0808 -0.2663  0.4837
 4751TIP3    H135812   5.645   6.201   7.946 -0.4857  0.2096  0.7693
 4751TIP3    H235813   5.534   6.178   7.846  0.0822 -0.5546  0.2983
 4752TIP3   OH235814   3.612   1.523   0.185 -0.0469  0.2222  0.2404
 4752TIP3    H135815   3.646   1.498   0.099 -0.5375 -1.1562  0.4330
 4752TIP3    H235816   3.688   1.517   0.244  0.6338  2.5140 -0.2928
 4753TIP3   OH235817   0.082   4.481   7.399  0.4796 -0.0944  0.6131
 4753TIP3    H135818   0.081   4.577   7.407 -2.3794 -0.0152  0.3303
 4753TIP3    H235819   0.100   4.465   7.307  3.1584  0.0262  1.0449
 4754TIP3   OH235820   2.463   0.373   0.961  0.0825  0.2290  0.2978
 4754TIP3    H135821   2.555   0.393   0.982  0.3709 -2.3513  1.8329
 4754TIP3    H235822   2.449   0.415   0.876  2.3512  1.5496  0.4844
 4755TIP3   OH235823   1.935   2.423   0.593 -0.1620  0.1200 -0.3082
 4755TIP3    H135824   1.898   2.353   0.539  0.4332 -0.4376 -0.0126
 4755TIP3    H235825   1.983   2.478   0.532  0.0508 -0.1999 -0.4315
 4756TIP3   OH235826   1.873   6.473   1.441 -0.3117  0.6020 -0.0962
 4756TIP3    H135827   1.968   6.479   1.430 -0.1751  0.2708  0.7739
 4756TIP3    H235828   1.848   6.395   1.392  0.1540 -0.3776  1.1414
 4757TIP3   OH235829   4.500   0.751   6.075 -0.4519  0.2782  0.0008
 4757TIP3    H135830   4.505   0.846   6.077  1.8012  0.2295 -0.3594
 4757TIP3    H235831   4.543   0.726   5.993 -0.8975 -1.0562  0.1463
 4758TIP3   OH235832   0.096   5.366   5.149  0.1894  0.3366 -0.0183
 4758TIP3    H135833   0.078   5.294   5.089  1.0809 -2.5855  2.9453
 4758TIP3    H235834   0.010   5.394   5.179 -0.1515  0.2024 -0.8215
 4759TIP3   OH235835   2.128   5.038   7.270 -0.3794  0.3395 -0.0835
 4759TIP3    H135836   2.102   4.956   7.227 -0.7471  1.6768 -2.6257
 4759TIP3    H235837   2.140   5.014   7.362  2.2264 -3.1724 -1.1085
 4760TIP3   OH235838   3.429   2.437   1.674  0.2369 -0.2165  0.4882
 4760TIP3    H135839   3.433   2.412   1.582  0.7472 -1.4111  0.8129
 4760TIP3    H235840   3.497   2.503   1.685  0.0111  0.1042 -0.0348
 4761TIP3   OH235841   6.704   5.560   0.856  0.0173  0.7125 -0.3638
 4761TIP3    H135842   6.626   5.614   0.847  1.0222  2.4809  0.9103
 4761TIP3    H235843   6.759   5.583   0.781 -0.0371  0.6087 -0.4355
 4762TIP3   OH235844   1.060   3.336   1.673 -0.3493  0.0027 -0.2613
 4762TIP3    H135845   1.081   3.282   1.750 -0.1369 -0.6683 -0.7794
 4762TIP3    H235846   1.013   3.411   1.708 -0.8869 -0.6572  0.4498
 4763TIP3   OH235847   6.898   5.641   0.687 -0.1179  0.1006  0.3292
 4763TIP3    H135848   6.969   5.705   0.681  0.1799 -0.2174  0.4531
 4763TIP3    H235849   6.821   5.688   0.653  0.2186  0.3391 -0.1083
 4764TIP3   OH235850   4.012   4.913   2.116 -0.5085  0.6087 -0.3348
 4764TIP3    H135851   3.940   4.974   2.131 -0.1305  1.0078 -0.1260
 4764TIP3    H235852   3.969   4.828   2.102 -1.0282  0.8949 -0.4909
 4765TIP3   OH235853   5.616   4.812   1.487 -0.2437 -0.3571 -0.1322
 4765TIP3    H135854   5.559   4.755   1.537 -2.4865  0.9731 -0.9786
 4765TIP3    H235855   5.656   4.870   1.552  0.6629 -1.6872  0.5337
 4766TIP3   OH235856   4.333   2.854   2.136  0.0430 -0.1072  0.2321
 4766TIP3    H135857   4.417   2.873   2.177 -1.1849  3.4860  1.4946
 4766TIP3    H235858   4.345   2.883   2.045  0.2979 -0.0734  0.2742
 4767TIP3   OH235859   5.064   5.892   7.178  0.5924 -0.1412 -0.4038
 4767TIP3    H135860   5.027   5.969   7.133 -0.7220 -0.2314  0.4655
 4767TIP3    H235861   5.095   5.835   7.107 -0.4806  0.1834 -1.1593
 4768TIP3   OH235862   1.279   2.112   8.311 -0.3418  0.2438 -0.3165
 4768TIP3    H135863   1.208   2.082   8.367 -1.1895 -1.8829 -2.3806
 4768TIP3    H235864   1.337   2.036   8.301  1.5720  1.5513  0.2772
 4769TIP3   OH235865   2.530   5.563   1.502  0.1642  0.3425 -0.2359
 4769TIP3    H135866   2.533   5.532   1.411  2.4877 -0.7097  0.1165
 4769TIP3    H235867   2.582   5.644   1.501 -0.7128  0.9160 -0.0238
 4770TIP3   OH235868   4.255   3.234   1.222  0.2672  0.1912 -0.2075
 4770TIP3    H135869   4.343   3.269   1.222  1.0099 -1.4378 -2.7275
 4770TIP3    H235870   4.205   3.292   1.165  0.2910 -0.1559 -0.5844
 4771TIP3   OH235871   3.314   6.231   5.956 -0.2862  0.5454  0.1019
 4771TIP3    H135872   3.381   6.294   5.928 -0.1194  0.9611  1.3714
 4771TIP3    H235873   3.248   6.234   5.887  1.6791 -1.0287 -2.0042
 4772TIP3   OH235874   0.869   4.505   1.232 -0.2327  0.2966  0.1570
 4772TIP3    H135875   0.810   4.451   1.181  0.0811 -0.2321  0.3373
 4772TIP3    H235876   0.893   4.450   1.307 -0.9591  1.1800  1.0667
 4773TIP3   OH235877   2.250   5.048   6.693  0.6444 -0.1118 -0.3085
 4773TIP3    H135878   2.160   5.041   6.661  0.4878  1.5778 -0.3154
 4773TIP3    H235879   2.303   5.009   6.623 -0.0063 -0.3263 -0.6937
 4774TIP3   OH235880   6.574   4.960   6.122  0.3711  0.2949  0.0853
 4774TIP3    H135881   6.490   4.990   6.090  0.0353 -0.4890  0.2035
 4774TIP3    H235882   6.588   4.875   6.079  1.4593  0.7591 -0.5291
 4775TIP3   OH235883   3.887   3.126   0.258  0.0619  0.5320  0.2254
 4775TIP3    H135884   3.967   3.117   0.311 -0.5942 -2.1755  0.8748
 4775TIP3    H235885   3.919   3.129   0.168  0.9158 -1.1333  0.4377
 4776TIP3   OH235886   1.884   6.009   8.115 -0.1586 -0.3073 -0.1391
 4776TIP3    H135887   1.840   5.928   8.142 -0.3696  0.0254  0.5431
 4776TIP3    H235888   1.818   6.056   8.063 -0.2800 -0.2498  0.0662
 4777TIP3   OH235889   0.160   6.503   6.081 -0.0097  0.4921 -0.0094
 4777TIP3    H135890   0.106   6.579   6.106 -2.5492 -1.2009  0.0003
 4777TIP3    H235891   0.226   6.497   6.150 -0.9441  1.5652  1.0278
 4778TIP3   OH235892   0.780   5.578   0.899 -0.4118 -0.0324  0.2054
 4778TIP3    H135893   0.744   5.663   0.875  0.4626  0.7503  1.5567
 4778TIP3    H235894   0.856   5.567   0.842 -0.7597 -0.1101 -0.2514
 4779TIP3   OH235895   5.718   5.012   6.300 -0.1213  0.5187  0.3085
 4779TIP3    H135896   5.793   4.952   6.296  0.8382  1.7324 -0.7040
 4779TIP3    H235897   5.642   4.955   6.295  0.7515 -0.5855 -1.6680
 4780TIP3   OH235898   4.907   2.854   7.349  0.2588  0.3434  0.0718
 4780TIP3    H135899   4.842   2.923   7.362  0.3341  0.8556 -1.9055
 4780TIP3    H235900   4.987   2.888   7.388  0.1945  1.2235 -0.5375
 4781TIP3   OH235901   0.313   3.482   1.299  0.1683 -0.4157 -0.3520
 4781TIP3    H135902   0.365   3.549   1.256  0.0132 -0.3994 -0.5126
 4781TIP3    H235903   0.375   3.436   1.356  0.7129 -1.4152 -1.6914
 4782TIP3   OH235904   1.082   2.041   6.373 -0.0156 -0.5379 -0.2241
 4782TIP3    H135905   1.118   1.952   6.375 -0.2523 -0.6569 -0.9657
 4782TIP3    H235906   1.030   2.044   6.293 -0.7659 -0.0195  0.2695
 4783TIP3   OH235907   4.274   4.515   7.562 -0.1963  0.1867  0.6403
 4783TIP3    H135908   4.250   4.601   7.528 -1.8341 -0.2613  0.5581
 4783TIP3    H235909   4.230   4.453   7.504  0.4829 -0.6896  1.0398
 4784TIP3   OH235910   5.777   4.307   1.608  0.4865 -0.0069  0.3108
 4784TIP3    H135911   5.859   4.354   1.598 -0.4699  1.5973 -0.4447
 4784TIP3    H235912   5.723   4.364   1.663 -0.8729  0.0620 -1.0192
 4785TIP3   OH235913   4.959   6.268   1.298  0.1369  0.7124 -0.2968
 4785TIP3    H135914   5.000   6.182   1.283 -1.1729  0.1027 -0.5728
 4785TIP3    H235915   5.027   6.331   1.277  1.0164 -0.2609 -0.4740
 4786TIP3   OH235916   2.437   0.880   6.446  0.1401  0.1351 -0.1297
 4786TIP3    H135917   2.414   0.957   6.498  0.0478 -0.9856  1.5898
 4786TIP3    H235918   2.354   0.850   6.410 -0.0920 -0.0961  0.5789
 4787TIP3   OH235919   0.495   6.512   2.003 -0.2624 -0.5037 -0.3779
 4787TIP3    H135920   0.552   6.466   1.941 -0.2592 -0.5291 -0.3558
 4787TIP3    H235921   0.454   6.443   2.054 -0.4992 -0.4951 -0.5564
 4788TIP3   OH235922   1.756   4.094   6.565  0.2098 -0.4670 -0.1622
 4788TIP3    H135923   1.829   4.097   6.504 -0.0159 -0.6621 -0.4417
 4788TIP3    H235924   1.762   4.176   6.614  0.2847 -0.2272 -0.5698
 4789TIP3   OH235925   6.992   5.508   2.137 -0.0017 -0.1433  0.6307
 4789TIP3    H135926   7.080   5.525   2.102  0.5081 -1.2087  1.3314
 4789TIP3    H235927   6.965   5.591   2.176  0.6294  0.2433  0.2707
 4790TIP3   OH235928   6.305   2.777   7.609  0.4708  0.0079 -0.7661
 4790TIP3    H135929   6.232   2.717   7.597  1.7218 -1.6262 -0.5093
 4790TIP3    H235930   6.363   2.733   7.672  0.5219  2.3583  0.9905
 4791TIP3   OH235931   3.975   2.950   5.934  0.5802  0.3532 -0.3910
 4791TIP3    H135932   4.039   2.969   6.002 -1.0776  1.5699  0.9175
 4791TIP3    H235933   3.946   3.036   5.903 -0.5665 -0.1576 -0.7966
 4792TIP3   OH235934   3.446   2.347   6.849  0.1649  0.2265  0.2570
 4792TIP3    H135935   3.417   2.427   6.893  0.7107 -0.8054  2.6532
 4792TIP3    H235936   3.506   2.306   6.911  0.0771 -1.9489 -0.9992
 4793TIP3   OH235937   6.869   3.354   6.886  0.2842 -0.2876 -0.1394
 4793TIP3    H135938   6.912   3.270   6.867 -0.2384 -0.6937  0.4265
 4793TIP3    H235939   6.781   3.344   6.852  1.1541  1.2915 -3.1593
 4794TIP3   OH235940   6.158   2.945   2.269  0.0040  0.2500  0.6894
 4794TIP3    H135941   6.187   3.009   2.203 -2.2522 -2.3641 -3.3200
 4794TIP3    H235942   6.212   2.868   2.253 -0.5420 -0.4381  2.0230
 4795TIP3   OH235943   0.881   2.328   0.333  0.4302  0.0679  0.8860
 4795TIP3    H135944   0.974   2.348   0.331  0.6011 -0.5685  1.8718
 4795TIP3    H235945   0.869   2.263   0.264  0.5787  0.6373  0.3076
 4796TIP3   OH235946   1.867   0.676   0.447  0.0058  0.3968 -0.0145
 4796TIP3    H135947   1.932   0.646   0.511  0.5586  0.8240 -0.3709
 4796TIP3    H235948   1.784   0.669   0.493  0.3164 -0.0087  0.5004
 4797TIP3   OH235949   4.700   4.997   1.355 -0.3253  0.7401  0.4293
 4797TIP3    H135950   4.722   4.911   1.319 -0.9588  1.4866 -1.9041
 4797TIP3    H235951   4.763   5.057   1.315 -0.5343  1.5204  1.2404
 4798TIP3   OH235952   1.703   1.912   6.603 -0.1871  0.1882 -0.1276
 4798TIP3    H135953   1.640   1.984   6.596 -0.1710  0.6676  3.3190
 4798TIP3    H235954   1.768   1.932   6.536 -0.0779  3.5491  0.8016
 4799TIP3   OH235955   6.335   3.630   1.411  0.6196  0.1735  0.2963
 4799TIP3    H135956   6.309   3.566   1.345 -0.0135 -0.0633  0.7645
 4799TIP3    H235957   6.413   3.673   1.374 -0.3748  0.8385 -1.1184
 4800TIP3   OH235958   6.580   2.691   1.622  0.4371 -0.0516 -0.0791
 4800TIP3    H135959   6.660   2.717   1.666 -0.2548  0.2159  1.0419
 4800TIP3    H235960   6.541   2.624   1.679 -0.6584  0.5670 -0.0684
 4801TIP3   OH235961   2.805   2.429   8.072 -0.5667 -0.3766  0.0779
 4801TIP3    H135962   2.717   2.395   8.091 -0.4984 -0.4456  0.2651
 4801TIP3    H235963   2.862   2.386   8.135 -0.8907  2.3000  2.4147
 4802TIP3   OH235964   1.435   6.198   7.220 -0.0539  0.3244  0.1054
 4802TIP3    H135965   1.342   6.212   7.235 -0.2151 -0.9382  0.3737
 4802TIP3    H235966   1.478   6.255   7.284 -0.5698  2.5038 -1.3930
 4803TIP3   OH235967   6.917   6.932   0.435 -0.6178 -0.1287 -0.1060
 4803TIP3    H135968   6.968   6.851   0.436 -2.6289 -1.4696 -0.9982
 4803TIP3    H235969   6.938   6.974   0.519  0.2423 -1.6990  0.5171
 4804TIP3   OH235970   6.542   1.662   1.265  0.1407 -0.3067  0.3092
 4804TIP3    H135971   6.464   1.636   1.216 -1.5089  1.5774  1.7722
 4804TIP3    H235972   6.524   1.637   1.355  1.3886 -0.1177  0.6287
 4805TIP3   OH235973   1.210   4.562   0.952 -0.1806  0.1817 -0.3411
 4805TIP3    H135974   1.271   4.555   1.026 -1.8309  0.0419  1.0933
 4805TIP3    H235975   1.249   4.625   0.893  2.5790 -1.7460 -0.7698
 4806TIP3   OH235976   6.596   3.308   1.284  0.0709 -0.0875 -0.1615
 4806TIP3    H135977   6.588   3.350   1.370  0.8493  0.5743 -0.3947
 4806TIP3    H235978   6.691   3.304   1.269  0.0449 -2.1078 -0.0792
 4807TIP3   OH235979   2.217   3.366   1.748 -0.1001 -0.2041  0.2745
 4807TIP3    H135980   2.218   3.448   1.797  1.2245 -0.6529  1.0631
 4807TIP3    H235981   2.251   3.390   1.662  1.3667 -0.0947  0.8559
 4808TIP3   OH235982   0.215   0.028   7.668  0.2334  0.2048 -0.2526
 4808TIP3    H135983   0.238  -0.007   7.581  1.1222  2.1784 -0.8693
 4808TIP3    H235984   0.276  -0.016   7.728 -1.2735 -2.1987 -0.3433
 4809TIP3   OH235985   0.446   3.736   0.566  0.0868 -0.0759 -0.0707
 4809TIP3    H135986   0.354   3.723   0.544  0.0734 -1.1523  0.5110
 4809TIP3    H235987   0.450   3.824   0.603 -0.5218  0.3509 -0.9920
 4810TIP3   OH235988   6.732   0.781   7.651  0.4006 -0.2015  0.2672
 4810TIP3    H135989   6.739   0.731   7.733 -0.0644 -0.0468  0.4014
 4810TIP3    H235990   6.688   0.721   7.591 -2.6787  0.9467  1.2114
 4811TIP3   OH235991   6.687   6.260   6.924  0.1052 -0.1463 -0.3767
 4811TIP3    H135992   6.777   6.243   6.953 -0.4724 -0.4027  1.3589
 4811TIP3    H235993   6.658   6.335   6.976 -0.5171  0.2892 -1.3226
 4812TIP3   OH235994   4.345   3.865   6.247 -0.2517 -0.5380 -0.1051
 4812TIP3    H135995   4.339   3.961   6.249 -0.1309 -0.5295 -0.1623
 4812TIP3    H235996   4.406   3.843   6.317 -2.2049 -0.7321  1.6048
 4813TIP3   OH235997   3.670   0.273   6.827 -0.3035 -0.2157  0.2417
 4813TIP3    H135998   3.690   0.304   6.739 -2.1878 -2.5419 -1.1413
 4813TIP3    H235999   3.754   0.244   6.862  0.4111  0.3428 -0.9525
 4814TIP3   OH236000   2.009   0.111   1.081  0.3824 -0.2028 -0.3724
 4814TIP3    H136001   2.096   0.073   1.095  1.2713  1.2300 -1.7102
 4814TIP3    H236002   1.967   0.107   1.167  2.1637  0.0438  0.5543
 4815TIP3   OH236003   2.278   4.807   0.539 -0.6807  0.3657  0.2872
 4815TIP3    H136004   2.346   4.811   0.607  0.1812 -0.0578 -0.5359
 4815TIP3    H236005   2.251   4.716   0.538  0.5775 -0.0330 -1.1303
 4816TIP3   OH236006   2.041   2.109   7.021  1.0440 -0.0419  0.5681
 4816TIP3    H136007   2.059   2.130   6.929  1.2828  0.6809  0.7739
 4816TIP3    H236008   2.121   2.066   7.051  0.9143 -0.4011  0.4009
 4817TIP3   OH236009   6.044   2.445   0.454  0.1689  0.6046  0.6086
 4817TIP3    H136010   6.122   2.405   0.493  0.5413  0.6774 -0.0434
 4817TIP3    H236011   5.992   2.370   0.422 -0.0755  0.5517  1.1318
 4818TIP3   OH236012   5.113   5.507   7.386 -0.3868  0.0671 -0.3574
 4818TIP3    H136013   5.204   5.492   7.412 -0.7654  0.5385  1.3266
 4818TIP3    H236014   5.064   5.438   7.430 -0.9116  0.0724 -0.9166
 4819TIP3   OH236015   2.624   2.457   0.798 -0.2034 -0.7294 -0.0381
 4819TIP3    H136016   2.570   2.531   0.828  1.6371  0.0289  1.6547
 4819TIP3    H236017   2.565   2.406   0.742 -2.5480  0.2593  1.3380
 4820TIP3   OH236018   3.633   4.367   7.290  0.6249  0.3048  0.4165
 4820TIP3    H136019   3.587   4.448   7.314  1.6679  1.4820 -1.3620
 4820TIP3    H236020   3.569   4.318   7.239  0.8980  1.4029 -1.0474
 4821TIP3   OH236021   4.111   6.863   7.141  0.2295  0.9223  0.6526
 4821TIP3    H136022   4.171   6.833   7.072 -0.6191  0.8198 -0.0488
 4821TIP3    H236023   4.113   6.793   7.206 -0.0706  0.3383  0.0441
 4822TIP3   OH236024   6.867   4.712   6.518 -1.2028 -0.0815  0.8492
 4822TIP3    H136025   6.851   4.759   6.436  0.1284  0.6306  0.9601
 4822TIP3    H236026   6.809   4.754   6.581 -0.8814  0.6446  0.6778
 4823TIP3   OH236027   6.044   3.969   6.454 -0.6289  0.3516  0.6052
 4823TIP3    H136028   6.097   3.915   6.396 -1.0493 -1.0806  1.5285
 4823TIP3    H236029   6.103   4.040   6.480  0.6562 -0.8718  1.1380
 4824TIP3   OH236030   4.188   3.341   6.599 -0.3117  0.1087 -0.2008
 4824TIP3    H136031   4.213   3.343   6.691  0.1401  1.4704 -0.3399
 4824TIP3    H236032   4.261   3.296   6.556 -1.7984 -3.1864  0.4257
 4825TIP3   OH236033   3.580   2.243   1.092  0.2298  0.1995  0.3883
 4825TIP3    H136034   3.524   2.192   1.151 -0.2135  2.6365  2.2410
 4825TIP3    H236035   3.631   2.177   1.044  0.9750 -1.9928  3.8427
 4826TIP3   OH236036   6.342   3.104   6.183  0.4758  0.7058  0.0996
 4826TIP3    H136037   6.318   3.015   6.209  2.3838 -0.3026 -1.3599
 4826TIP3    H236038   6.281   3.160   6.232 -1.5747 -1.4090  0.1624
 4827TIP3   OH236039   0.252   3.351   1.782 -0.5165 -0.0082 -0.1958
 4827TIP3    H136040   0.242   3.446   1.790  0.3064  0.2301 -1.6617
 4827TIP3    H236041   0.164   3.319   1.766 -0.4675  0.9053 -2.8261
 4828TIP3   OH236042   3.171   0.215   6.882 -0.2321  0.0361 -0.1129
 4828TIP3    H136043   3.135   0.126   6.880 -1.8906  0.6651 -0.0788
 4828TIP3    H236044   3.265   0.203   6.882 -0.3899 -1.7090 -1.7424
 4829TIP3   OH236045   1.844   6.299   1.247  0.0830  0.3070  0.9330
 4829TIP3    H136046   1.792   6.356   1.191 -0.8223 -1.2680  0.1072
 4829TIP3    H236047   1.934   6.310   1.216 -0.0104  1.6047  1.0925
 4830TIP3   OH236048   1.345   3.344   7.037 -0.0481  0.5765 -0.0253
 4830TIP3    H136049   1.326   3.371   6.947 -1.3035  2.6966  0.7957
 4830TIP3    H236050   1.263   3.358   7.084  0.1870 -1.7562  1.2319
 4831TIP3   OH236051   3.984   1.311   7.279  0.1682  0.5688  0.1755
 4831TIP3    H136052   3.897   1.325   7.243  0.0825  0.8548  0.4938
 4831TIP3    H236053   4.037   1.284   7.204 -0.0057  1.1635 -0.1621
 4832TIP3   OH236054   1.682   1.925   8.028  0.0044 -0.0015  0.2843
 4832TIP3    H136055   1.674   1.918   8.123  0.9079 -1.0106  0.3136
 4832TIP3    H236056   1.677   1.835   7.997 -1.6232  0.4137 -0.7794
 4833TIP3   OH236057   2.582   2.514   6.618  0.0462 -0.0029  0.0987
 4833TIP3    H136058   2.609   2.448   6.553  0.2135 -0.1771  0.3445
 4833TIP3    H236059   2.608   2.598   6.579  1.3909 -0.1977  0.5440
 4834TIP3   OH236060   1.617   0.823   0.042  0.2321  0.2290  0.3159
 4834TIP3    H136061   1.623   0.805   0.136 -0.0138 -1.3605  0.0519
 4834TIP3    H236062   1.705   0.851   0.017  0.3965  0.2741  0.9361
 4835TIP3   OH236063   4.709   6.448   0.176 -0.0942 -0.2809 -0.7646
 4835TIP3    H136064   4.780   6.469   0.237 -1.0411  1.5245 -0.2408
 4835TIP3    H236065   4.709   6.352   0.172 -0.0230 -0.4765  2.0913
 4836TIP3   OH236066   0.577   3.756   5.715  0.1328  0.0152  0.3752
 4836TIP3    H136067   0.530   3.677   5.742  0.3439  0.1777  1.2711
 4836TIP3    H236068   0.564   3.817   5.788  0.1004  0.7532 -0.2424
 4837TIP3   OH236069   5.608   2.294   0.240  0.1191 -0.3806 -0.3649
 4837TIP3    H136070   5.686   2.342   0.211  0.1681 -0.2588 -0.0305
 4837TIP3    H236071   5.642   2.210   0.270  0.1204 -0.3332 -0.2333
 4838TIP3   OH236072   3.741   1.221   6.608 -0.5587 -0.7689 -0.2161
 4838TIP3    H136073   3.799   1.290   6.577  0.6188 -2.2812 -1.5336
 4838TIP3    H236074   3.669   1.267   6.651  0.1253  1.2626 -1.1579
 4839TIP3   OH236075   6.440   1.993   1.911 -0.3140 -0.6591  0.0043
 4839TIP3    H136076   6.358   1.961   1.947 -0.3258  0.2625  0.8496
 4839TIP3    H236077   6.436   2.088   1.923  1.6285 -0.7167  1.7944
 4840TIP3   OH236078   6.139   1.172   7.280 -0.4336 -0.4983 -0.5309
 4840TIP3    H136079   6.154   1.111   7.352 -0.7660  0.8841  0.7603
 4840TIP3    H236080   6.226   1.207   7.260 -0.6651  1.1844  1.1513
 4841TIP3   OH236081   3.267   5.874   8.244 -0.2516  0.1059  0.0145
 4841TIP3    H136082   3.268   5.963   8.209 -0.9504  0.5277  1.0078
 4841TIP3    H236083   3.339   5.829   8.199  1.8348  1.9104  1.3170
 4842TIP3   OH236084   0.368   0.781   0.762 -0.2126 -0.1904 -0.2670
 4842TIP3    H136085   0.325   0.855   0.719  0.1818 -0.5283 -1.2643
 4842TIP3    H236086   0.317   0.768   0.843 -0.1222  1.3188  0.0586
 4843TIP3   OH236087   1.764   4.314   0.594 -0.2936  0.8009 -0.2791
 4843TIP3    H136088   1.784   4.239   0.650  0.1920  1.1607  0.0398
 4843TIP3    H236089   1.812   4.297   0.513 -2.5830 -0.7212 -1.4304
 4844TIP3   OH236090   5.079   0.279   0.731  0.3311 -0.0279  0.0223
 4844TIP3    H136091   5.161   0.313   0.768 -0.6094  0.3135  1.8873
 4844TIP3    H236092   5.076   0.188   0.758 -0.2339  0.1455  0.5439
 4845TIP3   OH236093   6.694   4.049   1.234 -0.1694 -0.0788 -0.3322
 4845TIP3    H136094   6.674   4.101   1.156  0.7902  0.5230 -0.1875
 4845TIP3    H236095   6.781   4.013   1.218 -0.6648 -1.3456 -0.2604
 4846TIP3   OH236096   6.678   3.074   0.624 -0.1138 -0.5276 -0.5047
 4846TIP3    H136097   6.611   3.032   0.570 -0.9743  0.4801 -0.2414
 4846TIP3    H236098   6.640   3.078   0.711  0.3407 -0.0661 -0.3207
 4847TIP3   OH236099   3.996   6.263   0.588 -0.3034  0.0821 -0.0643
 4847TIP3    H136100   4.082   6.281   0.624 -0.0862 -0.8922 -0.0802
 4847TIP3    H236101   3.980   6.170   0.607 -0.3030 -0.3987 -2.1708
 4848TIP3   OH236102   6.713   4.155   1.699  0.3296  0.5252  0.5353
 4848TIP3    H136103   6.674   4.135   1.784 -1.2298  0.1734 -0.2170
 4848TIP3    H236104   6.729   4.249   1.701 -0.3730  0.6452  0.9660
 4849TIP3   OH236105   4.715   0.693   1.192 -0.7455 -0.2392  0.0209
 4849TIP3    H136106   4.738   0.604   1.220 -2.1152 -0.4041  0.7472
 4849TIP3    H236107   4.796   0.742   1.199 -0.4571 -0.8980  1.8943
 4850TIP3   OH236108   4.158   1.908   8.219  0.5268 -0.5136 -0.5452
 4850TIP3    H136109   4.112   1.910   8.135 -0.3626  0.3282 -0.0595
 4850TIP3    H236110   4.186   1.998   8.232 -2.5084  0.2613  1.7124
 4851TIP3   OH236111   0.716   4.932   0.621 -0.5974 -0.3494 -0.1500
 4851TIP3    H136112   0.769   4.854   0.604  0.6474  0.4643 -0.1552
 4851TIP3    H236113   0.775   4.992   0.667 -1.1430  1.0370 -1.1504
 4852TIP3   OH236114   1.481   4.142   2.407  0.2842 -0.4063  0.1478
 4852TIP3    H136115   1.540   4.067   2.398  1.1462  0.2247  0.3465
 4852TIP3    H236116   1.409   4.123   2.347  0.5927 -1.2890  0.0357
 4853TIP3   OH236117   3.634   4.839   7.093  0.5433  0.4087  0.4213
 4853TIP3    H136118   3.590   4.920   7.120  2.1418  1.7659 -0.8126
 4853TIP3    H236119   3.653   4.794   7.174 -2.3465  0.1095  1.0573
 4854TIP3   OH236120   0.395   3.888   0.983 -0.2778 -0.2279 -0.4618
 4854TIP3    H136121   0.440   3.804   0.980  0.4967  0.1660  0.0369
 4854TIP3    H236122   0.308   3.867   1.018  0.7596 -0.4743  2.1936
 4855TIP3   OH236123   1.348   4.305   0.050 -0.3112  0.4434  0.2169
 4855TIP3    H136124   1.345   4.215   0.083  0.7731  0.2689 -0.1081
 4855TIP3    H236125   1.396   4.354   0.117  0.3721  0.4580 -0.2733
 4856TIP3   OH236126   5.842   6.639   1.111 -0.3087 -0.4174  0.3259
 4856TIP3    H136127   5.891   6.578   1.055  0.7102 -0.0045  0.7286
 4856TIP3    H236128   5.751   6.627   1.086  0.0087 -1.1106 -0.5710
 4857TIP3   OH236129   3.378   3.691   0.568 -0.0785  0.4407  0.6909
 4857TIP3    H136130   3.469   3.675   0.591 -0.7647 -3.6286  1.3093
 4857TIP3    H236131   3.379   3.707   0.474  1.1092 -3.1413 -0.0419
 4858TIP3   OH236132   2.944   2.689   1.778 -0.5038 -0.0099  0.1339
 4858TIP3    H136133   2.909   2.640   1.853  0.4495 -2.0078 -0.6392
 4858TIP3    H236134   2.887   2.765   1.771 -2.5442 -1.3475  1.0153
 4859TIP3   OH236135   2.981   0.260   8.195  0.1353  0.0310 -0.1461
 4859TIP3    H136136   2.891   0.247   8.226  0.6096  0.7233  1.6080
 4859TIP3    H236137   2.971   0.314   8.116 -0.9942 -0.2710 -0.2328
 4860TIP3   OH236138   6.057   6.625   7.196 -0.2480  0.3981 -0.3500
 4860TIP3    H136139   6.098   6.633   7.110  0.2007 -1.0728 -0.3017
 4860TIP3    H236140   5.978   6.574   7.181 -0.3127  0.3675  0.0728
 4861TIP3   OH236141   2.894   5.125   2.213  0.3167  0.0361  0.1392
 4861TIP3    H136142   2.905   5.221   2.216 -0.5301  0.1529 -0.1122
 4861TIP3    H236143   2.966   5.095   2.158  2.2243  0.2201  2.4142
 4862TIP3   OH236144   2.344   0.717   1.723  0.3390  0.1604  0.9836
 4862TIP3    H136145   2.352   0.682   1.812  1.9164  1.7193  1.5147
 4862TIP3    H236146   2.252   0.740   1.714 -0.3481 -2.2082  1.3054
 4863TIP3   OH236147   1.271   6.475   7.988 -0.1912  0.1235  0.4452
 4863TIP3    H136148   1.363   6.490   7.966 -1.1088  1.4178 -3.1786
 4863TIP3    H236149   1.254   6.385   7.961 -0.2766  0.3118 -0.1426
 4864TIP3   OH236150   0.550   3.312   6.981  1.1146  0.1948  0.1208
 4864TIP3    H136151   0.564   3.297   6.887  1.7562  1.4252  0.0065
 4864TIP3    H236152   0.591   3.396   6.998  1.2668 -0.1566  1.5806
 4865TIP3   OH236153   1.977   0.024   2.633  0.2616  0.2248 -0.2038
 4865TIP3    H136154   1.886   0.013   2.662  0.4464 -1.1846 -0.1034
 4865TIP3    H236155   1.975   0.103   2.578 -0.6318  1.3505  1.3582
 4866TIP3   OH236156   3.958   6.419   7.669 -0.4026 -0.0887  0.0275
 4866TIP3    H136157   4.022   6.458   7.727  1.4814 -0.0108 -1.9902
 4866TIP3    H236158   3.934   6.336   7.711  0.4547  0.2249  1.1600
 4867TIP3   OH236159   3.707   0.754   8.211 -0.0032  0.2457  0.0652
 4867TIP3    H136160   3.739   0.714   8.130  0.0098 -1.1597  0.7406
 4867TIP3    H236161   3.656   0.830   8.182 -0.4308 -0.5276 -1.2989
 4868TIP3   OH236162   1.165   5.380   6.214 -0.1813 -0.4163  0.3844
 4868TIP3    H136163   1.082   5.419   6.241 -1.8768 -2.5326 -1.4481
 4868TIP3    H236164   1.177   5.408   6.124  1.9458  1.0839  1.0653
 4869TIP3   OH236165   2.812   6.603   0.197 -0.6343 -0.3849 -0.0541
 4869TIP3    H136166   2.878   6.672   0.201 -0.6771 -0.1315 -2.4771
 4869TIP3    H236167   2.729   6.649   0.216 -0.5976  0.1679 -1.1331
 4870TIP3   OH236168   1.939   2.946   1.578 -0.3170  0.1951 -0.2865
 4870TIP3    H136169   2.009   2.890   1.612 -0.5774 -0.2978 -0.5515
 4870TIP3    H236170   1.968   3.035   1.598  0.5927  0.0212 -0.7772
 4871TIP3   OH236171   1.230   0.059   0.987  0.0296  0.0241  0.4678
 4871TIP3    H136172   1.278  -0.021   0.965 -0.5685 -0.7939  2.0163
 4871TIP3    H236173   1.158   0.029   1.042 -0.7787  1.5314  0.2737
 4872TIP3   OH236174   1.359   6.379   7.458 -0.1082 -0.5520 -0.1157
 4872TIP3    H136175   1.411   6.304   7.489  1.1570  0.5907  0.6590
 4872TIP3    H236176   1.376   6.448   7.523 -0.7054  0.6094 -1.1544
 4873TIP3   OH236177   6.238   0.566   0.497 -0.2138  0.5366 -0.1385
 4873TIP3    H136178   6.177   0.602   0.561 -0.2052  0.6847 -0.2129
 4873TIP3    H236179   6.257   0.478   0.529 -0.3580  0.5401 -0.0402
 4874TIP3   OH236180   0.507   1.577   0.625  0.7249 -0.5483  0.0270
 4874TIP3    H136181   0.536   1.611   0.710 -0.3281 -1.2351  0.6884
 4874TIP3    H236182   0.491   1.484   0.640 -0.9875 -0.3844 -0.4766
 4875TIP3   OH236183   0.612   6.981   7.702  0.1011  0.1738  0.1757
 4875TIP3    H136184   0.554   6.959   7.775 -0.5167 -0.3992 -0.4733
 4875TIP3    H236185   0.697   6.946   7.728  1.0972  3.7982  2.6298
 4876TIP3   OH236186   3.953   5.773   8.303  0.1668  0.1221  0.4772
 4876TIP3    H136187   3.963   5.859   8.344 -2.6123  1.3978 -1.1936
 4876TIP3    H236188   4.041   5.747   8.278  0.9745  3.3210 -0.4603
 4877TIP3   OH236189   3.620   3.984   2.152 -0.2435 -0.3522  0.0368
 4877TIP3    H136190   3.712   3.959   2.156 -0.1907 -0.2394 -0.5198
 4877TIP3    H236191   3.585   3.957   2.237  0.0157 -1.5231 -0.2105
 4878TIP3   OH236192   2.649   1.833   0.719  0.2133 -0.3014 -0.1679
 4878TIP3    H136193   2.739   1.813   0.746  0.3314 -0.4234 -0.6382
 4878TIP3    H236194   2.654   1.838   0.623 -0.4662 -1.2127 -0.2629
 4879TIP3   OH236195   3.716   4.536   1.179 -0.1981 -0.4801  0.5166
 4879TIP3    H136196   3.685   4.460   1.129 -1.4324  0.3036  0.0357
 4879TIP3    H236197   3.678   4.611   1.134  3.3879  0.7255 -0.8056
 4880TIP3   OH236198   3.611   4.435   0.614 -0.1861  0.3440  0.1656
 4880TIP3    H136199   3.575   4.349   0.637 -0.4486 -0.2607 -2.2221
 4880TIP3    H236200   3.544   4.475   0.559  2.1399 -0.3819 -3.5669
 4881TIP3   OH236201   6.991   6.566   1.190 -0.0240 -0.6057  0.0027
 4881TIP3    H136202   6.994   6.574   1.095 -0.7286 -2.6343 -0.2404
 4881TIP3    H236203   6.898   6.577   1.212  0.1406 -0.1108  0.4748
 4882TIP3   OH236204   1.268   4.486   7.113 -0.4178  0.1921 -0.1380
 4882TIP3    H136205   1.305   4.414   7.164 -1.1250 -0.3959 -0.4331
 4882TIP3    H236206   1.316   4.485   7.031  0.8162  1.2273  0.5440
 4883TIP3   OH236207   3.859   5.473   7.321 -0.0065  0.1311  0.5013
 4883TIP3    H136208   3.930   5.473   7.385  0.8536 -1.7246 -0.3475
 4883TIP3    H236209   3.904   5.469   7.236 -1.0659 -1.5264 -0.0402
 4884TIP3   OH236210   2.016   2.668   7.548 -0.1303  0.6133  0.0643
 4884TIP3    H136211   2.070   2.628   7.480  0.3526  0.2625  0.6366
 4884TIP3    H236212   1.957   2.599   7.576 -0.3444  0.7636 -0.0167
 4885TIP3   OH236213   1.989   6.498   7.479 -0.6311  0.0055 -0.1542
 4885TIP3    H136214   2.019   6.449   7.402  2.4667 -0.2250  1.0285
 4885TIP3    H236215   1.968   6.585   7.445  1.4957  0.1787 -1.2269
 4886TIP3   OH236216   2.339   2.709   6.855 -0.1739  0.0187  0.2471
 4886TIP3    H136217   2.327   2.646   6.784  0.4662  0.1425  0.0170
 4886TIP3    H236218   2.273   2.686   6.920  0.7274 -1.6019  0.6498
 4887TIP3   OH236219   6.114   3.749   0.393  0.1740 -0.5761 -0.1129
 4887TIP3    H136220   6.088   3.824   0.339  0.2387 -0.9205 -0.6284
 4887TIP3    H236221   6.090   3.774   0.482 -0.0892 -0.0683 -0.3243
 4888TIP3   OH236222   4.207   3.479   0.465  0.1023 -0.4039  0.0755
 4888TIP3    H136223   4.186   3.459   0.557  0.8020 -2.1245 -0.1017
 4888TIP3    H236224   4.178   3.402   0.417 -0.0861  0.4107 -1.1474
 4889TIP3   OH236225   1.884   6.708   0.345  0.1406  0.2953  0.8039
 4889TIP3    H136226   1.790   6.712   0.362  0.2764  1.8982  1.2719
 4889TIP3    H236227   1.898   6.766   0.270  0.9685  1.4551  1.8164
 4890TIP3   OH236228   4.384   3.692   8.232 -0.0092  0.2838 -0.0386
 4890TIP3    H136229   4.317   3.626   8.244  1.2573 -1.1234 -0.4094
 4890TIP3    H236230   4.457   3.663   8.287  0.9611  0.7931 -1.0181
 4891TIP3   OH236231   5.649   1.498   7.641  0.3041 -0.1744 -0.2389
 4891TIP3    H136232   5.636   1.593   7.631  1.3541  0.1954  1.5456
 4891TIP3    H236233   5.621   1.479   7.730  1.6909 -1.2406 -0.0051
 4892TIP3   OH236234   0.715   1.692   6.787  0.6762 -0.8353  0.3364
 4892TIP3    H136235   0.768   1.723   6.860 -0.1911 -1.2319  1.1612
 4892TIP3    H236236   0.659   1.767   6.765  1.1870 -0.5962 -0.1734
 4893TIP3   OH236237   5.349   3.613   6.998  0.4535 -0.2631 -0.0944
 4893TIP3    H136238   5.372   3.705   6.984  0.2156 -0.3947 -1.5625
 4893TIP3    H236239   5.326   3.581   6.911 -0.4913 -1.4429  0.5565
 4894TIP3   OH236240   4.966   6.607   1.492  0.1371 -0.3499  0.2641
 4894TIP3    H136241   5.048   6.648   1.464  0.1465 -0.7417 -0.2741
 4894TIP3    H236242   4.898   6.653   1.442  0.2645 -2.0321 -1.5383
 4895TIP3   OH236243   3.869   2.623   0.266 -0.3623  0.1435 -0.5057
 4895TIP3    H136244   3.827   2.549   0.221 -1.5506 -0.5560  1.6089
 4895TIP3    H236245   3.958   2.593   0.284  0.0189  0.3046 -2.0169
 4896TIP3   OH236246   2.757   5.987   1.736 -0.6079 -0.9712  0.6288
 4896TIP3    H136247   2.739   6.078   1.759  1.0870 -0.6414  0.7854
 4896TIP3    H236248   2.845   5.971   1.769 -1.2440 -2.9939  1.4799
 4897TIP3   OH236249   5.619   4.649   7.781 -0.1776 -0.2931 -0.0502
 4897TIP3    H136250   5.558   4.669   7.711  0.7878  2.2990 -0.2860
 4897TIP3    H236251   5.705   4.670   7.745  0.5308 -0.8172  1.2534
 4898TIP3   OH236252   1.821   5.601   1.079 -0.1332  0.4664  0.6384
 4898TIP3    H136253   1.727   5.584   1.067  0.0565  0.2626 -0.6671
 4898TIP3    H236254   1.828   5.628   1.171 -1.0385 -2.4533  1.6791
 4899TIP3   OH236255   3.310   6.936   0.054 -0.0328 -0.5210 -0.5401
 4899TIP3    H136256   3.242   6.989   0.094 -0.1409 -1.1169  0.1004
 4899TIP3    H236257   3.388   6.953   0.107 -0.0180 -0.8221 -0.4577
 4900TIP3   OH236258   2.617   0.652   1.876  0.0748 -0.2778  0.4302
 4900TIP3    H136259   2.596   0.649   1.783 -0.9386  0.5370  0.6125
 4900TIP3    H236260   2.544   0.607   1.919  2.4212 -4.3459  0.6337
 4901TIP3   OH236261   2.851   5.822   6.721 -0.0691 -0.6084 -1.1944
 4901TIP3    H136262   2.879   5.912   6.740  0.7710 -1.1029  0.0421
 4901TIP3    H236263   2.840   5.782   6.808  0.1816 -1.8870 -1.7324
 4902TIP3   OH236264   1.222   4.829   6.880 -0.1140 -0.7748 -0.1783
 4902TIP3    H136265   1.304   4.829   6.830  0.4811  1.6536  0.6524
 4902TIP3    H236266   1.250   4.815   6.970 -1.0821 -4.0227 -0.2676
 4903TIP3   OH236267   6.562   5.767   1.102 -0.1334  0.3555 -0.2825
 4903TIP3    H136268   6.468   5.782   1.091  0.1847  2.0551 -0.9558
 4903TIP3    H236269   6.603   5.823   1.036  1.3860 -0.0275  0.2970
 4904TIP3   OH236270   2.507   2.955   1.343 -0.0618 -0.0441 -0.4463
 4904TIP3    H136271   2.476   2.879   1.293  1.3965 -0.4584 -0.7583
 4904TIP3    H236272   2.431   2.982   1.394 -0.6847 -1.5851 -0.4906
 4905TIP3   OH236273   4.265   6.647   1.573 -0.0846  0.1292  0.6340
 4905TIP3    H136274   4.358   6.630   1.560 -0.2895 -0.0907 -0.7740
 4905TIP3    H236275   4.244   6.714   1.508 -0.8090  0.5170  1.2625
 4906TIP3   OH236276   0.007   4.631   7.854  0.5519 -0.3416 -0.4546
 4906TIP3    H136277   0.093   4.660   7.823  0.5845  2.3164  1.7402
 4906TIP3    H236278   0.020   4.611   7.947 -1.0572 -0.4769 -0.2316
 4907TIP3   OH236279   3.883   3.153   1.024  0.4250 -0.2863  0.6926
 4907TIP3    H136280   3.846   3.137   0.938  1.2362  0.2169  0.2341
 4907TIP3    H236281   3.932   3.073   1.045 -0.4769 -0.7503  1.0785
 4908TIP3   OH236282   5.161   6.548   0.435 -0.0375  0.4627  0.5269
 4908TIP3    H136283   5.196   6.595   0.360  3.4454 -0.0577  1.6449
 4908TIP3    H236284   5.223   6.565   0.506 -1.8682 -1.0089  2.6383
 4909TIP3   OH236285   3.398   4.583   1.391 -0.4665 -0.6247 -0.4958
 4909TIP3    H136286   3.442   4.515   1.443 -0.6344  0.2740  0.8452
 4909TIP3    H236287   3.361   4.535   1.317  0.4240 -1.8187 -0.2029
 4910TIP3   OH236288   6.406   6.059   0.804 -0.2510 -0.0615 -0.0998
 4910TIP3    H136289   6.392   6.100   0.888  1.4004  1.2609 -0.4161
 4910TIP3    H236290   6.362   5.974   0.811  1.3767 -0.8056  2.7641
 4911TIP3   OH236291   2.462   3.306   1.299  0.1469  0.0919  0.5002
 4911TIP3    H136292   2.416   3.260   1.229 -0.7686  2.7720 -0.8284
 4911TIP3    H236293   2.394   3.327   1.363  0.7035 -1.0356  1.4968
 4912TIP3   OH236294   3.822   3.287   7.129 -0.1711 -0.2094 -0.1061
 4912TIP3    H136295   3.734   3.252   7.141  0.2260 -0.7060  1.7481
 4912TIP3    H236296   3.830   3.300   7.035 -3.0397  2.0652 -0.1683
 4913TIP3   OH236297   5.210   1.545   8.091 -0.3254 -0.5835 -0.0863
 4913TIP3    H136298   5.131   1.499   8.062 -1.1209  0.3625  0.4836
 4913TIP3    H236299   5.194   1.637   8.068  0.4739 -0.3320  0.3103
 4914TIP3   OH236300   6.173   1.407   0.324 -0.1576  0.2179  0.2953
 4914TIP3    H136301   6.181   1.321   0.281 -1.1135  0.5057 -0.5158
 4914TIP3    H236302   6.185   1.470   0.253  0.7661  0.7737  0.9295
 4915TIP3   OH236303   1.523   1.995   1.226  0.1719  0.4046 -0.1139
 4915TIP3    H136304   1.465   1.942   1.172 -0.7550  0.7813  0.5067
 4915TIP3    H236305   1.607   1.949   1.223 -0.3164 -0.4731 -0.5111
 4916TIP3   OH236306   3.654   2.604   1.222 -0.3319  0.2667  0.2468
 4916TIP3    H136307   3.659   2.696   1.245  0.7439  0.0295  1.0523
 4916TIP3    H236308   3.562   2.589   1.200 -0.4875  1.5477 -0.0270
 4917TIP3   OH236309   3.936   4.748   7.918 -0.0912  0.4322  0.0401
 4917TIP3    H136310   3.849   4.744   7.959 -0.4061  1.9776 -0.3792
 4917TIP3    H236311   3.997   4.725   7.988 -0.8121 -0.1676  0.4806
 4918TIP3   OH236312   6.932   3.658   7.824  0.0021 -0.1625  0.0787
 4918TIP3    H136313   6.975   3.727   7.773 -0.6982  0.1378 -0.1102
 4918TIP3    H236314   6.942   3.686   7.915 -0.6678  0.4255 -0.0203
 4919TIP3   OH236315   6.432   0.729   0.933  0.5846  0.0675 -0.3938
 4919TIP3    H136316   6.374   0.803   0.918 -0.6233 -0.3317  1.8839
 4919TIP3    H236317   6.419   0.706   1.025  1.3708 -2.5808 -0.8555
 4920TIP3   OH236318   5.215   1.896   2.013  0.0654  0.0311  0.2981
 4920TIP3    H136319   5.151   1.872   2.081  1.7057  0.6160  2.1478
 4920TIP3    H236320   5.282   1.945   2.060  0.2290  2.3931 -2.1551
 4921TIP3   OH236321   5.778   2.759   1.340  0.3259  0.1030 -0.5183
 4921TIP3    H136322   5.873   2.756   1.334  0.7264  2.2242  2.6454
 4921TIP3    H236323   5.751   2.813   1.265  1.8740  1.5242 -0.1042
 4922TIP3   OH236324   5.596   3.755   8.003  0.1093  0.5414 -0.2407
 4922TIP3    H136325   5.673   3.714   7.963 -0.2416  0.0594 -0.4199
 4922TIP3    H236326   5.581   3.705   8.083  0.7106  1.4019  0.4332
 4923TIP3   OH236327   1.135   4.045   0.980 -0.2008 -0.3425 -0.2322
 4923TIP3    H136328   1.110   3.989   0.907  0.3082 -2.1797  0.9379
 4923TIP3    H236329   1.065   4.111   0.985 -0.9590 -1.0228 -1.4771
 4924TIP3   OH236330   4.770   5.554   0.694 -0.2172 -0.0236  0.7541
 4924TIP3    H136331   4.829   5.565   0.768 -0.6557 -1.4296  1.3322
 4924TIP3    H236332   4.739   5.643   0.675 -0.0520  0.3719  2.2018
 4925TIP3   OH236333   1.320   4.074   6.255  0.1106 -0.8340 -0.1298
 4925TIP3    H136334   1.270   4.112   6.183 -0.9928 -2.5799 -0.3312
 4925TIP3    H236335   1.313   4.138   6.326 -0.0469  0.2108 -1.0568
 4926TIP3   OH236336   0.251   3.398   0.155  0.1604 -0.0608  0.7818
 4926TIP3    H136337   0.226   3.490   0.145  0.4748 -0.1507 -1.1957
 4926TIP3    H236338   0.169   3.353   0.172 -0.8096  0.0375 -2.8035
 4927TIP3   OH236339   5.098   6.884   0.328 -0.5412  0.2038  0.0926
 4927TIP3    H136340   5.144   6.941   0.266 -0.6268 -0.6080 -0.7334
 4927TIP3    H236341   5.044   6.828   0.273 -1.9012  0.5853  1.0152
 4928TIP3   OH236342   5.276   5.214   7.563  0.2029  0.6193  0.4352
 4928TIP3    H136343   5.276   5.298   7.516 -0.8277  0.0290 -0.6681
 4928TIP3    H236344   5.364   5.178   7.548 -0.0805  0.4789 -1.0024
 4929TIP3   OH236345   5.607   4.920   7.414 -0.2338 -0.1870  0.4823
 4929TIP3    H136346   5.576   5.010   7.412 -0.4912 -0.2625  0.9854
 4929TIP3    H236347   5.614   4.899   7.507  2.2499  0.1507  0.4585
 4930TIP3   OH236348   0.888   3.718   1.099 -0.4160  0.2050 -0.1399
 4930TIP3    H136349   0.979   3.739   1.119 -1.1221  3.4360  0.2791
 4930TIP3    H236350   0.859   3.664   1.173  1.0665 -0.7313 -0.1995
 4931TIP3   OH236351   0.677   6.842   8.113 -0.3209  0.3344 -0.0063
 4931TIP3    H136352   0.683   6.879   8.201  1.2940 -0.8993  0.4333
 4931TIP3    H236353   0.767   6.831   8.084 -0.7929 -0.7296 -1.1979
 4932TIP3   OH236354   0.460   4.916   0.796 -0.1926 -0.3122  0.0153
 4932TIP3    H136355   0.533   4.924   0.735  0.0130 -0.1329  0.2839
 4932TIP3    H236356   0.435   5.007   0.815  0.9499 -0.3082  1.6470
 4933TIP3   OH236357   0.171   5.998   1.510 -0.2918  0.1983  0.2809
 4933TIP3    H136358   0.202   6.087   1.495  1.0447  0.3975  3.4450
 4933TIP3    H236359   0.077   6.007   1.523 -0.4108  0.8883 -0.9546
 4934TIP3   OH236360   0.201   2.613   0.639 -0.8080  0.4030 -1.1636
 4934TIP3    H136361   0.183   2.599   0.546 -1.8477 -1.5623 -0.7201
 4934TIP3    H236362   0.181   2.529   0.680 -0.0279  1.1259  0.8038
 4935TIP3   OH236363   0.215   2.809   1.120  0.4359 -0.1727  0.0693
 4935TIP3    H136364   0.249   2.779   1.205 -4.0268 -2.0684  1.4731
 4935TIP3    H236365   0.214   2.730   1.065 -0.4599  0.0864 -0.3087
 4936TIP3   OH236366   2.304   0.984   6.680 -0.2063 -0.3643 -0.0014
 4936TIP3    H136367   2.227   0.928   6.688 -0.7191  0.2066 -0.8781
 4936TIP3    H236368   2.269   1.073   6.679  0.2731 -0.1557 -2.4360
 4937TIP3   OH236369   5.378   0.937   6.758  0.3597 -0.2236  0.2088
 4937TIP3    H136370   5.332   0.855   6.776  1.2159 -0.7088  0.2629
 4937TIP3    H236371   5.356   0.958   6.668 -1.0539  0.2949  0.6403
 4938TIP3   OH236372   4.955   0.221   6.523 -0.3138 -0.5934  0.0160
 4938TIP3    H136373   4.940   0.168   6.445 -2.5078 -0.2588  0.1524
 4938TIP3    H236374   4.867   0.245   6.553  0.5241  0.4016  1.8238
 4939TIP3   OH236375   5.402   5.111   7.965 -0.7802  0.3694  0.1131
 4939TIP3    H136376   5.488   5.069   7.961 -0.3467  1.1545  0.7628
 4939TIP3    H236377   5.341   5.040   7.981 -0.4371 -0.3962 -1.7307
 4940TIP3   OH236378   3.183   1.863   1.878 -0.1607  0.1251  0.4362
 4940TIP3    H136379   3.212   1.772   1.876 -1.8354 -0.4627  1.1482
 4940TIP3    H236380   3.127   1.869   1.955 -1.2286  1.3850 -0.3919
 4941TIP3   OH236381   2.605   6.381   6.538 -0.2843  0.3393  0.1962
 4941TIP3    H136382   2.607   6.438   6.461 -0.0885 -0.9342 -0.7650
 4941TIP3    H236383   2.579   6.296   6.505  0.5028 -0.4184  1.4222
 4942TIP3   OH236384   1.906   5.648   6.906  0.3370  0.8372 -0.3012
 4942TIP3    H136385   1.838   5.581   6.900  0.4377  0.8091 -1.5461
 4942TIP3    H236386   1.970   5.614   6.968  0.6169 -0.4536 -1.2563
 4943TIP3   OH236387   0.644   1.282   7.241 -0.0844  0.6964 -0.1784
 4943TIP3    H136388   0.594   1.289   7.323 -0.5680  2.4272 -0.5719
 4943TIP3    H236389   0.603   1.210   7.194 -1.9005  1.7035 -0.2325
 4944TIP3   OH236390   1.949   5.754   0.829  0.0403  0.1308 -0.4710
 4944TIP3    H136391   1.913   5.690   0.891 -1.3600  0.8118 -0.5501
 4944TIP3    H236392   2.013   5.704   0.778 -0.2580 -0.9437  0.1745
 4945TIP3   OH236393   0.137   3.102   7.120  0.2969  0.3937  0.6596
 4945TIP3    H136394   0.103   3.052   7.046 -2.0289  1.3309  0.9829
 4945TIP3    H236395   0.189   3.171   7.080  0.0756  0.1677 -0.0428
 4946TIP3   OH236396   2.114   1.124   0.339 -0.8658 -0.3639 -0.1870
 4946TIP3    H136397   2.209   1.117   0.325 -1.1573 -3.3972 -1.4039
 4946TIP3    H236398   2.094   1.053   0.399 -2.6021 -1.0142 -1.4559
 4947TIP3   OH236399   6.784   1.565   5.966 -0.8054  0.3325  0.1291
 4947TIP3    H136400   6.841   1.624   5.918 -1.2525  1.3333  0.7971
 4947TIP3    H236401   6.696   1.585   5.934 -1.0037  0.3132  0.6524
 4948TIP3   OH236402   2.169   4.777   0.269 -0.0647  0.8860 -0.0541
 4948TIP3    H136403   2.194   4.774   0.361 -0.7532 -1.1723  0.1247
 4948TIP3    H236404   2.247   4.808   0.224  1.0610 -0.2651  1.0118
 4949TIP3   OH236405   0.133   4.350   6.701  0.4922 -0.6583  0.2346
 4949TIP3    H136406   0.218   4.394   6.696  1.2287 -2.0962 -0.6767
 4949TIP3    H236407   0.075   4.415   6.740  0.8635  2.1386 -3.3567
 4950TIP3   OH236408   1.429   5.796   0.454 -0.1342  0.6065 -0.2965
 4950TIP3    H136409   1.422   5.886   0.485 -0.9053  0.8858 -1.2185
 4950TIP3    H236410   1.523   5.784   0.436  0.9264 -0.5026  4.5828
 4951TIP3   OH236411   3.725   0.340   8.143 -0.1201  0.4113 -0.2819
 4951TIP3    H136412   3.654   0.362   8.083 -0.2326  0.6773 -0.0560
 4951TIP3    H236413   3.778   0.276   8.096 -1.6969 -1.4767  0.3391
 4952TIP3   OH236414   5.390   3.968   7.330  0.5399  0.7078 -0.3378
 4952TIP3    H136415   5.305   3.994   7.296 -0.6422 -1.0104  1.0923
 4952TIP3    H236416   5.449   4.038   7.304 -1.5307  2.5388 -0.4107
 4953TIP3   OH236417   5.809   3.937   1.252  0.6019  0.3105  0.0699
 4953TIP3    H136418   5.779   3.979   1.333  2.4416  2.0703 -0.0489
 4953TIP3    H236419   5.812   3.844   1.273 -1.8380  0.3776  1.0044
 4954TIP3   OH236420   4.837   5.452   7.885 -0.4218  0.1481 -0.2793
 4954TIP3    H136421   4.911   5.478   7.830 -0.9700  0.6510 -0.8015
 4954TIP3    H236422   4.789   5.388   7.833 -1.0851  0.8144 -0.5236
 4955TIP3   OH236423   3.254   4.399   7.709  0.4039  0.6048  0.3548
 4955TIP3    H136424   3.323   4.450   7.666  1.0860  1.4752  2.4038
 4955TIP3    H236425   3.278   4.399   7.801 -0.6577 -1.7789  0.6914
 4956TIP3   OH236426   2.541   1.558   2.097  0.6149  0.4590  0.1127
 4956TIP3    H136427   2.614   1.563   2.035  0.2691  1.2626 -0.2399
 4956TIP3    H236428   2.540   1.643   2.140 -0.1352  0.4727  0.0814
 4957TIP3   OH236429   2.361   3.883   0.683 -0.4919  0.3666  0.0592
 4957TIP3    H136430   2.454   3.889   0.666 -0.3770  1.4517  0.9467
 4957TIP3    H236431   2.340   3.790   0.674  1.0150 -0.1498  1.5233
 4958TIP3   OH236432   1.239   6.895   0.472  0.0452  0.0228 -0.1423
 4958TIP3    H136433   1.242   6.833   0.399 -2.2124 -0.3157 -0.0319
 4958TIP3    H236434   1.205   6.844   0.545 -1.0440  1.1415  0.1825
 4959TIP3   OH236435   2.559   6.978   6.418  0.2502 -0.5765  0.4307
 4959TIP3    H136436   2.589   7.033   6.345 -1.1421  1.1133  1.0483
 4959TIP3    H236437   2.557   6.889   6.381  2.3142 -0.2295 -0.6943
 4960TIP3   OH236438   3.725   0.988   0.603 -0.1269  0.0466  0.5805
 4960TIP3    H136439   3.760   1.066   0.560 -0.3200 -0.1807  0.0089
 4960TIP3    H236440   3.794   0.922   0.595 -1.1238 -0.7953 -1.6505
 4961TIP3   OH236441   3.865   2.276   7.150  0.6422 -0.3734  0.1518
 4961TIP3    H136442   3.889   2.203   7.207  0.3998  0.2610  1.0902
 4961TIP3    H236443   3.918   2.349   7.181  0.4637 -0.0046 -0.4048
 4962TIP3   OH236444   4.608   2.384   1.541 -0.1987  0.1377 -0.0193
 4962TIP3    H136445   4.664   2.419   1.471  1.9735  0.0383  1.5563
 4962TIP3    H236446   4.570   2.304   1.504 -0.2383  0.8060 -1.5271
 4963TIP3   OH236447   6.067   2.194   7.340  0.0181  0.5958  0.5239
 4963TIP3    H136448   6.034   2.113   7.302 -1.0788  1.6997 -1.0554
 4963TIP3    H236449   6.152   2.208   7.297  1.3579 -0.8374  2.5359
 4964TIP3   OH236450   0.015   0.155   1.616 -0.0265  0.1253  0.4717
 4964TIP3    H136451  -0.075   0.139   1.646  0.2315  1.2960  2.0029
 4964TIP3    H236452   0.020   0.250   1.605  1.2437  0.1774  1.2526
 4965TIP3   OH236453   1.890   2.383   0.980  0.0460 -0.5914  0.0466
 4965TIP3    H136454   1.842   2.374   1.062  1.0008  1.7864  0.9554
 4965TIP3    H236455   1.961   2.443   1.000  0.6829 -0.4165 -2.3811
 4966TIP3   OH236456   0.589   5.109   7.876  0.4782  0.4102 -0.1744
 4966TIP3    H136457   0.536   5.181   7.911 -0.8158 -0.4478 -0.3106
 4966TIP3    H236458   0.679   5.140   7.884 -0.0906  2.5532 -1.3349
 4967TIP3   OH236459   2.097   4.069   7.232 -0.3878  0.0079 -0.0675
 4967TIP3    H136460   2.055   4.052   7.317 -0.9832 -0.8722 -0.5230
 4967TIP3    H236461   2.191   4.070   7.252 -0.5817  1.9752  0.9644
 4968TIP3   OH236462   4.208   5.904   1.525  0.1485 -0.1026  0.4418
 4968TIP3    H136463   4.271   5.879   1.593 -0.7613  1.0342  1.7637
 4968TIP3    H236464   4.256   5.896   1.443  1.0292 -2.4078  1.0900
 4969TIP3   OH236465   6.500   5.651   1.341 -0.7566  0.1321 -0.0331
 4969TIP3    H136466   6.521   5.701   1.262 -0.7363 -1.7997 -1.3434
 4969TIP3    H236467   6.536   5.702   1.413 -0.6971  1.9215 -1.2830
 4970TIP3   OH236468   6.251   6.774   6.714  0.2598  0.4790  0.3371
 4970TIP3    H136469   6.294   6.692   6.688  1.7164  0.5547  2.2675
 4970TIP3    H236470   6.281   6.838   6.649  0.2279 -0.2103 -0.3781
 4971TIP3   OH236471   1.981   0.860   7.240 -0.3614  0.5994  0.3027
 4971TIP3    H136472   1.925   0.832   7.312  0.0660  1.4630  0.9984
 4971TIP3    H236473   2.031   0.934   7.277 -0.5182  1.4013 -1.0365
 4972TIP3   OH236474   4.944   5.756   1.098  0.3119 -0.3592 -0.0112
 4972TIP3    H136475   4.916   5.721   1.014  0.7106 -0.4384 -0.1118
 4972TIP3    H236476   4.866   5.751   1.154 -0.5031  1.4169 -0.9023
 4973TIP3   OH236477   6.081   4.182   6.778  0.6072 -0.1903  1.0437
 4973TIP3    H136478   5.998   4.175   6.731  0.1918 -1.2384  1.8912
 4973TIP3    H236479   6.148   4.185   6.710 -0.1738  2.5098  0.2636
 4974TIP3   OH236480   4.019   0.507   0.517  0.3882 -0.2724  0.2608
 4974TIP3    H136481   3.950   0.490   0.454 -0.6929  2.9721  0.3833
 4974TIP3    H236482   3.985   0.473   0.600 -0.9237  0.8434  0.2231
 4975TIP3   OH236483   6.241   6.748   0.490  0.4696  0.0553 -0.3426
 4975TIP3    H136484   6.236   6.653   0.484  2.4416 -0.0963 -0.3114
 4975TIP3    H236485   6.150   6.777   0.491 -0.1840 -1.8583  0.3409
 4976TIP3   OH236486   0.706   5.983   1.295  0.2625  0.2398  0.2634
 4976TIP3    H136487   0.613   5.975   1.274  0.1356  0.8065  0.6055
 4976TIP3    H236488   0.715   5.940   1.380  0.4854 -0.6224 -0.1824
 4977TIP3   OH236489   2.795   5.658   0.326  0.1583 -0.2544 -0.8750
 4977TIP3    H136490   2.790   5.562   0.332 -1.5493 -0.3600 -3.0000
 4977TIP3    H236491   2.724   5.689   0.382  0.8690 -0.1876  0.0128
 4978TIP3   OH236492   1.581   5.986   7.312 -0.3320  0.6997  0.8146
 4978TIP3    H136493   1.661   6.034   7.333  0.1005  0.2213  0.3062
 4978TIP3    H236494   1.520   6.053   7.283  0.5280  0.8896 -0.6665
 4979TIP3   OH236495   6.837   0.434   0.666 -0.3811 -0.1031  1.0144
 4979TIP3    H136496   6.916   0.389   0.636 -1.1384 -0.9729  0.2915
 4979TIP3    H236497   6.848   0.441   0.760  1.2284  1.0999  0.7918
 4980TIP3   OH236498   2.328   0.086   0.855  0.1608 -0.4910  0.4087
 4980TIP3    H136499   2.383   0.156   0.890 -1.0237 -0.3015  1.9973
 4980TIP3    H236500   2.323   0.104   0.761  0.5869  1.0618  0.6570
 4981TIP3   OH236501   0.418   5.153   0.560  0.2352  0.1972  0.0121
 4981TIP3    H136502   0.391   5.130   0.649  0.3764 -1.4253 -0.3283
 4981TIP3    H236503   0.336   5.159   0.511  0.1997  0.2863  0.0830
 4982TIP3   OH236504   6.731   6.819   7.363  0.4068 -0.0395 -0.1481
 4982TIP3    H136505   6.796   6.774   7.309  1.5742  0.0314  1.1496
 4982TIP3    H236506   6.725   6.906   7.324  0.2249 -0.4167 -0.9780
 4983TIP3   OH236507   5.491   5.528   8.273  0.3165  0.6714 -0.5968
 4983TIP3    H136508   5.457   5.455   8.220 -0.9881  0.1763  0.8502
 4983TIP3    H236509   5.465   5.606   8.224  0.2068  0.2006 -1.3067
 4984TIP3   OH236510   6.835   1.858   0.767 -0.3173  0.1840 -0.4411
 4984TIP3    H136511   6.877   1.944   0.759 -0.6420  0.4120  0.2050
 4984TIP3    H236512   6.820   1.831   0.677  1.2388  0.0718 -0.6862
 4985TIP3   OH236513   1.657   6.090   0.855  0.1925 -0.1837 -0.5757
 4985TIP3    H136514   1.735   6.128   0.815  0.3991  0.5683  0.5046
 4985TIP3    H236515   1.689   6.038   0.928 -0.3537  0.7919  0.3795
 4986TIP3   OH236516   6.903   4.162   2.023 -0.1183  0.0108  0.8151
 4986TIP3    H136517   6.819   4.114   2.018 -0.2389  0.1757  1.2720
 4986TIP3    H236518   6.962   4.102   2.068  0.2005 -0.3651 -0.0646
 4987TIP3   OH236519   5.211   0.099   6.314 -0.3024 -0.0109  0.3654
 4987TIP3    H136520   5.119   0.072   6.321  0.0491 -0.9656  2.2019
 4987TIP3    H236521   5.208   0.191   6.290 -1.6527 -0.7531 -2.6866
 4988TIP3   OH236522   5.859   4.248   7.070  0.2251 -0.3077  0.2047
 4988TIP3    H136523   5.829   4.299   7.146  1.5303  0.4050  0.2859
 4988TIP3    H236524   5.954   4.244   7.081  0.7576  1.8540 -2.5664
 4989TIP3   OH236525   5.222   0.023   0.541 -0.3671 -0.4350 -0.0445
 4989TIP3    H136526   5.190  -0.055   0.495 -0.7170 -0.5746  0.4314
 4989TIP3    H236527   5.266  -0.011   0.618 -0.3946 -0.1688  0.0896
 4990TIP3   OH236528   1.192   1.049   2.147  0.0920 -0.5068  0.2709
 4990TIP3    H136529   1.189   0.978   2.082  0.8241 -0.0947 -0.2270
 4990TIP3    H236530   1.280   1.041   2.186  0.2498  0.2500  0.0709
 4991TIP3   OH236531   2.390   0.026   2.175 -0.2742  0.1579  0.1407
 4991TIP3    H136532   2.391   0.117   2.146  1.2992  0.4322  0.8960
 4991TIP3    H236533   2.351   0.029   2.262 -0.8874  0.0031 -0.1292
 4992TIP3   OH236534   6.541   5.848   8.233 -0.1259  0.0722 -0.0749
 4992TIP3    H136535   6.525   5.920   8.172 -2.0908 -0.0192  0.2668
 4992TIP3    H236536   6.460   5.798   8.232 -0.2623  0.1289  2.6782
 4993TIP3   OH236537   4.120   0.981   8.036 -0.2583  0.7274 -0.4020
 4993TIP3    H136538   4.048   1.018   7.985 -1.7691  1.4315  2.0637
 4993TIP3    H236539   4.115   0.887   8.020 -1.7055  0.7686 -0.3589
 4994TIP3   OH236540   2.877   3.238   6.422  0.4112  0.2575 -0.6657
 4994TIP3    H136541   2.823   3.209   6.348  2.7602  0.5138 -2.5838
 4994TIP3    H236542   2.916   3.158   6.457  0.0615  0.2490 -0.2707
 4995TIP3   OH236543   2.135   4.881   1.787 -0.2984  0.7285 -0.1258
 4995TIP3    H136544   2.051   4.835   1.782  0.0648  0.0433 -0.0679
 4995TIP3    H236545   2.135   4.939   1.711 -0.7450  0.5973 -0.2318
 4996TIP3   OH236546   0.488   4.569   0.624 -0.5245  0.2890 -0.0172
 4996TIP3    H136547   0.554   4.524   0.572 -1.4378 -0.9122 -0.1667
 4996TIP3    H236548   0.538   4.609   0.696  0.3755 -0.4283 -0.2232
 4997TIP3   OH236549   3.512   2.404   7.119 -0.4417 -0.1392 -0.9930
 4997TIP3    H136550   3.577   2.431   7.184 -0.2703  1.5566 -1.8111
 4997TIP3    H236551   3.438   2.373   7.171 -0.7614  2.2163  0.0944
 4998TIP3   OH236552   2.694   5.331   7.062  0.4543  0.1651  0.4621
 4998TIP3    H136553   2.609   5.321   7.105  0.7361  0.4146  1.1016
 4998TIP3    H236554   2.689   5.276   6.984 -0.1569 -0.1234  0.6992
 4999TIP3   OH236555   5.871   4.392   6.823  0.2073 -0.2670 -0.4418
 4999TIP3    H136556   5.859   4.357   6.912  0.9755 -0.0200 -0.2379
 4999TIP3    H236557   5.848   4.319   6.766 -1.5629 -0.0472 -0.0820
 5000TIP3   OH236558   0.292   1.718   2.175 -0.0883 -0.4528 -0.6094
 5000TIP3    H136559   0.266   1.681   2.260 -0.5505  0.7629 -0.2069
 5000TIP3    H236560   0.234   1.675   2.112  1.0769 -2.2968 -0.5153
 5001TIP3   OH236561   1.200   4.093   8.151  0.3558 -0.3386  0.5204
 5001TIP3    H136562   1.271   4.032   8.169 -0.7073 -1.3025  1.7346
 5001TIP3    H236563   1.163   4.112   8.238 -0.5171  0.5605 -0.0241
 5002TIP3   OH236564   1.917   1.158   8.120 -0.4817 -0.4337 -0.2094
 5002TIP3    H136565   2.012   1.151   8.131 -0.1800 -0.7571 -2.4928
 5002TIP3    H236566   1.893   1.237   8.168  0.2613 -2.3435  3.6821
 5003TIP3   OH236567   6.090   5.804   8.360  0.2025 -0.2421 -0.3040
 5003TIP3    H136568   6.029   5.842   8.297 -0.7557 -2.2669 -0.6751
 5003TIP3    H236569   6.107   5.874   8.423 -0.6354  1.0956 -1.5176
 5004TIP3   OH236570   3.339   5.716   6.791  0.3673 -0.3619  0.6423
 5004TIP3    H136571   3.359   5.803   6.755 -0.0011  0.3377  2.0417
 5004TIP3    H236572   3.418   5.664   6.773  0.4835  0.1641 -0.4703
 5005TIP3   OH236573   3.153   2.112   2.413 -0.4681  0.1580 -0.2918
 5005TIP3    H136574   3.108   2.036   2.450  0.3259 -0.9387 -1.4969
 5005TIP3    H236575   3.108   2.129   2.331 -0.4502  0.8204 -0.1730
 5006TIP3   OH236576   4.691   0.158   0.313 -0.2535 -0.1986  0.3955
 5006TIP3    H136577   4.629   0.093   0.346 -0.4127 -0.3386 -0.1758
 5006TIP3    H236578   4.643   0.241   0.318 -0.1144 -0.1414  0.9461
 5007TIP3   OH236579   4.889   0.754   6.225 -0.2763  0.0779 -0.9645
 5007TIP3    H136580   4.859   0.805   6.150  0.1953 -0.9971 -1.9218
 5007TIP3    H236581   4.823   0.769   6.292  0.3698  2.7573 -0.8041
 5008TIP3   OH236582   5.839   3.375   8.166 -0.4440  0.0694  0.4020
 5008TIP3    H136583   5.806   3.433   8.235 -2.2625 -1.5053  0.9094
 5008TIP3    H236584   5.767   3.369   8.103  0.9829  1.0401 -1.4271
 5009TIP3   OH236585   0.795   0.733   1.133 -0.4757  0.4740 -0.0788
 5009TIP3    H136586   0.755   0.683   1.205 -3.1693 -0.3501 -1.9463
 5009TIP3    H236587   0.765   0.687   1.054  2.4704  1.2421 -1.7612
 5010TIP3   OH236588   5.223   5.614   8.124  0.4665 -0.3086 -0.5039
 5010TIP3    H136589   5.182   5.689   8.081  0.5497  0.2646  0.3803
 5010TIP3    H236590   5.178   5.537   8.088  1.0535  0.0835 -2.1549
 5011TIP3   OH236591   6.259   3.156   2.091  0.3098  0.2335 -0.3851
 5011TIP3    H136592   6.205   3.216   2.040  0.3587 -1.1930 -2.1982
 5011TIP3    H236593   6.327   3.127   2.030 -0.5137 -2.7214 -0.0490
 5012TIP3   OH236594   2.902   4.657   7.820  0.0935 -0.1032 -1.0539
 5012TIP3    H136595   2.912   4.564   7.839  2.0597  0.4013  0.7054
 5012TIP3    H236596   2.864   4.694   7.899  0.0017  0.7045 -1.4626
 5013TIP3   OH236597   2.362   6.327   6.728  0.0462  0.3026 -0.0771
 5013TIP3    H136598   2.455   6.308   6.740 -0.4146 -1.5756  1.1193
 5013TIP3    H236599   2.347   6.409   6.776  1.0236  0.4289  0.0195
 5014TIP3   OH236600   6.509   4.988   2.153 -0.1856  0.1357  0.1002
 5014TIP3    H136601   6.449   5.002   2.080 -0.2332 -0.1608  0.0803
 5014TIP3    H236602   6.497   5.064   2.209 -1.2508 -0.3516  0.5627
 5015TIP3   OH236603   1.876   5.485   0.187 -0.1774 -0.0337 -0.3207
 5015TIP3    H136604   1.827   5.406   0.208  0.5994 -1.0086 -1.9738
 5015TIP3    H236605   1.820   5.531   0.124  0.3096 -0.3651 -1.0082
 5016TIP3   OH236606   3.314   6.532   1.406 -0.0544 -0.3989 -0.4506
 5016TIP3    H136607   3.334   6.439   1.415  0.9837 -0.1790 -0.3320
 5016TIP3    H236608   3.381   6.576   1.459 -0.7290  0.3997 -0.2453
 5017TIP3   OH236609   6.923   6.991   7.694  0.5178  0.0711  0.6060
 5017TIP3    H136610   7.012   7.028   7.697  0.3211  0.5843  0.2787
 5017TIP3    H236611   6.936   6.897   7.705  1.3535 -0.2064 -1.9619
 5018TIP3   OH236612   0.093   1.538   0.934 -0.6640 -0.6339  0.2386
 5018TIP3    H136613   0.118   1.459   0.885  1.3067  0.4752 -0.6820
 5018TIP3    H236614   0.015   1.512   0.983 -2.3068 -2.0894 -2.8566
 5019TIP3   OH236615   0.115   5.470   0.401 -0.0009  0.2935  0.6498
 5019TIP3    H136616   0.072   5.554   0.388  0.9990  0.7058 -0.1674
 5019TIP3    H236617   0.066   5.427   0.471 -1.0500  1.1911  0.4765
 5020TIP3   OH236618   0.875   6.628   0.923  0.2990  0.5156 -0.6030
 5020TIP3    H136619   0.832   6.713   0.919 -0.8836 -0.0678 -0.5691
 5020TIP3    H236620   0.962   6.647   0.960 -1.2317  1.2581  3.0157
 5021TIP3   OH236621   4.436   6.282   1.734 -0.2853  0.3496  0.5003
 5021TIP3    H136622   4.390   6.311   1.656  2.4392  0.3377 -1.2393
 5021TIP3    H236623   4.440   6.361   1.789  0.6208  1.3221 -0.8841
 5022TIP3   OH236624   6.876   3.957   6.557 -0.3944 -0.0644  0.0863
 5022TIP3    H136625   6.841   4.043   6.578  1.4361  0.9535 -0.7370
 5022TIP3    H236626   6.971   3.969   6.557 -0.0897 -2.0470 -0.2463
 5023TIP3   OH236627   4.120   0.010   8.151 -0.0949  0.1307 -0.1715
 5023TIP3    H136628   4.110  -0.060   8.216  1.4453  1.3045  1.4063
 5023TIP3    H236629   4.196   0.060   8.180  0.5426  0.8614 -2.7822
 5024TIP3   OH236630   6.810   4.522   1.079 -0.3039 -0.3326  0.4177
 5024TIP3    H136631   6.882   4.585   1.082  0.3801 -1.1021  0.5172
 5024TIP3    H236632   6.733   4.575   1.056  0.1224  0.6429  1.1512
 5025TIP3   OH236633   0.193   2.326   1.550  0.6774  0.5226 -0.6143
 5025TIP3    H136634   0.241   2.396   1.595 -0.6266  0.0011  1.7627
 5025TIP3    H236635   0.202   2.250   1.607  0.2792 -0.6805 -2.0754
 5026TIP3   OH236636   4.882   3.748   8.053  0.1726  0.2094 -0.1175
 5026TIP3    H136637   4.945   3.676   8.064 -3.2729 -3.0352  0.5866
 5026TIP3    H236638   4.884   3.795   8.137 -0.2841 -1.6605  1.0046
 5027TIP3   OH236639   0.964   3.578   0.026  0.0132 -0.6254 -0.0705
 5027TIP3    H136640   0.883   3.529   0.020 -0.6329  0.4564 -0.5287
 5027TIP3    H236641   0.959   3.623   0.110 -0.0835 -0.1974 -0.3011
 5028TIP3   OH236642   3.724   6.799   0.102  0.1185 -0.2143 -0.5869
 5028TIP3    H136643   3.680   6.771   0.182  1.0924 -4.0705 -1.1851
 5028TIP3    H236644   3.800   6.849   0.132  1.1640 -2.6370  1.0677
 5029TIP3   OH236645   1.312   4.568   1.351 -0.2818  0.2159  0.1359
 5029TIP3    H136646   1.378   4.526   1.297  0.2954  1.3360 -0.0689
 5029TIP3    H236647   1.228   4.537   1.316  0.1128 -1.0993  0.3059
 5030TIP3   OH236648   0.896   1.302   7.377 -0.0643  1.0956  0.3814
 5030TIP3    H136649   0.841   1.298   7.298  0.9498 -1.8324 -0.3377
 5030TIP3    H236650   0.850   1.247   7.440 -0.2279  2.4073  1.4470
 5031TIP3   OH236651   1.519   3.700   8.178 -0.0244  0.2642 -0.4657
 5031TIP3    H136652   1.495   3.617   8.218  0.1989  0.1580 -0.5498
 5031TIP3    H236653   1.501   3.687   8.084 -0.4858  0.4894 -0.4122
 5032TIP3   OH236654   5.609   3.057   8.143  0.1450  0.9099  0.2346
 5032TIP3    H136655   5.543   3.109   8.097 -0.5096  0.0049  0.1148
 5032TIP3    H236656   5.625   3.105   8.224 -0.8332  1.0291  0.3706
 5033TIP3   OH236657   2.894   4.204   6.518  0.4794  0.7739  0.1819
 5033TIP3    H136658   2.824   4.147   6.485  0.8273  0.3197  0.2243
 5033TIP3    H236659   2.878   4.288   6.476 -1.0402  1.1376  1.3957
 5034TIP3   OH236660   3.875   2.957   7.602 -0.0310  0.2034 -0.0151
 5034TIP3    H136661   3.848   2.994   7.686  2.1156 -0.3456  1.0052
 5034TIP3    H236662   3.904   2.868   7.624 -0.4681 -0.3566 -1.5542
 5035TIP3   OH236663   4.656   6.297   0.591 -0.1441 -0.0656  0.3630
 5035TIP3    H136664   4.574   6.311   0.543  0.0030 -3.4752 -1.1791
 5035TIP3    H236665   4.724   6.328   0.532 -0.1969  1.7768  1.2040
 5036TIP3   OH236666   4.329   1.458   1.456 -0.3548 -0.0364 -0.6165
 5036TIP3    H136667   4.399   1.429   1.398 -0.0183 -1.2792  0.3883
 5036TIP3    H236668   4.344   1.412   1.538 -0.5568  2.0209  0.6460
 5037TIP3   OH236669   3.484   5.913   0.684 -0.4953  0.2681 -0.3137
 5037TIP3    H136670   3.517   5.999   0.657 -2.8707  0.8899 -1.5277
 5037TIP3    H236671   3.398   5.931   0.721 -1.3840 -1.6457 -1.2961
 5038TIP3   OH236672   6.540   4.716   2.209  0.4117 -0.2692  0.1653
 5038TIP3    H136673   6.522   4.809   2.222 -1.5543 -0.7887  1.5925
 5038TIP3    H236674   6.614   4.715   2.149 -0.5010  2.2098 -1.1872
 5039TIP3   OH236675   5.689   3.655   1.111 -0.7160 -0.1368  0.5350
 5039TIP3    H136676   5.611   3.700   1.078  0.6562  0.7753 -1.6330
 5039TIP3    H236677   5.654   3.575   1.152 -2.8909  1.0455  1.1468
 5040TIP3   OH236678   0.200   5.910   7.232 -0.1017  0.1234  0.5712
 5040TIP3    H136679   0.221   5.937   7.322 -0.1691  0.5741  0.4539
 5040TIP3    H236680   0.209   5.815   7.233 -0.7677  0.0635  1.2331
 5041TIP3   OH236681   6.720   5.302   7.876  0.0753 -0.0418  0.5383
 5041TIP3    H136682   6.661   5.303   7.801 -0.0903  1.3979  0.6561
 5041TIP3    H236683   6.753   5.213   7.879 -1.1008 -0.5427 -0.3113
 5042TIP3   OH236684   6.487   5.258   7.687  0.0336 -0.4618 -0.2983
 5042TIP3    H136685   6.421   5.322   7.713  0.6820 -0.3617  1.2291
 5042TIP3    H236686   6.441   5.175   7.685 -0.5807 -0.1224 -1.2893
 5043TIP3   OH236687   0.666   3.752   0.412 -0.0254  0.4999 -0.2972
 5043TIP3    H136688   0.737   3.688   0.425 -0.3542 -0.1801 -1.6241
 5043TIP3    H236689   0.592   3.715   0.459  0.2602  0.7844  0.3848
 5044TIP3   OH236690   1.653   2.879   1.257 -0.0885 -0.4286 -0.6681
 5044TIP3    H136691   1.584   2.833   1.209 -0.1906 -0.8404 -0.1409
 5044TIP3    H236692   1.609   2.909   1.337 -0.0166  0.5657 -0.9829
 5045TIP3   OH236693   4.632   4.238   0.621 -0.4367  0.2208  0.3632
 5045TIP3    H136694   4.639   4.257   0.714  0.7794  0.1779  0.2893
 5045TIP3    H236695   4.551   4.281   0.593 -0.2915  1.0687  1.2266
 5046TIP3   OH236696   6.316   2.797   7.338 -0.2656  0.2021 -0.0684
 5046TIP3    H136697   6.325   2.812   7.433  1.1928  2.8375 -0.5332
 5046TIP3    H236698   6.361   2.714   7.323  0.8172  0.4922  1.3370
 5047TIP3   OH236699   1.846   6.955   1.671 -0.3672 -0.2213  0.5744
 5047TIP3    H136700   1.904   6.951   1.746  0.9489 -2.5360 -0.4534
 5047TIP3    H236701   1.891   6.905   1.603 -1.6119  1.5392 -1.7022
 5048TIP3   OH236702   0.168   3.962   0.586  0.3664 -0.4514  0.2976
 5048TIP3    H136703   0.144   4.053   0.605 -0.0911 -1.0176  2.6034
 5048TIP3    H236704   0.237   3.941   0.649 -0.3789 -2.0896  0.6102
 5049TIP3   OH236705   6.444   0.458   0.324 -0.2022 -0.0876 -0.2149
 5049TIP3    H136706   6.396   0.376   0.323 -0.3887  0.0128  0.1794
 5049TIP3    H236707   6.390   0.517   0.377 -0.6368  0.6353 -1.3981
 5050TIP3   OH236708   6.949   3.705   0.669 -0.1176 -0.2644 -0.2336
 5050TIP3    H136709   7.035   3.702   0.628  0.2054 -1.8028  0.4681
 5050TIP3    H236710   6.893   3.651   0.613 -0.3626 -0.1118 -0.1377
 5051TIP3   OH236711   2.783   6.710   1.724 -0.4643 -0.2616 -0.8569
 5051TIP3    H136712   2.730   6.659   1.662 -0.2757 -0.3639 -0.9358
 5051TIP3    H236713   2.854   6.651   1.748  0.5427  0.4387 -2.0172
 5052TIP3   OH236714   2.755   3.006   2.071  0.1702 -0.5287  0.4920
 5052TIP3    H136715   2.674   2.991   2.021  1.9615 -1.5142 -2.3253
 5052TIP3    H236716   2.779   2.920   2.105  2.4398 -1.3563 -2.7867
 5053TIP3   OH236717   6.861   6.796   7.104 -0.8171  0.0220 -0.3063
 5053TIP3    H136718   6.836   6.801   7.012  0.2695  1.1607 -0.5667
 5053TIP3    H236719   6.957   6.801   7.104 -0.7888 -0.1213  0.8735
 5054TIP3   OH236720   3.859   1.852   1.397  0.2871 -0.8925 -0.1878
 5054TIP3    H136721   3.948   1.886   1.386 -0.7870  1.5400 -2.4563
 5054TIP3    H236722   3.808   1.927   1.425 -1.1261 -2.2106  0.9484
 5055TIP3   OH236723   6.327   6.104   8.280  0.1384  0.0946  0.0682
 5055TIP3    H136724   6.370   6.107   8.365  0.3896 -0.2973 -0.0438
 5055TIP3    H236725   6.382   6.160   8.224 -1.2535  2.2110  0.6982
 5056TIP3   OH236726   2.240   2.878   2.368  0.5002  0.2941  0.3656
 5056TIP3    H136727   2.239   2.804   2.307  1.4554  1.6967 -1.4530
 5056TIP3    H236728   2.331   2.883   2.397  0.4766  0.8719  0.3366
 5057TIP3   OH236729   5.370   3.928   8.030  0.1573  0.2605  0.3276
 5057TIP3    H136730   5.446   3.871   8.037 -0.8667 -1.0304  1.5081
 5057TIP3    H236731   5.370   3.957   7.939  0.6340 -1.7899 -0.3885
 5058TIP3   OH236732   3.042   3.931   0.948 -0.5407  0.1590 -0.7829
 5058TIP3    H136733   3.085   3.981   1.018 -2.4220 -2.3329  2.4799
 5058TIP3    H236734   2.973   3.989   0.916  0.5497  1.4777 -0.8208
 5059TIP3   OH236735   0.609   4.393   1.110 -0.6253 -0.0776  0.3037
 5059TIP3    H136736   0.518   4.420   1.120 -0.6016 -0.2806  1.1876
 5059TIP3    H236737   0.608   4.298   1.125 -0.5729 -0.4704 -1.8381
 5060TIP3   OH236738   2.236   4.987   7.845 -0.3512  0.2177  0.3811
 5060TIP3    H136739   2.179   4.954   7.914 -0.1654 -0.8676  0.0411
 5060TIP3    H236740   2.300   4.918   7.831  0.9348  1.3199  0.6016
 5061TIP3   OH236741   2.307   0.549   7.274 -0.1630 -0.2837  0.5110
 5061TIP3    H136742   2.401   0.541   7.260  0.0488 -0.3999  1.8557
 5061TIP3    H236743   2.298   0.609   7.348 -1.0978 -1.0043  1.0184
 5062TIP3   OH236744   5.884   6.196   7.329  0.4925 -0.2788  0.1376
 5062TIP3    H136745   5.950   6.132   7.304  1.7419  0.8356  0.4513
 5062TIP3    H236746   5.924   6.281   7.307 -1.2853  0.3950 -0.6941
 5063TIP3   OH236747   0.355   2.497   8.116  0.2016  0.5934  0.1027
 5063TIP3    H136748   0.437   2.540   8.093  0.2969 -0.1388 -1.0426
 5063TIP3    H236749   0.372   2.456   8.201  1.4954 -0.6914 -0.7288
 5064TIP3   OH236750   1.638   2.876   0.633 -0.7660 -0.3966  0.2524
 5064TIP3    H136751   1.692   2.840   0.704  0.1420 -0.0862 -0.2688
 5064TIP3    H236752   1.698   2.884   0.559 -1.5613 -0.1447 -0.3753
 5065TIP3   OH236753   6.594   0.318   1.820 -0.0744  0.0530  0.3088
 5065TIP3    H136754   6.535   0.283   1.886  1.4829 -1.1439  1.1515
 5065TIP3    H236755   6.563   0.407   1.803 -2.2868 -0.6443  0.4296
 5066TIP3   OH236756   1.467   1.054   8.362 -0.0735  0.3607 -0.5653
 5066TIP3    H136757   1.531   0.985   8.380 -0.5184  0.1731  0.3465
 5066TIP3    H236758   1.411   1.017   8.294  0.9465  0.6394 -1.5862
 5067TIP3   OH236759   6.753   0.818   1.169  0.5239  0.0351  0.0579
 5067TIP3    H136760   6.698   0.879   1.219  0.2462  0.4753 -0.7643
 5067TIP3    H236761   6.691   0.756   1.131  0.4585  1.0265 -1.5676
 5068TIP3   OH236762   2.200   1.116   1.370 -0.3859 -0.0837 -0.7783
 5068TIP3    H136763   2.225   1.060   1.297 -0.8086 -0.1290 -0.8936
 5068TIP3    H236764   2.148   1.186   1.330 -1.0910 -0.4121 -0.4667
 5069TIP3   OH236765   2.285   3.063   7.037 -0.0159  0.0948 -0.3463
 5069TIP3    H136766   2.361   3.049   6.980 -0.7751 -1.6078 -0.9973
 5069TIP3    H236767   2.218   3.099   6.979  0.1026  1.0585  0.1052
 5070TIP3   OH236768   1.795   0.301   0.979 -0.7254 -0.2219 -0.2269
 5070TIP3    H136769   1.753   0.215   0.973 -2.0037  0.3628  0.0963
 5070TIP3    H236770   1.862   0.290   1.047  1.1738 -1.7460 -2.1733
 5071TIP3   OH236771   3.517   2.655   7.573  0.9256 -0.5126  0.4212
 5071TIP3    H136772   3.439   2.657   7.517  1.0342  0.1874  0.2872
 5071TIP3    H236773   3.587   2.688   7.517  0.9727  0.5003  1.0662
 5072TIP3   OH236774   0.847   4.116   0.229 -0.4397 -0.5386 -0.3727
 5072TIP3    H136775   0.873   4.076   0.146 -0.0098  0.1727 -0.5774
 5072TIP3    H236776   0.763   4.074   0.250 -0.4652 -0.8431 -1.0757
 5073TIP3   OH236777   0.790   6.870   7.414  0.1101  0.0800 -0.2470
 5073TIP3    H136778   0.815   6.853   7.323 -0.4218 -0.5847 -0.2811
 5073TIP3    H236779   0.785   6.965   7.421  0.5571  0.1487 -0.7992
 5074TIP3   OH236780   3.158   6.088   7.055  0.7486 -0.4241 -0.2431
 5074TIP3    H136781   3.124   5.999   7.045  1.1754 -0.8743  1.7394
 5074TIP3    H236782   3.245   6.086   7.015 -0.3741  0.0058 -2.9396
 5075TIP3   OH236783   4.206   0.224   1.981  0.2203  0.2225 -0.2027
 5075TIP3    H136784   4.120   0.241   2.019  0.8374  1.1646  0.8427
 5075TIP3    H236785   4.193   0.234   1.886 -1.1239 -1.1773 -0.1993
 5076TIP3   OH236786   5.939   0.778   7.418 -0.0484 -0.3977 -0.0165
 5076TIP3    H136787   5.944   0.736   7.504 -1.1870  0.4827  0.5038
 5076TIP3    H236788   5.846   0.775   7.394  0.3067 -0.9918 -1.4131
 5077TIP3   OH236789   2.577   3.096   1.745 -0.7223  0.5030 -0.3300
 5077TIP3    H136790   2.528   3.153   1.685  0.2033  1.8153  0.1337
 5077TIP3    H236791   2.634   3.155   1.793  0.0545 -0.7969  0.3842
 5078TIP3   OH236792   4.301   6.116   0.505  0.6060  0.4615  0.1410
 5078TIP3    H136793   4.278   6.165   0.584  0.9271  1.1894 -0.2094
 5078TIP3    H236794   4.369   6.168   0.463 -0.3118  0.6543 -1.1820
 5079TIP3   OH236795   6.720   1.949   7.104  0.2386  0.3092 -0.1776
 5079TIP3    H136796   6.636   1.926   7.066 -0.3301  0.0230  1.1708
 5079TIP3    H236797   6.784   1.900   7.054 -0.2569  1.4209 -1.9787
 5080TIP3   OH236798   5.280   1.573   0.089 -0.2771  0.3403  0.0158
 5080TIP3    H136799   5.264   1.654   0.042  0.2718  1.2663  1.3736
 5080TIP3    H236800   5.373   1.556   0.077 -0.4080 -0.1440 -0.3381
 5081TIP3   OH236801   3.327   3.683   7.828  0.3396 -0.5295  0.6464
 5081TIP3    H136802   3.296   3.592   7.835 -0.1373 -0.4302 -0.0876
 5081TIP3    H236803   3.386   3.682   7.752 -0.6229  0.0238 -0.1297
 5082TIP3   OH236804   4.383   0.849   7.040  0.3670  0.0465 -0.4206
 5082TIP3    H136805   4.310   0.787   7.043 -0.6061  1.1457 -0.7579
 5082TIP3    H236806   4.452   0.807   7.090 -0.6331 -0.8452  0.2523
 5083TIP3   OH236807   5.410   0.005   6.690 -0.1708 -0.2843  0.9194
 5083TIP3    H136808   5.334  -0.043   6.657  0.0336 -0.3597  0.5441
 5083TIP3    H236809   5.445   0.049   6.612 -0.3454  0.4608  1.2555
 5084TIP3   OH236810   0.680   0.375   0.054 -0.2503 -0.6597  0.4745
 5084TIP3    H136811   0.769   0.371   0.087 -0.8710  0.2549  2.3926
 5084TIP3    H236812   0.648   0.285   0.061  0.2143 -0.8105  0.6747
 5085TIP3   OH236813   6.723   6.326   0.309 -0.1440  0.3236 -0.4362
 5085TIP3    H136814   6.709   6.413   0.273  0.1509 -0.4982 -2.7105
 5085TIP3    H236815   6.818   6.321   0.323 -0.2263  0.5450  0.2413
 5086TIP3   OH236816   3.570   2.029   7.623  1.0111  0.7323 -0.1615
 5086TIP3    H136817   3.529   1.951   7.660 -0.2424  0.5437 -1.7955
 5086TIP3    H236818   3.662   2.021   7.645  0.5292  0.0402  1.7834
 5087TIP3   OH236819   1.982   5.942   1.889 -0.0812 -0.0792  0.3208
 5087TIP3    H136820   1.929   5.901   1.957 -0.5347 -0.1803 -0.0875
 5087TIP3    H236821   2.060   5.886   1.882 -1.7159 -2.3447 -1.8660
 5088TIP3   OH236822   3.861   6.538   8.102  0.0107 -0.1148 -0.5183
 5088TIP3    H136823   3.944   6.491   8.096  1.6816  2.0664  2.3809
 5088TIP3    H236824   3.870   6.611   8.041 -0.2934 -0.5219 -1.0561
 5089TIP3   OH236825   5.410   4.925   6.927  0.1580  0.2004  0.0081
 5089TIP3    H136826   5.439   4.934   6.836 -1.5342  0.3734 -0.5565
 5089TIP3    H236827   5.354   5.001   6.941 -0.9413 -0.7005  0.6448
 5090TIP3   OH236828   5.461   5.510   0.489 -0.1529 -0.0616  0.5680
 5090TIP3    H136829   5.512   5.565   0.548 -1.6082  0.8019  1.0821
 5090TIP3    H236830   5.396   5.468   0.546 -1.3375  0.4888 -0.3238
 5091TIP3   OH236831   0.135   5.702   6.400 -0.5889 -0.7420 -0.5082
 5091TIP3    H136832   0.156   5.783   6.354 -1.2776  0.5672  1.3618
 5091TIP3    H236833   0.041   5.691   6.388 -0.5942 -0.9542 -0.2870
 5092TIP3   OH236834   5.824   4.010   8.340 -0.1777  0.3710 -0.2788
 5092TIP3    H136835   5.767   3.948   8.386  0.2477  0.3896  0.2970
 5092TIP3    H236836   5.770   4.089   8.332 -0.2976  0.3362  0.1122
 5093TIP3   OH236837   0.255   0.513   7.307  0.0763 -0.1948  0.2304
 5093TIP3    H136838   0.266   0.418   7.301  1.7269  0.0384 -0.9551
 5093TIP3    H236839   0.339   0.544   7.341  0.6606  1.0761 -2.1880
 5094TIP3   OH236840   5.778   1.672   0.394  0.3445  0.1650 -0.2576
 5094TIP3    H136841   5.827   1.748   0.361  0.3848  0.2162 -0.0796
 5094TIP3    H236842   5.712   1.711   0.452  0.5936  0.0341  0.1129
 5095TIP3   OH236843   6.843   1.940   5.784  0.0365  0.5317  0.3126
 5095TIP3    H136844   6.917   1.883   5.804  0.6221  1.2821  0.3139
 5095TIP3    H236845   6.820   1.980   5.868  0.8105  1.6813 -0.0037
 5096TIP3   OH236846   5.404   0.601   7.028 -0.3509 -0.3752 -0.3172
 5096TIP3    H136847   5.457   0.607   6.948 -1.4632 -1.2996 -1.1649
 5096TIP3    H236848   5.323   0.559   6.999 -1.6004  1.0896  0.9168
 5097TIP3   OH236849   0.532   3.687   1.242  0.2383 -0.0550  0.2450
 5097TIP3    H136850   0.617   3.707   1.281  0.3492  1.0042 -0.4764
 5097TIP3    H236851   0.487   3.772   1.238 -1.7215 -0.8910  2.5375
 5098TIP3   OH236852   5.089   2.363   1.905  0.5084 -0.4373  0.7379
 5098TIP3    H136853   5.008   2.369   1.957  0.5168  0.0621  0.7021
 5098TIP3    H236854   5.114   2.454   1.890  0.9034 -0.5878  0.4710
 5099TIP3   OH236855   6.761   1.018   1.722  0.0793  0.0910 -0.4983
 5099TIP3    H136856   6.772   0.936   1.675  2.1594  0.8062 -1.4009
 5099TIP3    H236857   6.835   1.020   1.784 -0.8307  0.5916  0.6071
 5100TIP3   OH236858   2.498   6.714   7.782  0.6331 -0.1547  0.6036
 5100TIP3    H136859   2.441   6.772   7.731 -0.8221 -0.8025  1.4097
 5100TIP3    H236860   2.514   6.763   7.863 -2.3998 -1.5893  2.2515
 5101TIP3   OH236861   0.596   4.914   1.786  0.4330 -0.7542 -0.3312
 5101TIP3    H136862   0.615   4.862   1.708  2.8628 -0.8357  0.2436
 5101TIP3    H236863   0.585   4.850   1.856 -0.3692 -0.6140 -0.3135
 5102TIP3   OH236864   0.553   6.781   0.716  0.2392  0.2796  0.0511
 5102TIP3    H136865   0.595   6.863   0.689 -0.6228  1.4708  2.0716
 5102TIP3    H236866   0.499   6.756   0.642  0.4789  1.5816 -0.5957
 5103TIP3   OH236867   1.074   5.730   6.810  0.0021 -0.4839 -0.7245
 5103TIP3    H136868   1.122   5.803   6.847  0.4070 -0.9240 -0.3739
 5103TIP3    H236869   1.140   5.678   6.764 -0.1144 -1.1362 -0.1645
 5104TIP3   OH236870   0.444   1.270   0.641  0.4037 -0.2051  0.3309
 5104TIP3    H136871   0.360   1.258   0.686  0.1651  0.9827  0.2375
 5104TIP3    H236872   0.442   1.207   0.569 -0.4726 -0.1138  0.2634
 5105TIP3   OH236873   5.530   3.071   1.105 -0.0947  0.1355 -0.8937
 5105TIP3    H136874   5.454   3.128   1.110  0.8019  1.2713  1.6129
 5105TIP3    H236875   5.502   2.989   1.145 -0.2292  0.2409 -0.7753
 5106TIP3   OH236876   3.207   1.463   6.724 -0.0517 -0.7028 -0.0977
 5106TIP3    H136877   3.273   1.448   6.791  0.8896  0.5277 -0.7275
 5106TIP3    H236878   3.129   1.488   6.774  0.2126 -1.2012  0.5967
 5107TIP3   OH236879   2.612   1.659   1.271 -0.1384  0.5044  0.1121
 5107TIP3    H136880   2.553   1.682   1.199  1.6546  1.1363 -1.2461
 5107TIP3    H236881   2.696   1.643   1.228  0.6901 -0.4042  1.9637
 5108TIP3   OH236882   2.598   6.824   0.212  0.1286 -0.3010 -0.0993
 5108TIP3    H136883   2.599   6.852   0.304  1.4710  4.7796 -1.3988
 5108TIP3    H236884   2.506   6.832   0.186 -0.2797 -1.8644  0.6772
 5109TIP3   OH236885   2.104   0.588   0.230  0.0246  0.6232 -0.3186
 5109TIP3    H136886   2.011   0.598   0.213  0.2707  1.4742 -1.2691
 5109TIP3    H236887   2.110   0.558   0.321 -1.0744  2.4211  0.3817
 5110TIP3   OH236888   1.095   4.649   1.202 -0.1768  1.0576 -0.4414
 5110TIP3    H136889   1.098   4.658   1.106  1.2406  1.1156 -0.4170
 5110TIP3    H236890   1.015   4.601   1.219 -1.0123  1.9613 -1.5839
 5111TIP3   OH236891   1.691   6.517   1.127 -0.4116  0.5975 -0.0200
 5111TIP3    H136892   1.666   6.447   1.067 -0.4345  0.0838  0.5896
 5111TIP3    H236893   1.743   6.577   1.073 -0.9042  0.4319 -0.6920
 5112TIP3   OH236894   4.267   5.645   2.168 -0.1468 -0.1292  0.0101
 5112TIP3    H136895   4.232   5.622   2.254 -0.8304 -2.0051 -0.7223
 5112TIP3    H236896   4.274   5.562   2.121  1.6645  0.6574 -1.2442
 5113TIP3   OH236897   2.941   3.553   7.300 -0.2025 -0.5376  0.1956
 5113TIP3    H136898   2.863   3.608   7.298 -0.9176 -1.5440 -0.6563
 5113TIP3    H236899   2.915   3.472   7.256  0.8577 -1.5180  1.2986
 5114TIP3   OH236900   0.788   6.028   7.876  0.2015 -0.4242 -0.0850
 5114TIP3    H136901   0.760   6.110   7.915 -1.0954 -1.0972  0.4695
 5114TIP3    H236902   0.715   6.001   7.821  0.8452 -0.9221 -0.7100
 5115TIP3   OH236903   3.316   2.945   7.827  0.3431  0.3809  0.4674
 5115TIP3    H136904   3.322   3.037   7.801  2.4967  0.0689 -0.2872
 5115TIP3    H236905   3.357   2.941   7.913  1.6013 -0.0840 -0.1330
 5116TIP3   OH236906   1.806   6.772   7.990  0.3655  0.0724  0.3297
 5116TIP3    H136907   1.736   6.722   8.032  1.0655  0.9280  2.6792
 5116TIP3    H236908   1.863   6.705   7.951 -0.5905 -0.7569  0.3220
 5117TIP3   OH236909   1.091   1.478   0.854 -0.2467 -0.2981  0.0877
 5117TIP3    H136910   1.008   1.433   0.843 -0.0817 -0.4022 -0.7802
 5117TIP3    H236911   1.104   1.525   0.772  0.4225 -0.0573  0.3230
 5118TIP3   OH236912   1.751   3.526   1.219  0.4142  0.0497  0.4837
 5118TIP3    H136913   1.769   3.457   1.284  0.6412  1.1276  1.5928
 5118TIP3    H236914   1.793   3.604   1.255  0.7019  0.6343 -1.0697
 5119TIP3   OH236915   2.532   0.514   6.690  0.1303 -0.3730 -1.4424
 5119TIP3    H136916   2.574   0.493   6.773  1.9612 -1.3489 -2.5431
 5119TIP3    H236917   2.516   0.608   6.693  2.8857  0.1458 -1.1272
 5120TIP3   OH236918   5.455   4.843   7.192 -0.3786  0.7012  0.2156
 5120TIP3    H136919   5.457   4.898   7.113  0.6272  1.6387  0.8681
 5120TIP3    H236920   5.528   4.875   7.245 -0.5182 -0.4896  1.1522
 5121TIP3   OH236921   2.957   2.981   0.871 -0.4970 -0.2295 -0.3617
 5121TIP3    H136922   2.893   2.926   0.917 -2.9287  1.2346 -1.7197
 5121TIP3    H236923   3.037   2.929   0.870 -0.7161 -1.0113  3.9347
 5122TIP3   OH236924   1.407   3.606   6.308  0.0603 -0.2942  0.3016
 5122TIP3    H136925   1.450   3.536   6.356 -1.0964 -0.6062  0.9023
 5122TIP3    H236926   1.372   3.564   6.229 -1.9901 -0.7836  1.3982
 5123TIP3   OH236927   0.093   0.660   0.289 -0.6918  0.0069 -0.0410
 5123TIP3    H136928   0.104   0.737   0.344 -0.8077 -0.9569  1.3858
 5123TIP3    H236929   0.033   0.689   0.220  0.7270  1.7018 -0.6533
 5124TIP3   OH236930   2.480   6.464   0.193 -0.6204  0.2007  0.2565
 5124TIP3    H136931   2.442   6.549   0.170 -0.4941  0.3065  0.4352
 5124TIP3    H236932   2.492   6.419   0.109 -1.2887  0.1027  0.2098
 5125TIP3   OH236933   1.364   3.004   0.517  0.4771  0.3198  0.0840
 5125TIP3    H136934   1.422   3.067   0.561  0.3889 -0.1171  0.8427
 5125TIP3    H236935   1.412   2.922   0.519 -0.7764 -0.4326  2.1454
 5126TIP3   OH236936   0.551   2.692   0.171 -0.5984 -0.1296 -0.0270
 5126TIP3    H136937   0.507   2.638   0.235 -2.5218 -0.6988 -1.7210
 5126TIP3    H236938   0.611   2.632   0.126  0.3505  0.1467  0.8390
 5127TIP3   OH236939   4.530   6.601   0.526  0.0537  0.5940  0.0751
 5127TIP3    H136940   4.602   6.626   0.469 -0.4220 -0.1144 -0.8627
 5127TIP3    H236941   4.569   6.597   0.614  1.4268 -0.8368 -0.5525
 5128TIP3   OH236942   2.440   4.469   1.325 -0.5089  0.5146 -0.1339
 5128TIP3    H136943   2.420   4.444   1.415 -0.0327 -2.0161 -0.6257
 5128TIP3    H236944   2.432   4.564   1.323 -1.6927  0.5394  2.2718
 5129TIP3   OH236945   2.431   1.969   0.480 -0.9815 -0.1747  0.5323
 5129TIP3    H136946   2.503   1.922   0.439  0.1038  2.1139 -0.3397
 5129TIP3    H236947   2.359   1.905   0.483  0.4141 -1.8788 -0.4549
 5130TIP3   OH236948   0.651   0.458   6.406 -0.0369  0.1644  0.1310
 5130TIP3    H136949   0.679   0.432   6.318  0.5048  2.8739 -0.6069
 5130TIP3    H236950   0.562   0.492   6.394 -0.9462 -1.7091  1.1434
 5131TIP3   OH236951   6.749   3.472   6.606  0.0020 -0.4899 -0.6222
 5131TIP3    H136952   6.779   3.558   6.635  0.7304 -0.5142 -1.2741
 5131TIP3    H236953   6.710   3.487   6.520  1.1606 -0.9662 -1.2561
 5132TIP3   OH236954   6.612   3.410   6.264 -0.5740 -0.0597 -0.3513
 5132TIP3    H136955   6.559   3.474   6.311 -0.6033  0.0462 -0.5282
 5132TIP3    H236956   6.563   3.394   6.183  0.3419  1.0438 -1.1389
 5133TIP3   OH236957   2.345   1.413   1.480  0.5376 -0.3345 -0.3588
 5133TIP3    H136958   2.275   1.347   1.479 -0.6352  0.8800 -1.2212
 5133TIP3    H236959   2.425   1.362   1.463 -0.1990 -1.6511 -0.0752
 5134TIP3   OH236960   0.904   2.791   6.656  0.4456 -0.3164 -0.3256
 5134TIP3    H136961   0.942   2.795   6.568  0.5865  1.7238 -0.2277
 5134TIP3    H236962   0.902   2.698   6.678  0.3353 -0.8790 -2.5128
 5135TIP3   OH236963   3.091   4.705   7.002  0.2456  0.7080  0.1167
 5135TIP3    H136964   3.128   4.743   7.082  0.5523  0.4172  0.1140
 5135TIP3    H236965   2.996   4.705   7.017  0.2728  1.0746  0.2932
 5136TIP3   OH236966   2.073   6.393   2.915  0.3092  0.5383  0.4404
 5136TIP3    H136967   2.155   6.352   2.942 -0.0929  0.7550  2.0626
 5136TIP3    H236968   2.096   6.485   2.900  0.8966  0.0950 -1.7692
 5137TIP3   OH236969   4.071   0.936   0.292 -0.0391 -0.6557 -0.1659
 5137TIP3    H136970   4.110   0.849   0.304  1.9858  0.3278  0.9075
 5137TIP3    H236971   4.141   0.988   0.252  0.0144  1.3193  2.2824
 5138TIP3   OH236972   2.236   6.649   2.224 -0.0661 -0.5419  0.1659
 5138TIP3    H136973   2.156   6.652   2.277 -2.1401  0.9964 -2.7367
 5138TIP3    H236974   2.296   6.710   2.267 -1.3074 -0.0148  1.2061
 5139TIP3   OH236975   4.333   3.285   7.253 -0.9803 -0.1859 -0.2996
 5139TIP3    H136976   4.280   3.334   7.191  2.5457  2.0577 -1.9016
 5139TIP3    H236977   4.379   3.353   7.303  2.1071 -1.7825 -0.7082
 5140TIP3   OH236978   4.045   2.252   1.187 -0.0437  0.3927  0.4291
 5140TIP3    H136979   4.020   2.186   1.122 -1.1350  1.9529 -0.8290
 5140TIP3    H236980   3.974   2.251   1.251 -0.2029  0.5669  0.2523
 5141TIP3   OH236981   5.460   6.703   1.594 -0.2871  0.4752 -0.2815
 5141TIP3    H136982   5.503   6.770   1.540  0.3364 -1.1143 -1.8452
 5141TIP3    H236983   5.399   6.661   1.535  0.0732 -1.0179  0.3728
 5142TIP3   OH236984   1.288   6.716   1.613 -0.1375  0.2496  0.3761
 5142TIP3    H136985   1.327   6.629   1.598 -0.6493 -0.0616  0.7944
 5142TIP3    H236986   1.244   6.737   1.532  2.5501  1.5274 -0.8884
 5143TIP3   OH236987   5.042   3.601   1.500  0.5679 -0.0665 -0.0299
 5143TIP3    H136988   5.082   3.684   1.476 -0.0744 -0.0769 -1.2054
 5143TIP3    H236989   5.116   3.545   1.524  1.0173  0.7824  0.6168
 5144TIP3   OH236990   3.910   3.190   2.115  0.4724  0.1301 -0.2705
 5144TIP3    H136991   3.950   3.167   2.031  0.4618 -4.1848  0.6733
 5144TIP3    H236992   3.847   3.259   2.093  1.4032  0.1241 -3.5195
 5145TIP3   OH236993   6.043   3.955   0.217  0.2583 -0.0346  0.3005
 5145TIP3    H136994   6.106   3.987   0.153  1.0518  0.2346  1.1882
 5145TIP3    H236995   5.974   4.021   0.217  0.3900  0.1058 -0.0815
 5146TIP3   OH236996   3.568   2.157   0.021 -0.1583  0.0691  0.9504
 5146TIP3    H136997   3.506   2.229   0.032  0.7237  1.2650 -1.1833
 5146TIP3    H236998   3.570   2.142  -0.073  0.4639 -2.0975  1.2626
 5147TIP3   OH236999   5.568   0.082   8.035  0.3590  0.4470  0.6755
 5147TIP3    H137000   5.623   0.160   8.040 -0.5916  1.1586  0.2712
 5147TIP3    H237001   5.501   0.095   8.101 -0.7744  0.7644 -0.5022
 5148TIP3   OH237002   3.714   5.890   6.899 -0.0249  0.2886  0.6813
 5148TIP3    H137003   3.740   5.980   6.918 -3.4045  2.2536 -2.6548
 5148TIP3    H237004   3.777   5.861   6.833  0.5040  0.5387  1.0658
 5149TIP3   OH237005   5.604   4.646   1.259 -0.2365  0.6753  0.7185
 5149TIP3    H137006   5.632   4.716   1.317  0.6215  1.3180 -0.4404
 5149TIP3    H237007   5.660   4.654   1.182  1.4893 -2.6473  1.4187
 5150TIP3   OH237008   2.151   2.162   0.891  0.8077  0.5873 -0.1924
 5150TIP3    H137009   2.088   2.204   0.949 -0.9786 -1.1695 -0.7243
 5150TIP3    H237010   2.154   2.071   0.920  1.2290  0.0681 -1.7243
 5151TIP3   OH237011   1.369   4.405   2.336  0.0346  0.0791  0.1910
 5151TIP3    H137012   1.284   4.361   2.330 -1.2629  2.4471  0.0039
 5151TIP3    H237013   1.425   4.343   2.383 -1.9904 -1.2543  0.9872
 5152TIP3   OH237014   4.048   5.305   7.758 -0.4756  0.0239  0.1601
 5152TIP3    H137015   3.967   5.355   7.752  0.0882  0.9540  0.0880
 5152TIP3    H237016   4.067   5.300   7.852 -0.8599 -0.6094  0.2088
 5153TIP3   OH237017   6.462   0.258   1.499 -0.3598  0.3846  0.2012
 5153TIP3    H137018   6.404   0.227   1.569 -2.9226  1.5667 -1.2335
 5153TIP3    H237019   6.459   0.188   1.433  0.2171  0.2725  0.2878
 5154TIP3   OH237020   3.779   1.864   0.713  0.3320 -0.1731 -0.0837
 5154TIP3    H137021   3.722   1.898   0.643  0.5878 -0.5595 -0.4833
 5154TIP3    H237022   3.859   1.838   0.668  0.3098 -0.8837  0.2862
 5155TIP3   OH237023   6.547   6.759   7.744  0.3853  0.3751  0.2562
 5155TIP3    H137024   6.610   6.768   7.815 -0.3651  0.8238  0.8833
 5155TIP3    H237025   6.568   6.832   7.685  0.8517  0.1506  0.1466
 5156TIP3   OH237026   2.641   6.036   6.168 -0.3339 -1.0394  0.2058
 5156TIP3    H137027   2.724   6.043   6.120 -0.3044  0.7033  0.4261
 5156TIP3    H237028   2.627   5.942   6.178 -0.0231 -1.4983 -2.6325
 5157TIP3   OH237029   0.790   0.530   7.658  0.4314  0.0582  0.0478
 5157TIP3    H137030   0.779   0.543   7.753  0.2115  0.7372 -0.0599
 5157TIP3    H237031   0.812   0.617   7.625 -0.2703 -0.0127 -0.6282
 5158TIP3   OH237032   4.602   5.530   7.659  0.1591  0.0917  0.0099
 5158TIP3    H137033   4.545   5.563   7.730  0.3483  0.1369  0.1421
 5158TIP3    H237034   4.574   5.440   7.647  0.8057 -0.2356  0.8444
 5159TIP3   OH237035   4.628   3.114   0.472  0.5220 -0.0045  0.7557
 5159TIP3    H137036   4.696   3.155   0.419  1.0615 -1.2241  0.4773
 5159TIP3    H237037   4.674   3.045   0.520 -0.7867 -2.0364 -0.7551
 5160TIP3   OH237038   2.065   5.607   6.333  0.4623 -0.6398  0.1420
 5160TIP3    H137039   2.006   5.660   6.281  1.0021 -1.9195 -1.8834
 5160TIP3    H237040   2.032   5.518   6.324  0.4450 -0.8953  2.2373
 5161TIP3   OH237041   2.333   1.734   7.311 -0.3957  0.0377  0.2651
 5161TIP3    H137042   2.406   1.677   7.288  0.2007  1.2092 -0.8524
 5161TIP3    H237043   2.257   1.693   7.271 -0.4151 -1.2743  1.5648
 5162TIP3   OH237044   6.190   3.319   7.346  1.1311 -0.0465  0.1899
 5162TIP3    H137045   6.152   3.232   7.360  0.8522 -0.0395 -0.4469
 5162TIP3    H237046   6.283   3.308   7.364  1.3811 -0.8804 -1.4335
 5163TIP3   OH237047   4.733   6.439   1.269  0.2932 -0.2695 -0.4068
 5163TIP3    H137048   4.719   6.482   1.353 -0.1872  0.9801 -1.1110
 5163TIP3    H237049   4.804   6.376   1.286 -0.7828 -1.0993  1.2801
 5164TIP3   OH237050   1.574   2.736   7.200  0.4862  0.3159 -0.3963
 5164TIP3    H137051   1.531   2.717   7.283 -1.3405  1.5968 -1.0019
 5164TIP3    H237052   1.643   2.799   7.222 -0.3378  1.0672  0.0741
 5165TIP3   OH237053   5.927   6.239   0.894  0.3431 -0.2031  0.1102
 5165TIP3    H137054   5.965   6.326   0.876 -1.5599  0.4109 -1.3589
 5165TIP3    H237055   5.873   6.253   0.971  1.1371 -0.4523  0.7182
 5166TIP3   OH237056   0.276   5.173   1.553  0.0965 -0.3595  0.3477
 5166TIP3    H137057   0.255   5.261   1.520 -0.3382 -0.2308  0.9496
 5166TIP3    H237058   0.193   5.140   1.587 -0.1792 -1.7476 -1.5110
 5167TIP3   OH237059   1.625   6.738   0.187 -0.4517 -1.0496  0.6324
 5167TIP3    H137060   1.672   6.655   0.189  1.1293 -0.2185 -0.3420
 5167TIP3    H237061   1.621   6.763   0.095  0.2105  0.5419  0.9913
 5168TIP3   OH237062   4.718   4.116   7.836  0.1865 -1.1112  0.0732
 5168TIP3    H137063   4.710   4.023   7.858 -2.0102 -1.2674 -1.1358
 5168TIP3    H237064   4.662   4.127   7.759  0.9572  1.0979 -0.2351
 5169TIP3   OH237065   3.659   0.235   7.160 -0.1169 -0.1598  0.0453
 5169TIP3    H137066   3.728   0.214   7.223 -1.2422 -2.9682  0.4937
 5169TIP3    H237067   3.703   0.236   7.075  0.6124 -1.1504  0.3971
 5170TIP3   OH237068   1.374   5.212   7.378 -0.0372 -0.2341 -0.6980
 5170TIP3    H137069   1.372   5.138   7.316  2.0083  0.1055 -1.2477
 5170TIP3    H237070   1.319   5.184   7.451  0.2430 -2.0832 -1.1465
 5171TIP3   OH237071   3.462   4.894   1.086  0.3476  0.7168 -0.0410
 5171TIP3    H137072   3.518   4.873   1.161 -0.3506  0.4067  0.4007
 5171TIP3    H237073   3.452   4.989   1.089  0.2048  0.6878  0.3348
 5172TIP3   OH237074   5.134   4.082   2.099  0.3019 -0.3248  0.2105
 5172TIP3    H137075   5.151   4.154   2.161  0.6943 -0.2605  0.0331
 5172TIP3    H237076   5.040   4.067   2.105 -0.0774  1.3512 -0.9987
 5173TIP3   OH237077   3.684   2.604   0.950  0.3207  0.0576  0.8771
 5173TIP3    H137078   3.598   2.634   0.921 -0.3064 -2.1086  0.2896
 5173TIP3    H237079   3.672   2.583   1.043 -0.4788 -2.2989  0.3153
 5174TIP3   OH237080   6.376   4.821   6.726 -0.0376  0.3658  0.0759
 5174TIP3    H137081   6.368   4.746   6.667  0.2824 -1.5714  2.3546
 5174TIP3    H237082   6.332   4.893   6.679 -1.2940 -1.4757 -1.7644
 5175TIP3   OH237083   4.036   3.173   7.517 -0.0234  0.0653 -0.2729
 5175TIP3    H137084   4.093   3.195   7.589 -0.3687  1.1077 -0.3048
 5175TIP3    H237085   3.970   3.114   7.555  1.1320 -1.2821 -0.2786
 5176TIP3   OH237086   6.296   4.449   0.523 -0.3464 -0.1692 -0.1022
 5176TIP3    H137087   6.322   4.533   0.562 -2.6478  0.2657  0.6197
 5176TIP3    H237088   6.225   4.418   0.579  0.2524 -2.4879 -0.5460
 5177TIP3   OH237089   0.812   2.620   6.156 -0.2190 -0.2502 -0.1847
 5177TIP3    H137090   0.788   2.677   6.083  1.1008 -0.1977 -0.6120
 5177TIP3    H237091   0.907   2.625   6.160 -0.3005  0.5229  2.1922
 5178TIP3   OH237092   3.917   3.342   6.874 -0.1105  0.3830 -0.0781
 5178TIP3    H137093   3.867   3.332   6.793 -1.0732  1.7281  0.3067
 5178TIP3    H237094   3.973   3.418   6.859  0.0350  0.3709  0.3684
 5179TIP3   OH237095   2.745   1.854   1.462 -0.9614 -0.9096 -0.5969
 5179TIP3    H137096   2.760   1.771   1.416 -1.5373  0.0206 -2.5527
 5179TIP3    H237097   2.698   1.908   1.400  0.2982  1.2714  0.2493
 5180TIP3   OH237098   6.904   3.007   0.030 -0.1011 -0.5683 -0.0729
 5180TIP3    H137099   6.859   2.964  -0.043 -0.5421 -2.0521  1.0197
 5180TIP3    H237100   6.863   2.971   0.109 -0.3725  1.7698  0.9480
 5181TIP3   OH237101   0.220   5.822   0.142  0.6107  0.0146  0.0649
 5181TIP3    H137102   0.146   5.792   0.089 -1.9427  0.3273  3.1122
 5181TIP3    H237103   0.232   5.914   0.117  0.5986 -0.2732 -1.0647
 5182TIP3   OH237104   6.385   4.917   0.614  0.0354  0.4496 -0.0514
 5182TIP3    H137105   6.473   4.945   0.588  0.0784  0.7429  0.4001
 5182TIP3    H237106   6.327   4.979   0.571  0.1177  1.0806  0.7165
 5183TIP3   OH237107   0.078   0.332   0.571  0.1842 -0.9081  0.0377
 5183TIP3    H137108   0.154   0.278   0.590  1.1069  0.0724 -0.7581
 5183TIP3    H237109   0.067   0.326   0.476 -0.4645 -0.6883  0.0917
 5184TIP3   OH237110   4.481   1.362   1.232 -0.0683  0.2108 -0.4506
 5184TIP3    H137111   4.522   1.336   1.149 -0.9521  0.9458 -1.1322
 5184TIP3    H237112   4.387   1.354   1.216 -0.2727  1.2458  0.1846
 5185TIP3   OH237113   1.800   6.084   1.423 -0.0030  0.3490  0.2898
 5185TIP3    H137114   1.798   6.154   1.357 -1.5703  0.5334  0.4804
 5185TIP3    H237115   1.808   6.131   1.506 -0.1763  0.2590  0.3580
 5186TIP3   OH237116   5.591   2.297   7.362  0.4297 -0.1860  0.2951
 5186TIP3    H137117   5.593   2.213   7.407 -0.1504 -1.3994 -1.8472
 5186TIP3    H237118   5.666   2.295   7.303  1.1067  1.3301  1.0455
 5187TIP3   OH237119   4.189   1.421   7.932  0.7002  0.0275 -0.5197
 5187TIP3    H137120   4.255   1.353   7.943  0.7354 -0.0076 -0.9611
 5187TIP3    H237121   4.206   1.459   7.846  2.2605  2.3039  0.6829
 5188TIP3   OH237122   5.489   1.134   0.676 -0.0632  0.1548 -0.3693
 5188TIP3    H137123   5.457   1.064   0.620 -0.9111  0.2898 -0.0657
 5188TIP3    H237124   5.493   1.211   0.619 -0.2638  0.1333 -0.4121
 5189TIP3   OH237125   3.816   4.282   8.350  0.2413 -0.1227  0.3834
 5189TIP3    H137126   3.772   4.275   8.265 -1.3292 -1.1143  1.2241
 5189TIP3    H237127   3.764   4.346   8.399 -0.1283 -1.0807  1.2918
 5190TIP3   OH237128   1.264   0.809   6.226  0.4238 -0.1009  0.1178
 5190TIP3    H137129   1.189   0.865   6.246 -0.2364 -0.9300  0.0260
 5190TIP3    H237130   1.225   0.725   6.204  1.4391 -1.0912  1.8820
 5191TIP3   OH237131   3.242   4.012   1.444 -0.1794  0.0013  0.4808
 5191TIP3    H137132   3.303   3.973   1.506  0.8403 -0.2085 -0.6030
 5191TIP3    H237133   3.299   4.057   1.380 -1.2157  0.9296  0.1749
 5192TIP3   OH237134   0.029   2.414   1.950  0.2716  0.0567  0.2424
 5192TIP3    H137135   0.037   2.427   1.855 -0.5564 -1.2192 -0.0335
 5192TIP3    H237136  -0.050   2.361   1.960  0.6283 -0.2575  1.6104
 5193TIP3   OH237137   2.853   5.932   6.324 -0.1729  0.2822 -0.3608
 5193TIP3    H137138   2.875   5.859   6.382  0.5005  0.9502  0.2567
 5193TIP3    H237139   2.757   5.935   6.325 -0.1830  0.1557  0.5933
 5194TIP3   OH237140   3.152   2.882   7.198  0.2424 -0.0643 -0.0356
 5194TIP3    H137141   3.181   2.895   7.288 -0.2785 -0.1238  0.1444
 5194TIP3    H237142   3.057   2.895   7.201  0.1944 -0.2689 -0.5379
 5195TIP3   OH237143   6.716   4.040   7.620 -0.1694  0.1889  0.3355
 5195TIP3    H137144   6.747   3.993   7.543 -1.3319  1.5984 -1.0710
 5195TIP3    H237145   6.761   4.125   7.617 -0.7867  0.5441  0.7622
 5196TIP3   OH237146   3.376   5.228   7.305  0.3527  0.0388  0.6588
 5196TIP3    H137147   3.455   5.176   7.292 -0.0191 -1.6074  3.7726
 5196TIP3    H237148   3.407   5.315   7.328  1.2907 -0.5006  1.5105
 5197TIP3   OH237149   3.328   1.324   6.119  0.4856 -0.0384  0.0259
 5197TIP3    H137150   3.270   1.390   6.081  1.1880  0.3971 -0.3142
 5197TIP3    H237151   3.271   1.269   6.171 -0.6773 -1.1470 -2.2743
 5198TIP3   OH237152   3.686   0.445   7.831  0.2315 -0.2034  0.4768
 5198TIP3    H137153   3.619   0.462   7.765  1.3639 -0.0220 -0.6614
 5198TIP3    H237154   3.682   0.350   7.845  1.0962 -0.5127 -1.1285
 5199TIP3   OH237155   0.136   0.370   6.569  0.5193 -0.4368  0.4332
 5199TIP3    H137156   0.045   0.348   6.586  0.4515 -0.8953 -0.5030
 5199TIP3    H237157   0.183   0.287   6.576  0.6595 -0.4394 -0.4300
 5200TIP3   OH237158   4.588   4.601   7.877  0.0283  0.3543  0.3213
 5200TIP3    H137159   4.667   4.648   7.902 -0.9287  1.1772  1.9747
 5200TIP3    H237160   4.609   4.509   7.891  0.7385  0.5501  0.5790
 5201TIP3   OH237161   3.209   6.574   0.072 -1.0015  0.0734 -0.1298
 5201TIP3    H137162   3.283   6.546   0.126 -1.3686 -1.0123 -0.1700
 5201TIP3    H237163   3.218   6.670   0.067  1.0947 -0.1286 -1.1508
 5202TIP3   OH237164   1.056   5.135   6.845  1.0554 -0.4327 -0.5386
 5202TIP3    H137165   1.137   5.150   6.894  0.9607 -0.3806 -0.3980
 5202TIP3    H237166   1.084   5.126   6.753  0.9499  2.4723 -0.9348
 5203TIP3   OH237167   4.351   3.953   8.185 -0.3693  0.6083  0.3113
 5203TIP3    H137168   4.292   3.971   8.112  0.6167  1.1748 -0.3656
 5203TIP3    H237169   4.368   3.859   8.180 -1.7074  0.3190  0.9096
 5204TIP3   OH237170   6.975   2.317   6.920 -0.5782  0.4301  0.9518
 5204TIP3    H137171   7.020   2.232   6.920 -2.0093 -0.3841  2.3745
 5204TIP3    H237172   7.045   2.381   6.929  0.5159 -0.5887  0.0796
 5205TIP3   OH237173   0.164   3.905   6.927 -0.6452  0.3849  0.3124
 5205TIP3    H137174   0.177   3.997   6.906 -2.3037  1.0380  1.9045
 5205TIP3    H237175   0.076   3.901   6.965 -2.2944 -2.4665 -3.1807
 5206TIP3   OH237176   6.726   5.595   7.820  0.4087 -0.4238  0.0723
 5206TIP3    H137177   6.700   5.503   7.816 -1.7392  0.1321 -0.0050
 5206TIP3    H237178   6.711   5.621   7.911 -1.0561  0.3546 -0.3579
 5207TIP3   OH237179   4.897   3.277   8.230 -0.7764 -0.1776 -0.1253
 5207TIP3    H137180   4.829   3.221   8.266  1.0565 -1.8887  0.8344
 5207TIP3    H237181   4.896   3.355   8.285 -2.2238  0.0311 -0.4169
 5208TIP3   OH237182   1.750   5.161   8.215  0.0434  0.7339 -0.1783
 5208TIP3    H137183   1.706   5.104   8.152  1.1013  0.8983 -1.1055
 5208TIP3    H237184   1.698   5.153   8.295  0.3941 -1.8837 -0.1190
 5209TIP3   OH237185   0.936   1.320   6.975  0.0610 -0.4209 -0.0733
 5209TIP3    H137186   0.934   1.410   7.008 -2.3775 -0.4671  0.1322
 5209TIP3    H237187   1.028   1.303   6.955  0.5740  2.1523 -0.2445
 5210TIP3   OH237188   2.698   5.777   1.013  0.2045 -0.7982  0.1379
 5210TIP3    H137189   2.751   5.733   1.080  1.2178 -0.2615 -0.2941
 5210TIP3    H237190   2.734   5.865   1.007 -0.0807 -0.7332 -0.8801
 5211TIP3   OH237191   2.463   0.777   6.798 -0.3733 -0.3248  0.3820
 5211TIP3    H137192   2.445   0.834   6.723 -0.8835 -1.7839 -0.6438
 5211TIP3    H237193   2.503   0.835   6.863 -0.7183  1.1551 -0.6807
 5212TIP3   OH237194   6.196   1.825   0.949 -0.1589  0.0111 -0.1729
 5212TIP3    H137195   6.171   1.915   0.973 -0.6291 -0.0365 -0.4717
 5212TIP3    H237196   6.208   1.828   0.854 -1.2860 -0.4915 -0.3541
 5213TIP3   OH237197   0.297   3.333   7.050 -0.3404 -0.2876 -0.5925
 5213TIP3    H137198   0.264   3.376   6.971  0.2191 -0.0229 -0.6830
 5213TIP3    H237199   0.392   3.335   7.041 -0.2190  0.8571  0.6641
 5214TIP3   OH237200   4.527   1.491   2.109 -0.0718 -0.5798  0.2039
 5214TIP3    H137201   4.501   1.432   2.039  1.7103 -2.0701  0.7208
 5214TIP3    H237202   4.447   1.538   2.132 -0.8787 -0.6640 -2.2085
 5215TIP3   OH237203   0.608   5.087   1.081  0.2007  0.3151  0.2977
 5215TIP3    H137204   0.525   5.052   1.113 -0.8303 -0.4109 -2.7914
 5215TIP3    H237205   0.630   5.157   1.142 -2.8921  0.7643  1.0383
 5216TIP3   OH237206   0.444   5.551   5.875 -0.1409 -0.3340 -0.1645
 5216TIP3    H137207   0.493   5.532   5.955 -0.0949 -1.4366 -0.4300
 5216TIP3    H237208   0.490   5.501   5.807 -1.3919 -1.0934 -0.4871
 5217TIP3   OH237209   2.122   1.567   0.474 -0.0630  0.1160  0.0036
 5217TIP3    H137210   2.094   1.494   0.529 -0.1997  0.4160  0.3343
 5217TIP3    H237211   2.177   1.527   0.407  0.5193 -0.1798  0.6545
 5218TIP3   OH237212   6.545   4.282   6.751  0.3730  0.2214  0.2404
 5218TIP3    H137213   6.472   4.331   6.712  1.1806  0.2745 -1.3058
 5218TIP3    H237214   6.543   4.305   6.843 -1.8554 -0.1552  0.3356
 5219TIP3   OH237215   6.635   0.305   7.149  0.4641 -0.4007  0.1766
 5219TIP3    H137216   6.548   0.345   7.151  0.3246 -0.7362  1.0601
 5219TIP3    H237217   6.684   0.359   7.086 -0.4421 -0.3597 -0.5226
 5220TIP3   OH237218   6.532   0.871   0.556 -0.1937 -0.4780 -0.5362
 5220TIP3    H137219   6.545   0.777   0.550  1.8680 -0.2083 -1.2047
 5220TIP3    H237220   6.447   0.886   0.515 -0.4585 -2.0157 -0.6149
 5221TIP3   OH237221   4.322   3.231   6.796  0.5852 -0.3576 -0.4296
 5221TIP3    H137222   4.289   3.145   6.821  0.0551 -0.5430 -1.7010
 5221TIP3    H237223   4.397   3.212   6.739  1.2648  0.0495  0.2965
 5222TIP3   OH237224   6.839   3.991   0.573  0.7188  0.6549  0.2318
 5222TIP3    H137225   6.774   3.943   0.626  1.1127  0.7433  0.8079
 5222TIP3    H237226   6.920   3.941   0.584  0.7505  0.5424 -0.4917
 5223TIP3   OH237227   2.005   4.083   0.695 -0.2616 -0.2094  0.0901
 5223TIP3    H137228   1.937   4.112   0.757  0.2201 -2.5815  1.8314
 5223TIP3    H237229   2.087   4.111   0.735 -0.0266 -0.3091 -0.3236
 5224TIP3   OH237230   6.063   2.235   7.015 -0.2127  0.1161 -0.4749
 5224TIP3    H137231   6.100   2.311   7.059 -1.6729 -0.4117  1.8407
 5224TIP3    H237232   6.139   2.184   6.987  0.8021  2.3968 -2.2214
 5225TIP3   OH237233   5.488   1.956   1.478  0.5166  0.3556 -0.3891
 5225TIP3    H137234   5.580   1.942   1.501 -0.0415  0.9813  2.6516
 5225TIP3    H237235   5.445   1.875   1.502  0.2449  0.0102 -1.9455
 5226TIP3   OH237236   2.040   6.734   7.154  0.4566  0.1406 -0.3422
 5226TIP3    H137237   2.036   6.755   7.247  1.4422 -1.6528  0.1545
 5226TIP3    H237238   1.968   6.784   7.115 -1.3223 -0.6667  1.6986
 5227TIP3   OH237239   1.568   5.494   7.411 -0.2017  0.1539  0.3083
 5227TIP3    H137240   1.629   5.519   7.341 -0.2390 -1.3030 -0.2756
 5227TIP3    H237241   1.622   5.446   7.474 -0.6691 -0.9181 -0.0849
 5228TIP3   OH237242   2.750   5.090   1.974  0.0189 -0.4911  0.0141
 5228TIP3    H137243   2.772   5.050   2.059  1.1132  0.5435  0.2421
 5228TIP3    H237244   2.745   5.184   1.993 -2.4610 -0.4385 -0.5162
 5229TIP3   OH237245   5.982   2.999   1.569  0.6503 -0.1287  1.0120
 5229TIP3    H137246   6.017   3.019   1.656 -1.9784  0.5988  1.9975
 5229TIP3    H237247   5.888   3.012   1.578  0.0125 -2.4322 -1.3179
 5230TIP3   OH237248   1.832   5.994   7.764  0.2537  0.0365  0.4146
 5230TIP3    H137249   1.803   5.999   7.673 -0.3664  2.2663  0.6591
 5230TIP3    H237250   1.804   5.908   7.794  0.3731 -0.6975 -1.4571
 5231TIP3   OH237251   2.929   6.546   8.094  0.2371 -0.3529 -0.0465
 5231TIP3    H137252   2.900   6.636   8.113  0.1553 -0.4048  0.0731
 5231TIP3    H237253   2.999   6.530   8.157 -0.0203 -0.5183  0.1940
 5232TIP3   OH237254   3.109   6.499   0.484 -0.6510 -0.1920 -0.2262
 5232TIP3    H137255   3.065   6.514   0.567 -0.2770  0.5193 -0.1408
 5232TIP3    H237256   3.165   6.576   0.473  0.2790 -0.8826 -0.5063
 5233TIP3   OH237257   1.337   3.825   0.633 -0.3689 -0.0165 -0.2612
 5233TIP3    H137258   1.382   3.836   0.717 -1.2386  2.0971 -0.0154
 5233TIP3    H237259   1.296   3.738   0.639  1.1152 -0.6937  0.7067
 5234TIP3   OH237260   1.401   3.372   8.152 -0.0164  0.8189 -0.2108
 5234TIP3    H137261   1.463   3.376   8.226  1.4867 -2.4285 -1.1062
 5234TIP3    H237262   1.332   3.434   8.176  1.7509  1.9375  2.5920
 5235TIP3   OH237263   0.941   0.008   1.546  0.0808 -0.0534  0.2468
 5235TIP3    H137264   0.896  -0.071   1.576 -0.0768  0.0714  0.3429
 5235TIP3    H237265   0.981   0.044   1.625  1.1659 -0.6808  0.0015
 5236TIP3   OH237266   4.221   3.478   7.099  0.2461 -0.1628 -0.5488
 5236TIP3    H137267   4.156   3.520   7.156  0.1837 -1.8845  0.7278
 5236TIP3    H237268   4.169   3.442   7.027  0.1366  0.7002 -0.9164
 5237TIP3   OH237269   4.897   0.244   7.696 -0.1228  0.2731 -0.4340
 5237TIP3    H137270   4.971   0.303   7.683  1.1116 -0.5777  1.9988
 5237TIP3    H237271   4.886   0.200   7.612  1.8426  0.7714 -1.0107
 5238TIP3   OH237272   2.059   6.773   6.684  0.3198  0.5166 -0.3593
 5238TIP3    H137273   2.045   6.847   6.626 -0.7656  0.1360 -0.6072
 5238TIP3    H237274   1.974   6.731   6.690  1.1894 -1.6038 -1.4528
 5239TIP3   OH237275   1.962   4.867   7.148  0.0804 -0.2406 -0.2318
 5239TIP3    H137276   1.939   4.792   7.203 -0.3462 -0.1006 -0.2206
 5239TIP3    H237277   1.983   4.829   7.063  0.3263 -0.4176 -0.0923
 5240TIP3   OH237278   3.569   3.089   0.620  0.1451 -0.2209  0.4107
 5240TIP3    H137279   3.538   3.065   0.532 -1.4186 -1.4046  1.2249
 5240TIP3    H237280   3.516   3.165   0.644 -0.2756 -0.6256  0.7775
 5241TIP3   OH237281   5.817   3.493   0.765  0.6720 -0.5530 -0.4890
 5241TIP3    H137282   5.773   3.457   0.841  3.5206  0.9536  2.1269
 5241TIP3    H237283   5.904   3.453   0.766  0.9313 -0.2188 -2.8114
 5242TIP3   OH237284   5.353   5.492   1.096 -0.0075  0.2432 -0.0926
 5242TIP3    H137285   5.315   5.465   1.179  1.9505 -1.3014  0.3635
 5242TIP3    H237286   5.327   5.584   1.087  1.6609  1.2205  3.4055
 5243TIP3   OH237287   1.298   5.488   0.267  0.4007 -0.3412 -0.2215
 5243TIP3    H137288   1.226   5.551   0.278  1.2094  0.2067  2.7790
 5243TIP3    H237289   1.361   5.535   0.212 -0.3828  0.1963 -0.6931
 5244TIP3   OH237290   1.789   6.789   7.062 -0.5367  0.1005 -0.4396
 5244TIP3    H137291   1.727   6.721   7.087  0.8090 -1.0571 -0.1375
 5244TIP3    H237292   1.737   6.870   7.063 -1.4348 -0.3638  2.5950
 5245TIP3   OH237293   1.939   0.794   7.899  0.6213  0.2018 -0.4649
 5245TIP3    H137294   1.864   0.835   7.942  0.8516  0.0779  0.0650
 5245TIP3    H237295   2.012   0.809   7.960  1.7890  3.1807 -2.3675
 5246TIP3   OH237296   4.390   3.534   7.425 -0.1632  0.1026 -0.4891
 5246TIP3    H137297   4.409   3.628   7.420  0.7066  0.0791  1.5030
 5246TIP3    H237298   4.303   3.530   7.464 -0.9307  0.0595 -2.1044
 5247TIP3   OH237299   6.963   3.105   6.729  0.7321  0.3986  0.0134
 5247TIP3    H137300   6.964   3.181   6.670  0.3261 -0.0850 -0.6371
 5247TIP3    H237301   7.054   3.093   6.754  1.1440 -0.2130 -1.6429
 5248TIP3   OH237302   0.231   6.266   1.551  0.2659  0.1433  0.0571
 5248TIP3    H137303   0.189   6.319   1.483 -4.6542 -1.1146  1.7122
 5248TIP3    H237304   0.208   6.309   1.633 -1.1791 -2.6764  1.2553
 5249TIP3   OH237305   4.760   6.350   7.060 -0.3822 -0.1093 -0.4860
 5249TIP3    H137306   4.787   6.386   6.975 -0.9298  0.8827 -0.2546
 5249TIP3    H237307   4.800   6.408   7.124  0.3778 -1.1025 -0.0332
 5250TIP3   OH237308   4.737   1.225   1.688 -0.1066 -0.0895  0.2243
 5250TIP3    H137309   4.765   1.247   1.777  2.4258  1.8471 -0.9265
 5250TIP3    H237310   4.669   1.289   1.667 -1.5813 -1.2938  1.0884
 5251TIP3   OH237311   5.055   5.353   1.518  0.5501 -0.3063  0.3516
 5251TIP3    H137312   5.013   5.267   1.527 -1.8498  0.7694  0.1253
 5251TIP3    H237313   5.080   5.377   1.607 -1.2687 -0.1218  0.8674
 5252TIP3   OH237314   3.818   6.920   5.973 -0.1825 -0.1735  0.0367
 5252TIP3    H137315   3.729   6.950   5.955 -0.4453 -0.3749  0.9535
 5252TIP3    H237316   3.816   6.826   5.957 -0.1410 -0.1856  0.1034
 5253TIP3   OH237317   1.786   5.221   7.386 -0.2062  0.2887  0.0451
 5253TIP3    H137318   1.799   5.185   7.298 -1.1568  0.6276 -0.2432
 5253TIP3    H237319   1.874   5.245   7.416  0.0950  0.3943 -0.9037
 5254TIP3   OH237320   3.086   6.821   1.035 -0.0032  1.3415  0.4803
 5254TIP3    H137321   3.042   6.803   0.952  0.1133  2.4759  0.1586
 5254TIP3    H237322   3.015   6.824   1.100  0.1159 -2.1543  0.9564
 5255TIP3   OH237323   1.567   4.243   2.128  0.1653 -0.4507  1.0481
 5255TIP3    H137324   1.551   4.233   2.222  0.5571 -2.9239  0.9383
 5255TIP3    H237325   1.644   4.189   2.112  0.8848  0.9651 -0.5182
 5256TIP3   OH237326   4.752   6.710   0.374 -0.1641  0.3558  0.3553
 5256TIP3    H137327   4.831   6.751   0.409 -0.7125  0.8632  1.0430
 5256TIP3    H237328   4.719   6.774   0.310 -0.1238  0.2331  0.2122
 5257TIP3   OH237329   0.843   5.917   6.813  0.2984  0.4073  0.2515
 5257TIP3    H137330   0.920   5.870   6.845 -0.8092 -2.2104 -0.6296
 5257TIP3    H237331   0.786   5.924   6.890 -0.4957 -1.9170 -0.0407
 5258TIP3   OH237332   6.065   3.117   0.544  0.6836 -0.1177  0.6543
 5258TIP3    H137333   6.095   3.035   0.506  0.5166  0.7013 -1.3857
 5258TIP3    H237334   5.972   3.122   0.521  0.9094  1.0621 -0.1374
 5259TIP3   OH237335   2.953   6.362   0.302 -0.2248 -0.5541  0.4796
 5259TIP3    H137336   3.013   6.390   0.370  2.1829  0.2000 -1.7957
 5259TIP3    H237337   2.916   6.443   0.267  0.0646 -0.7812 -0.3829
 5260TIP3   OH237338   2.762   1.867   7.605  0.3682  0.0732  0.3318
 5260TIP3    H137339   2.745   1.949   7.652  1.5216  0.3435  0.3042
 5260TIP3    H237340   2.758   1.800   7.673 -0.0889  0.2041  0.4387
 5261TIP3   OH237341   6.465   0.487   1.389 -0.2564 -0.5238 -0.0830
 5261TIP3    H137342   6.419   0.535   1.457 -0.0442 -0.2270 -0.1470
 5261TIP3    H237343   6.477   0.399   1.425 -1.0988 -0.6788 -0.1691
 5262TIP3   OH237344   4.538   6.549   8.208 -0.0526 -0.2201  0.1818
 5262TIP3    H137345   4.501   6.548   8.296 -1.2690  0.1198 -0.3053
 5262TIP3    H237346   4.485   6.612   8.160  0.1979 -0.8421 -0.9584
 5263TIP3   OH237347   4.879   5.196   1.250 -0.2426  0.0138  0.2995
 5263TIP3    H137348   4.862   5.285   1.220 -0.5027  0.6184  2.1289
 5263TIP3    H237349   4.962   5.172   1.209 -1.1955  0.2604 -1.9028
 5264TIP3   OH237350   6.546   1.180   1.523  0.0287 -0.9869 -0.6161
 5264TIP3    H137351   6.571   1.256   1.472  1.5776 -1.5744 -0.7694
 5264TIP3    H237352   6.628   1.146   1.559 -0.9775 -0.5131  2.4230
 5265TIP3   OH237353   5.825   2.616   6.796  0.3904 -0.0046 -0.3357
 5265TIP3    H137354   5.897   2.643   6.854 -0.3998  0.0550  0.6462
 5265TIP3    H237355   5.861   2.623   6.708  1.3723  0.6919  0.1051
 5266TIP3   OH237356   3.366   1.208   6.664 -0.1444  0.5084 -0.2576
 5266TIP3    H137357   3.426   1.165   6.724 -0.1745 -0.7215 -1.0765
 5266TIP3    H237358   3.279   1.191   6.698 -0.0935  1.5172  0.4256
 5267TIP3   OH237359   6.250   0.183   1.047  0.2990 -0.0492  0.5421
 5267TIP3    H137360   6.255   0.242   1.122 -0.4685 -1.8585  2.0997
 5267TIP3    H237361   6.212   0.102   1.082 -1.3974 -0.5364 -2.0692
 5268TIP3   OH237362   0.396   2.606   1.319  0.6379  0.2419  0.2954
 5268TIP3    H137363   0.465   2.578   1.379  2.7610  2.4669 -0.9479
 5268TIP3    H237364   0.439   2.610   1.233 -1.0514  1.5960 -0.5480
 5269TIP3   OH237365   6.506   5.515   6.505  0.3831  0.2313  0.2017
 5269TIP3    H137366   6.461   5.499   6.422 -0.0622 -0.6899  0.6112
 5269TIP3    H237367   6.518   5.610   6.507 -0.7236  0.3965 -0.3433
 5270TIP3   OH237368   5.268   4.151   1.725  0.1806 -0.1487  0.4999
 5270TIP3    H137369   5.304   4.106   1.802  0.2176  0.8702  1.1027
 5270TIP3    H237370   5.341   4.157   1.664  0.3731 -0.2568  0.7191
 5271TIP3   OH237371   1.149   1.212   8.275  0.2361 -0.4054  0.0361
 5271TIP3    H137372   1.144   1.282   8.209  1.1074 -0.3430  0.0184
 5271TIP3    H237373   1.202   1.145   8.233 -0.8474 -1.2232 -0.0600
 5272TIP3   OH237374   5.361   5.848   0.572  0.3504  0.0379 -0.1677
 5272TIP3    H137375   5.377   5.799   0.652 -0.7035  0.2772  0.2143
 5272TIP3    H237376   5.302   5.792   0.521  1.2231 -0.2300 -0.9055
 5273TIP3   OH237377   4.099   2.594   1.032 -0.1682  0.5282 -0.2105
 5273TIP3    H137378   4.119   2.639   0.950  0.2967  1.8671  0.6167
 5273TIP3    H237379   4.177   2.543   1.051 -1.5888 -2.8978 -2.4880
 5274TIP3   OH237380   5.014   5.691   1.632 -0.1847  0.1788  0.1003
 5274TIP3    H137381   4.958   5.735   1.697 -0.9696  1.1033 -1.1389
 5274TIP3    H237382   5.103   5.713   1.659 -0.5015  0.7855  0.7049
 5275TIP3   OH237383   6.432   3.133   1.830 -0.6781 -0.2588 -0.1646
 5275TIP3    H137384   6.445   3.141   1.736  0.2207 -1.8453 -0.2058
 5275TIP3    H237385   6.516   3.158   1.868 -1.2180  0.9733  0.2880
 5276TIP3   OH237386   4.203   6.199   7.578  0.3950 -0.5470 -0.2864
 5276TIP3    H137387   4.144   6.146   7.631 -0.2134 -0.7295 -1.1332
 5276TIP3    H237388   4.146   6.245   7.517  0.8870  1.1751  0.4792
 5277TIP3   OH237389   0.340   1.789   0.916 -0.1347 -0.5332 -0.1485
 5277TIP3    H137390   0.352   1.698   0.890 -0.6454  0.1969 -3.3592
 5277TIP3    H237391   0.422   1.813   0.959  0.0200 -2.4435  0.7110
 5278TIP3   OH237392   2.741   6.255   7.148 -0.1799 -0.2539  0.4819
 5278TIP3    H137393   2.793   6.288   7.075 -1.9593  0.2641 -0.6101
 5278TIP3    H237394   2.767   6.163   7.156  1.0348  0.0371  0.1289
 5279TIP3   OH237395   2.381   5.673   7.222 -0.2484 -0.1643  0.0293
 5279TIP3    H137396   2.406   5.753   7.268 -2.1277  1.9025 -2.2867
 5279TIP3    H237397   2.439   5.670   7.146 -1.0179 -0.2926 -0.5635
 5280TIP3   OH237398   1.445   3.496   2.344 -0.4190 -0.2135 -0.4330
 5280TIP3    H137399   1.415   3.405   2.335  0.1894 -0.6250  1.2589
 5280TIP3    H237400   1.407   3.542   2.269 -0.7652 -1.8567 -1.3098
 5281TIP3   OH237401   4.614   0.548   0.032 -0.2599  0.1776 -0.0905
 5281TIP3    H137402   4.614   0.631   0.080 -0.6610  1.2841 -1.8974
 5281TIP3    H237403   4.706   0.532   0.012  0.2077 -1.4237  2.7377
 5282TIP3   OH237404   5.788   4.070   7.566  0.3379  0.1961  0.3622
 5282TIP3    H137405   5.791   4.048   7.659 -1.0866 -0.7620  0.1964
 5282TIP3    H237406   5.768   4.164   7.565  0.4308  0.2320  1.0170
 5283TIP3   OH237407   6.624   6.569   7.455  0.1810  0.3768  0.2168
 5283TIP3    H137408   6.647   6.658   7.480 -0.6514  0.1486  1.9718
 5283TIP3    H237409   6.705   6.531   7.421  0.7257  1.5710  0.1625
 5284TIP3   OH237410   6.626   1.346   2.201  0.3808  0.3027 -0.6008
 5284TIP3    H137411   6.698   1.410   2.203 -0.1083  0.8413  0.4728
 5284TIP3    H237412   6.662   1.271   2.154  2.2157 -0.1003  1.3192
 5285TIP3   OH237413   5.339   3.604   1.279 -0.0050 -0.1084  0.8449
 5285TIP3    H137414   5.256   3.566   1.251  1.9991 -3.8493 -0.7614
 5285TIP3    H237415   5.372   3.649   1.201 -0.0460  0.5349  1.1902
 5286TIP3   OH237416   6.354   3.010   1.259  0.4315 -0.0170 -0.5008
 5286TIP3    H137417   6.382   2.925   1.294  0.2485  0.2886  0.4299
 5286TIP3    H237418   6.370   3.071   1.331 -0.3923  0.5651 -0.8019
 5287TIP3   OH237419   3.137   2.740   0.686 -0.2041  0.4029  0.4211
 5287TIP3    H137420   3.128   2.659   0.636 -1.9922  1.3727 -0.9764
 5287TIP3    H237421   3.170   2.713   0.771  2.3016 -1.4144 -1.0139
 5288TIP3   OH237422   6.703   0.447   7.853 -0.1174 -0.0013  0.4470
 5288TIP3    H137423   6.641   0.517   7.874  1.2168  1.2867  0.2427
 5288TIP3    H237424   6.696   0.386   7.927 -0.7199  0.7536  1.0337
 5289TIP3   OH237425   0.887   2.940   0.232 -0.0066 -0.5322 -0.3265
 5289TIP3    H137426   0.966   2.943   0.286 -0.4490 -1.8441  0.4558
 5289TIP3    H237427   0.817   2.970   0.290 -0.1490  0.2305 -0.8859
 5290TIP3   OH237428   4.383   3.642   1.044  0.2889  0.1752  0.1627
 5290TIP3    H137429   4.445   3.694   0.993 -1.1559  1.4677 -0.3627
 5290TIP3    H237430   4.337   3.706   1.099 -0.8116 -0.6745  0.2815
 5291TIP3   OH237431   1.161   0.877   6.882  0.3802 -0.3743  0.3736
 5291TIP3    H137432   1.111   0.958   6.889  1.2966  0.2274  0.0384
 5291TIP3    H237433   1.248   0.899   6.915  0.3189 -1.5436  1.4246
 5292TIP3   OH237434   6.151   4.842   7.797  0.3651 -0.2387  0.3210
 5292TIP3    H137435   6.067   4.888   7.788 -0.2349 -1.0456  1.4425
 5292TIP3    H237436   6.132   4.752   7.767  0.7528 -0.4900  0.8212
 5293TIP3   OH237437   0.519   0.025   7.442  0.0265 -0.0116  0.1581
 5293TIP3    H137438   0.551   0.032   7.532 -2.4445 -0.7808  1.1847
 5293TIP3    H237439   0.485  -0.064   7.436 -0.3757  0.2269 -1.3603
 5294TIP3   OH237440   1.170   1.938   7.163  0.1926 -0.1330 -0.2037
 5294TIP3    H137441   1.110   1.880   7.115  0.0339 -0.4683  0.3929
 5294TIP3    H237442   1.171   2.019   7.111 -0.3891 -0.2984 -0.4861
 5295TIP3   OH237443   1.337   4.020   2.204  0.0156 -0.3380 -0.2827
 5295TIP3    H137444   1.392   3.962   2.151 -0.2137 -1.8162  1.0318
 5295TIP3    H237445   1.253   3.975   2.210 -0.1106  0.0096  0.9289
 5296TIP3   OH237446   4.817   0.005   8.278 -0.8805 -0.1024 -0.3894
 5296TIP3    H137447   4.788  -0.029   8.193 -1.3543 -0.5519 -0.0505
 5296TIP3    H237448   4.805   0.099   8.271 -1.8711 -0.2259 -0.4685
 5297TIP3   OH237449   5.055   5.118   7.730 -0.6534 -0.5956  0.7071
 5297TIP3    H137450   5.124   5.095   7.669 -0.3762 -0.2241  0.8739
 5297TIP3    H237451   5.008   5.037   7.746 -0.4161 -0.7942  0.3868
 5298TIP3   OH237452   1.722   4.614   1.554  0.0530  0.0143  0.0435
 5298TIP3    H137453   1.666   4.664   1.495 -1.0428 -1.0538  0.1296
 5298TIP3    H237454   1.661   4.567   1.610  1.0068 -1.9157 -0.4573
 5299TIP3   OH237455   3.323   1.378   0.320 -0.2264 -0.1171 -0.3526
 5299TIP3    H137456   3.362   1.325   0.390  0.5650 -1.7790 -1.9563
 5299TIP3    H237457   3.398   1.411   0.270 -0.7844  0.2270 -0.9805
 5300TIP3   OH237458   6.459   0.330   0.685 -0.3726  0.4551 -0.3671
 5300TIP3    H137459   6.508   0.341   0.766  1.5592 -1.0861 -1.2399
 5300TIP3    H237460   6.397   0.260   0.702  0.1408  0.0243 -0.2330
 5301TIP3   OH237461   3.639   5.128   0.513  0.0513  0.4139 -0.3697
 5301TIP3    H137462   3.596   5.211   0.529  1.4785  0.9532  0.9638
 5301TIP3    H237463   3.633   5.115   0.418 -0.4458  1.8974 -0.5610
 5302TIP3   OH237464   2.013   3.345   0.977  0.0948  0.6300 -0.3164
 5302TIP3    H137465   2.035   3.362   1.069  0.3434  0.1909 -0.2928
 5302TIP3    H237466   1.971   3.259   0.978  0.8616  0.2446 -0.7204
 5303TIP3   OH237467   1.798   4.165   0.869 -0.0048 -0.7804  0.2243
 5303TIP3    H137468   1.714   4.120   0.862 -1.3448  1.3694  1.2648
 5303TIP3    H237469   1.808   4.181   0.963  0.9283  0.1042 -0.0124
 5304TIP3   OH237470   6.501   2.306   1.201  0.3518  0.4026  0.0120
 5304TIP3    H137471   6.576   2.260   1.238 -0.5377 -2.0785 -1.0168
 5304TIP3    H237472   6.443   2.323   1.275  0.3241 -0.9950  0.3394
 5305TIP3   OH237473   3.930   5.806   6.721  0.1610  0.2317  0.0139
 5305TIP3    H137474   3.911   5.819   6.629  1.9582  0.6388 -0.3478
 5305TIP3    H237475   3.998   5.738   6.721  1.0124  1.0503  0.9316
 5306TIP3   OH237476   0.484   5.039   7.185 -0.2086 -0.2415  0.0263
 5306TIP3    H137477   0.393   5.063   7.205  0.2495  1.7763 -0.1768
 5306TIP3    H237478   0.492   5.049   7.091  0.0827 -1.0360 -0.0450
 5307TIP3   OH237479   1.207   1.330   6.905  0.1906 -0.4546 -0.5209
 5307TIP3    H137480   1.251   1.253   6.869  0.5956  0.1566 -1.3435
 5307TIP3    H237481   1.256   1.404   6.871  0.2795  0.1627  0.8870
 5308TIP3   OH237482   3.670   2.789   0.424 -0.0459 -0.1108 -0.2608
 5308TIP3    H137483   3.583   2.748   0.433 -0.6150  0.7412 -1.5990
 5308TIP3    H237484   3.713   2.739   0.354 -0.7651  1.5117 -1.9456
 5309TIP3   OH237485   2.774   3.805   0.908  0.3949 -0.2061  0.1615
 5309TIP3    H137486   2.799   3.758   0.829  2.1914 -1.1063  1.2071
 5309TIP3    H237487   2.842   3.871   0.920  0.6741 -0.6877  1.4206
 5310TIP3   OH237488   3.278   3.830   1.186  0.3698 -0.1575 -0.7535
 5310TIP3    H137489   3.240   3.743   1.198  2.3681 -0.7580  2.3077
 5310TIP3    H237490   3.230   3.886   1.248  0.9864  0.2726 -0.6573
 5311TIP3   OH237491   4.321   1.141   7.984 -0.0024 -0.0590  0.2612
 5311TIP3    H137492   4.271   1.093   8.051 -1.2897  1.4041  0.3955
 5311TIP3    H237493   4.279   1.118   7.901  1.0199 -1.1542  0.0179
 5312TIP3   OH237494   6.377   0.870   1.405 -0.2139  0.1247 -0.6570
 5312TIP3    H137495   6.347   0.957   1.432 -0.9720 -0.5324  0.6991
 5312TIP3    H237496   6.297   0.818   1.397  0.0526  0.0167 -3.3343
 5313TIP3   OH237497   2.596   6.890   1.083 -0.7586 -0.1504 -0.0837
 5313TIP3    H137498   2.548   6.849   1.011  1.6839 -2.6621 -0.4571
 5313TIP3    H237499   2.598   6.823   1.152 -0.3806  1.0271  1.0842
 5314TIP3   OH237500   1.815   3.956   7.302 -0.3956 -0.2204 -0.4571
 5314TIP3    H137501   1.770   3.889   7.354 -2.1275  1.3453  0.1736
 5314TIP3    H237502   1.868   4.004   7.365 -0.8922  0.3899 -0.5006
 5315TIP3   OH237503   5.416   3.662   0.976  0.1605  0.3669  0.6104
 5315TIP3    H137504   5.350   3.708   0.924  1.3100  0.9294 -0.4140
 5315TIP3    H237505   5.430   3.579   0.929 -0.6283 -0.2740  1.4706
 5316TIP3   OH237506   0.850   4.363   7.151  0.0644 -0.6572 -0.5109
 5316TIP3    H137507   0.910   4.418   7.100 -0.6505 -0.0359 -0.7041
 5316TIP3    H237508   0.766   4.410   7.148 -0.3692 -1.3802 -0.0348
 5317TIP3   OH237509   4.840   4.949   8.202 -0.2509 -0.0981  0.2052
 5317TIP3    H137510   4.785   5.020   8.235  0.0199  0.3884 -0.3501
 5317TIP3    H237511   4.920   4.954   8.254  0.7868  1.6165 -1.4164
 5318TIP3   OH237512   1.236   6.930   2.061 -0.0050 -0.6727  0.2718
 5318TIP3    H137513   1.196   7.016   2.073 -0.2902 -0.6643 -0.7252
 5318TIP3    H237514   1.255   6.900   2.150  0.6989  0.7015  0.6169
 5319TIP3   OH237515   1.800   6.816   1.304  0.4305  0.2810  0.1867
 5319TIP3    H137516   1.862   6.792   1.373  0.8033 -1.0293 -0.5729
 5319TIP3    H237517   1.720   6.769   1.327  0.0781  1.0182  0.5098
 5320TIP3   OH237518   0.054   5.021   0.825 -0.1137  0.1058 -0.1494
 5320TIP3    H137519  -0.002   5.005   0.749  0.0941 -0.1910 -0.2383
 5320TIP3    H237520   0.099   4.939   0.840 -0.6721 -0.0616  0.7233
 5321TIP3   OH237521   5.578   0.307   6.723 -0.0252 -0.0164  0.2842
 5321TIP3    H137522   5.519   0.310   6.647 -0.5001  0.2633  0.6615
 5321TIP3    H237523   5.624   0.390   6.720  0.7257 -0.4314 -0.2924
 5322TIP3   OH237524   6.685   6.278   6.430  0.4165  0.4876 -0.1067
 5322TIP3    H137525   6.665   6.362   6.388 -1.1034  0.4247  0.4229
 5322TIP3    H237526   6.754   6.299   6.493  1.1221  1.0281 -1.0416
 5323TIP3   OH237527   1.156   4.719   2.254 -0.4960 -0.0049 -0.7402
 5323TIP3    H137528   1.234   4.681   2.214 -0.6139  0.1733 -1.1398
 5323TIP3    H237529   1.184   4.804   2.288  0.1707 -1.0519  1.5451
 5324TIP3   OH237530   2.409   0.105   7.333 -0.3252 -0.6516  0.4451
 5324TIP3    H137531   2.444   0.181   7.380  2.0094 -0.7835 -0.9448
 5324TIP3    H237532   2.325   0.135   7.298  0.6449  1.4197 -0.2634
 5325TIP3   OH237533   5.227   4.512   7.942  0.0276 -0.0675  0.7070
 5325TIP3    H137534   5.231   4.510   7.846 -1.4530 -3.0785  0.5941
 5325TIP3    H237535   5.300   4.570   7.967  0.5903  0.6728 -2.1864
 5326TIP3   OH237536   2.424   3.928   1.421  0.1802  0.2183 -0.0603
 5326TIP3    H137537   2.462   3.993   1.480 -2.8347  2.2570 -0.1494
 5326TIP3    H237538   2.372   3.872   1.478 -0.9037  0.7791 -0.4710
 5327TIP3   OH237539   1.148   6.748   0.702  0.4267  0.0503  0.0317
 5327TIP3    H137540   1.074   6.799   0.734 -1.0715 -1.5889 -0.6597
 5327TIP3    H237541   1.190   6.714   0.781 -0.9470 -0.8598  0.4002
 5328TIP3   OH237542   1.310   0.777   0.190 -0.4100  0.2054 -0.0799
 5328TIP3    H137543   1.269   0.816   0.267  0.4581 -1.1933  1.1547
 5328TIP3    H237544   1.367   0.845   0.155 -0.7995  0.8604  0.5424
 5329TIP3   OH237545   3.241   2.109   7.975  0.0244  0.6377 -0.8078
 5329TIP3    H137546   3.178   2.040   7.999 -0.0255  0.5907 -1.0760
 5329TIP3    H237547   3.299   2.115   8.051 -0.6794  1.1178 -0.2828
 5330TIP3   OH237548   6.259   3.974   6.775  0.3439 -0.3643  0.3307
 5330TIP3    H137549   6.210   3.897   6.744  0.6670  0.4139 -2.3661
 5330TIP3    H237550   6.193   4.042   6.784  0.0269 -0.8931  2.9063
 5331TIP3   OH237551   4.603   5.355   7.100  0.6421  0.2987 -0.1015
 5331TIP3    H137552   4.622   5.449   7.097 -0.0216  0.4172 -1.6170
 5331TIP3    H237553   4.607   5.333   7.193 -0.9714  2.2263  0.5059
 5332TIP3   OH237554   6.968   5.994   0.665  0.2286 -0.2595 -0.5538
 5332TIP3    H137555   6.912   6.070   0.647 -0.0727 -0.6677 -1.4095
 5332TIP3    H237556   7.004   5.970   0.580  1.0517 -0.5231 -0.1454
 5333TIP3   OH237557   5.168   3.196   8.241 -0.2368 -0.6100 -0.2470
 5333TIP3    H137558   5.144   3.125   8.300 -0.9398  1.1564  1.6992
 5333TIP3    H237559   5.085   3.233   8.211  0.1137 -1.1022 -1.9375
 5334TIP3   OH237560   2.027   1.299   0.672  0.8015  0.1250  0.4420
 5334TIP3    H137561   1.972   1.375   0.689  0.1145 -0.5344  1.2336
 5334TIP3    H237562   1.973   1.243   0.616  0.8284 -0.3170  0.8516
 5335TIP3   OH237563   3.119   3.723   1.532  0.2972 -0.5152  0.3528
 5335TIP3    H137564   3.087   3.643   1.490 -0.6438 -0.7222  1.4180
 5335TIP3    H237565   3.048   3.786   1.520  0.2493 -0.4079  1.1284
 5336TIP3   OH237566   0.247   1.712   1.324 -0.2772  0.4712 -0.0884
 5336TIP3    H137567   0.292   1.637   1.286  0.5999 -0.4159  2.5092
 5336TIP3    H237568   0.197   1.749   1.251  1.6993 -0.7446 -2.1958
 5337TIP3   OH237569   1.700   1.572   0.993 -0.0641 -0.3729  0.3414
 5337TIP3    H137570   1.631   1.518   0.953 -0.2046 -1.8964  2.4443
 5337TIP3    H237571   1.688   1.559   1.087  1.4798  1.4347  0.8418
 5338TIP3   OH237572   2.287   1.471   2.139  0.2583  0.2016 -0.1544
 5338TIP3    H137573   2.272   1.537   2.208  1.6714 -0.9255  1.3033
 5338TIP3    H237574   2.374   1.492   2.105  0.1480 -0.0949 -0.6229
 5339TIP3   OH237575   6.473   4.594   7.860  0.0480  0.0624  0.2896
 5339TIP3    H137576   6.448   4.540   7.785 -0.3955 -0.2331  0.6429
 5339TIP3    H237577   6.555   4.636   7.833  0.0704 -0.3004 -0.2274
 5340TIP3   OH237578   2.908   0.784   7.872  0.4719 -0.4095 -0.4879
 5340TIP3    H137579   2.928   0.715   7.809  0.0722  0.4730 -1.6053
 5340TIP3    H237580   2.945   0.863   7.833 -0.3628  0.2676  0.0673
 5341TIP3   OH237581   6.592   6.966   0.694  0.4436 -0.0665  0.4833
 5341TIP3    H137582   6.674   6.991   0.737  0.4571 -0.3102  0.6045
 5341TIP3    H237583   6.599   7.002   0.606  0.7882 -0.2868  0.4184
 5342TIP3   OH237584   4.243   1.996   7.028 -0.1445 -0.2217 -0.1365
 5342TIP3    H137585   4.168   1.999   7.087 -0.5539  0.6953 -0.6918
 5342TIP3    H237586   4.207   1.967   6.944  0.2550 -0.4923 -0.2215
 5343TIP3   OH237587   2.297   2.081   7.104  0.2663  0.1585  0.1200
 5343TIP3    H137588   2.356   2.107   7.176  1.2263  0.3738 -0.7220
 5343TIP3    H237589   2.355   2.067   7.030 -0.6583 -0.6702 -0.4647
 5344TIP3   OH237590   0.593   2.131   6.595 -0.2505 -0.1023 -0.0969
 5344TIP3    H137591   0.570   2.100   6.682 -0.5172 -0.5515 -0.3228
 5344TIP3    H237592   0.566   2.061   6.536  0.5689 -0.1103 -0.4838
 5345TIP3   OH237593   4.894   3.501   0.065  0.0683 -0.5453 -0.2827
 5345TIP3    H137594   4.943   3.437   0.116  0.6076  0.0124 -0.0905
 5345TIP3    H237595   4.922   3.586   0.100 -0.3089 -0.1895 -0.8293
 5346TIP3   OH237596   3.779   0.590   1.077  0.4947 -0.8188  0.2408
 5346TIP3    H137597   3.757   0.498   1.091 -2.4008 -0.2866 -0.1473
 5346TIP3    H237598   3.772   0.603   0.983 -0.9115  0.1444  0.4482
 5347TIP3   OH237599   3.752   4.418   7.887 -0.1876  0.6468  0.2867
 5347TIP3    H137600   3.798   4.343   7.926 -0.5414 -0.9429 -2.1285
 5347TIP3    H237601   3.662   4.408   7.916 -0.6306 -1.0153 -1.3980
 5348TIP3   OH237602   1.622   3.905   6.424 -0.0857 -0.2224 -0.7980
 5348TIP3    H137603   1.614   3.954   6.342  0.1838  1.5654  0.1944
 5348TIP3    H237604   1.654   3.969   6.488 -2.8733 -0.8033  1.3852
 5349TIP3   OH237605   1.353   6.834   0.885 -0.2064 -0.2584  0.2557
 5349TIP3    H137606   1.427   6.773   0.882  0.8051  0.9506 -1.4132
 5349TIP3    H237607   1.364   6.889   0.807 -2.9838 -0.1351 -0.1664
 5350TIP3   OH237608   5.742   1.952   1.549  0.1521 -0.0140  0.3597
 5350TIP3    H137609   5.738   1.929   1.642  2.0128 -1.9102  0.0432
 5350TIP3    H237610   5.826   1.997   1.538  0.5763 -0.9870 -0.5993
 5351TIP3   OH237611   3.694   0.796   0.266  0.0151 -0.2739  0.1537
 5351TIP3    H137612   3.742   0.756   0.194 -1.1729 -0.9069 -0.3133
 5351TIP3    H237613   3.745   0.874   0.289  0.5210 -0.1829 -1.2176
 5352TIP3   OH237614   1.672   6.955   6.138  0.3895  0.4585  0.4868
 5352TIP3    H137615   1.736   7.022   6.163 -1.0589  3.1647 -2.4187
 5352TIP3    H237616   1.587   6.995   6.154 -0.5439 -0.2292 -2.2497
 5353TIP3   OH237617   3.175   6.799   8.172  0.0009  0.1542 -0.5739
 5353TIP3    H137618   3.084   6.828   8.161  0.1059  0.5340 -0.4603
 5353TIP3    H237619   3.182   6.720   8.119  0.1300  1.1904 -2.1776
 5354TIP3   OH237620   6.107   3.622   0.804  0.3944  0.0840 -0.0911
 5354TIP3    H137621   6.144   3.571   0.875  0.9549  1.0278  0.3183
 5354TIP3    H237622   6.027   3.660   0.841  1.0462  1.1405  0.2988
 5355TIP3   OH237623   2.520   2.426   2.116 -0.6321 -0.2868 -0.1282
 5355TIP3    H137624   2.574   2.376   2.055 -0.6537 -1.0073  0.4278
 5355TIP3    H237625   2.491   2.502   2.066  0.5316 -0.1167 -0.5674
 5356TIP3   OH237626   4.270   6.493   6.572  0.5213  0.1797 -0.0602
 5356TIP3    H137627   4.187   6.467   6.612 -0.1728  2.6794  0.3252
 5356TIP3    H237628   4.335   6.485   6.642  0.2839 -0.1478  0.1274
 5357TIP3   OH237629   4.313   4.340   1.112  0.1424 -0.4451  0.2784
 5357TIP3    H137630   4.270   4.258   1.090 -1.2739  0.3307  0.0264
 5357TIP3    H237631   4.359   4.366   1.032  1.2435 -1.3501  0.5931
 5358TIP3   OH237632   5.705   0.969   0.273  0.2506  0.2948  0.4337
 5358TIP3    H137633   5.717   0.891   0.328  1.6919  0.8567  0.9844
 5358TIP3    H237634   5.756   1.037   0.317 -0.3848  1.3619 -0.4290
 5359TIP3   OH237635   5.876   6.542   7.943  0.2824 -0.5124  0.0100
 5359TIP3    H137636   5.899   6.474   7.879  1.5355 -0.6026  0.5365
 5359TIP3    H237637   5.780   6.541   7.944  0.2103 -0.3402 -2.0206
 5360TIP3   OH237638   0.868   1.354   0.737 -0.0058  0.0477  0.1503
 5360TIP3    H137639   0.793   1.304   0.770  3.0731 -4.6729  1.0220
 5360TIP3    H237640   0.842   1.378   0.648 -1.8424 -3.5177 -0.4947
 5361TIP3   OH237641   3.139   4.118   7.335 -0.1392 -0.0045  0.4310
 5361TIP3    H137642   3.092   4.179   7.278  0.7181 -0.0709 -0.3734
 5361TIP3    H237643   3.222   4.163   7.354  0.0445 -0.4563  0.7027
 5362TIP3   OH237644   2.006   3.219   1.638  0.2470 -0.1350  0.4984
 5362TIP3    H137645   2.075   3.248   1.698  0.7669 -1.4317  0.5588
 5362TIP3    H237646   1.962   3.299   1.611  0.7058  0.5679  1.7711
 5363TIP3   OH237647   1.043   4.890   0.303  0.5078 -0.4092 -0.3087
 5363TIP3    H137648   1.014   4.973   0.342  0.0423 -0.5178 -0.4186
 5363TIP3    H237649   1.102   4.916   0.232  1.3806 -0.2067  0.4580
 5364TIP3   OH237650   5.754   1.525   6.502 -0.2590  0.0323 -0.3077
 5364TIP3    H137651   5.689   1.591   6.524 -0.7594 -0.3038 -0.7608
 5364TIP3    H237652   5.704   1.453   6.463  0.2076 -0.8432  0.6428
 5365TIP3   OH237653   3.921   2.903   2.424 -0.0073 -0.0464 -0.1596
 5365TIP3    H137654   3.911   2.866   2.511  0.5668 -0.1072 -0.1173
 5365TIP3    H237655   3.977   2.841   2.377 -1.0682 -0.4921 -0.8701
 5366TIP3   OH237656   2.394   5.826   7.557  0.1759  0.1936 -0.0513
 5366TIP3    H137657   2.369   5.902   7.609 -0.7201 -0.1367  0.0342
 5366TIP3    H237658   2.409   5.861   7.469  0.9042  0.6349  0.2434
 5367TIP3   OH237659   5.407   3.258   0.012 -0.4419 -0.2244 -0.0701
 5367TIP3    H137660   5.330   3.251  -0.044 -1.3801  0.7218  1.0594
 5367TIP3    H237661   5.408   3.176   0.062  0.3328 -1.0200 -1.3193
 5368TIP3   OH237662   1.723   5.835   1.312  0.5492  0.1745 -0.0068
 5368TIP3    H137663   1.754   5.918   1.349  0.1788  0.8859 -1.2128
 5368TIP3    H237664   1.648   5.811   1.366  0.0854  1.1348 -0.1839
 5369TIP3   OH237665   0.605   6.851   1.909  0.0188 -0.0366  0.2937
 5369TIP3    H137666   0.523   6.845   1.958  0.6677 -0.8711  1.3474
 5369TIP3    H237667   0.620   6.763   1.876 -0.1119  0.3901 -0.9613
 5370TIP3   OH237668   2.883   2.465   0.851 -0.3319  0.0145  0.5442
 5370TIP3    H137669   2.877   2.455   0.946 -0.7587 -0.3941  0.4827
 5370TIP3    H237670   2.791   2.466   0.822 -0.2088 -1.7137 -0.0357
 5371TIP3   OH237671   1.895   2.955   2.034  1.0283  0.2220  0.1180
 5371TIP3    H137672   1.965   2.907   1.990 -0.2035 -0.3698 -1.2803
 5371TIP3    H237673   1.888   3.038   1.986  0.5159  0.1139  0.0009
 5372TIP3   OH237674   1.248   4.884   8.152  0.3347 -0.1117  0.6535
 5372TIP3    H137675   1.196   4.830   8.211  0.0828 -2.1850 -1.3328
 5372TIP3    H237676   1.327   4.905   8.202  0.3620 -2.2104  1.5789
 5373TIP3   OH237677   2.232   3.916   2.220 -0.0378 -0.7741 -0.3771
 5373TIP3    H137678   2.311   3.871   2.189 -0.2280 -1.1301 -0.3445
 5373TIP3    H237679   2.172   3.846   2.245  0.2031 -0.4965  1.0396
 5374TIP3   OH237680   0.602   6.246   1.101  0.3543  0.2348 -0.2749
 5374TIP3    H137681   0.565   6.200   1.176 -0.0345 -1.5932 -1.5130
 5374TIP3    H237682   0.532   6.248   1.037  0.7624  1.5328 -0.7119
 5375TIP3   OH237683   1.189   3.220   8.017 -0.3690 -0.4704 -0.0114
 5375TIP3    H137684   1.210   3.211   7.924  1.8157 -1.1724  0.4907
 5375TIP3    H237685   1.264   3.265   8.054 -2.1261  1.6952  1.1238
 5376TIP3   OH237686   4.449   2.823   1.648 -0.2423  0.3959  0.4690
 5376TIP3    H137687   4.379   2.806   1.585  0.0375  1.1908 -0.0729
 5376TIP3    H237688   4.530   2.806   1.600 -0.0385  0.4908  0.7700
 5377TIP3   OH237689   1.150   3.521   7.354  0.7307  0.1333 -0.1967
 5377TIP3    H137690   1.116   3.468   7.427 -0.7490  1.1569 -0.0893
 5377TIP3    H237691   1.098   3.601   7.357  0.7791  0.2928 -2.2665
 5378TIP3   OH237692   3.548   4.597   6.931 -0.4978  0.1742 -0.4568
 5378TIP3    H137693   3.462   4.554   6.933 -0.2646 -0.2854  0.2884
 5378TIP3    H237694   3.551   4.646   7.014  0.6353 -1.2089  0.3741
 5379TIP3   OH237695   6.801   0.573   0.925  0.0489 -0.1623  0.0025
 5379TIP3    H137696   6.885   0.617   0.928 -0.5015  0.8923  1.2005
 5379TIP3    H237697   6.740   0.639   0.892 -1.1135  0.6761  3.4397
 5380TIP3   OH237698   5.360   2.111   0.800 -0.1328  0.3615 -0.1972
 5380TIP3    H137699   5.280   2.087   0.847 -0.4348  0.2006 -0.7851
 5380TIP3    H237700   5.331   2.167   0.728 -0.0230 -1.5409 -1.8070
 5381TIP3   OH237701   4.532   1.668   1.168  0.8463 -0.1968 -0.1095
 5381TIP3    H137702   4.624   1.677   1.190  0.9841  0.1709 -0.7907
 5381TIP3    H237703   4.515   1.574   1.171  0.8669 -0.1845  1.4462
 5382TIP3   OH237704   3.994   6.598   1.677  0.1700 -0.3077  0.4460
 5382TIP3    H137705   3.979   6.647   1.758 -1.9182 -0.5029  0.2132
 5382TIP3    H237706   4.086   6.616   1.656  1.0529 -0.9962  3.3139
 5383TIP3   OH237707   2.284   2.324   7.411 -0.1987 -0.1994  0.2990
 5383TIP3    H137708   2.222   2.263   7.371  0.3049  0.7700 -2.1100
 5383TIP3    H237709   2.367   2.275   7.414 -0.3811 -0.4872  0.7661
 5384TIP3   OH237710   0.005   5.488   7.976 -0.5388  0.5498 -0.2967
 5384TIP3    H137711   0.052   5.507   7.895  1.5300 -1.4494  0.3279
 5384TIP3    H237712  -0.088   5.493   7.952  0.0123  0.4221 -2.6842
 5385TIP3   OH237713   2.340   5.362   5.790  1.1102 -0.4723 -0.2470
 5385TIP3    H137714   2.359   5.295   5.724  0.9430 -1.2687  0.5026
 5385TIP3    H237715   2.423   5.408   5.802  1.4009 -0.9858 -0.2776
 5386TIP3   OH237716   2.706   0.229   7.655  0.1020 -0.0161  0.4576
 5386TIP3    H137717   2.722   0.150   7.603  2.7652  1.2353 -0.7982
 5386TIP3    H237718   2.723   0.301   7.594  1.1293  1.5299  2.4717
 5387TIP3   OH237719   0.828   4.977   7.961  0.4290  0.1780 -0.0431
 5387TIP3    H137720   0.761   4.919   7.998  0.9032  0.0591  0.6488
 5387TIP3    H237721   0.839   5.046   8.027  1.9492 -0.5340  0.5029
 5388TIP3   OH237722   0.251   5.363   8.170  0.7094  0.1799 -0.4062
 5388TIP3    H137723   0.191   5.429   8.135  0.4426  0.4145  0.4705
 5388TIP3    H237724   0.335   5.407   8.177  1.0269 -0.1772 -1.7279
 5389TIP3   OH237725   4.254   2.607   7.395  0.3650 -0.1476 -0.6397
 5389TIP3    H137726   4.265   2.614   7.490  1.6744  1.1356 -0.8563
 5389TIP3    H237727   4.169   2.564   7.384  0.1708 -0.2850  1.1015
 5390TIP3   OH237728   2.258   3.257   0.558  0.1823  0.1710  0.0469
 5390TIP3    H137729   2.169   3.230   0.535  0.7944 -2.0680  0.0060
 5390TIP3    H237730   2.280   3.203   0.634  0.7875  2.2074  1.3798
 5391TIP3   OH237731   2.727   5.015   7.960  1.1748  0.4330 -0.0163
 5391TIP3    H137732   2.659   5.072   7.923 -1.0509 -2.3597 -0.6671
 5391TIP3    H237733   2.807   5.040   7.914 -0.1149  1.6436 -1.7585
 5392TIP3   OH237734   3.803   5.948   0.456 -0.1988  0.1918 -0.2130
 5392TIP3    H137735   3.875   5.886   0.440 -0.3150 -0.7333  2.2777
 5392TIP3    H237736   3.725   5.903   0.425 -0.0150  0.0105 -0.4149
 5393TIP3   OH237737   6.214   5.508   0.428 -0.7567  0.5160  0.3027
 5393TIP3    H137738   6.206   5.595   0.468  2.8399  0.5560  1.2223
 5393TIP3    H237739   6.200   5.524   0.335 -1.1962  1.8659  0.5661
 5394TIP3   OH237740   3.517   2.726   1.723 -0.6170 -0.1812 -0.5076
 5394TIP3    H137741   3.450   2.771   1.774 -2.2835 -1.6540 -1.2642
 5394TIP3    H237742   3.598   2.773   1.742 -1.3211  0.0098  2.6363
 5395TIP3   OH237743   6.863   5.301   7.146  0.4422  0.2858  0.8698
 5395TIP3    H137744   6.947   5.303   7.191  1.1400 -1.7777 -0.2029
 5395TIP3    H237745   6.816   5.228   7.186  0.1333 -0.0798 -0.1333
 5396TIP3   OH237746   2.154   0.297   7.981  0.2360 -0.1040 -0.1570
 5396TIP3    H137747   2.077   0.348   8.008  0.4425 -0.8228  1.9314
 5396TIP3    H237748   2.225   0.361   7.979 -0.2954  0.4971 -1.7793
 5397TIP3   OH237749   2.112   0.636   2.694  0.5277 -0.2314 -0.2902
 5397TIP3    H137750   2.157   0.720   2.685  0.2983 -0.2933 -2.5444
 5397TIP3    H237751   2.181   0.571   2.681  0.3438 -0.3674 -0.5867
 5398TIP3   OH237752   0.803   1.552   7.409 -0.7739  0.3393  0.0782
 5398TIP3    H137753   0.742   1.535   7.337 -1.9410 -2.7894  1.5748
 5398TIP3    H237754   0.860   1.475   7.411 -1.1999 -0.0139  2.7902
 5399TIP3   OH237755   4.229   4.352   0.327  0.3464 -0.3935  0.1125
 5399TIP3    H137756   4.247   4.424   0.387 -0.7935  0.2872 -0.3118
 5399TIP3    H237757   4.225   4.394   0.241 -0.8681 -0.8571 -0.0766
 5400TIP3   OH237758   1.738   2.636   7.845 -0.9906  0.4051  0.3752
 5400TIP3    H137759   1.826   2.643   7.881 -1.7059  0.2716  2.2983
 5400TIP3    H237760   1.702   2.557   7.884 -1.1267 -1.0517 -2.4329
 5401TIP3   OH237761   0.880   3.051   7.595 -0.1930 -0.2852 -0.2498
 5401TIP3    H137762   0.790   3.057   7.562 -0.1676 -3.6097 -1.2539
 5401TIP3    H237763   0.870   3.027   7.687 -0.5526 -4.6246 -1.2480
 5402TIP3   OH237764   0.867   0.240   7.099  0.5137 -0.0783  0.2876
 5402TIP3    H137765   0.796   0.303   7.091 -1.2286 -1.7151  1.7371
 5402TIP3    H237766   0.941   0.291   7.130 -0.3690  1.4984 -0.0931
 5403TIP3   OH237767   3.601   2.663   2.316 -0.3326 -0.8682  0.3123
 5403TIP3    H137768   3.525   2.700   2.272  0.4024  1.3238  0.7735
 5403TIP3    H237769   3.595   2.695   2.406  1.4473 -0.0927  0.1930
 5404TIP3   OH237770   2.374   2.970   7.438  0.1294 -0.1330  0.0442
 5404TIP3    H137771   2.439   2.962   7.369 -0.4238  2.1122 -0.8274
 5404TIP3    H237772   2.415   3.027   7.504 -0.1765 -0.4341  0.5032
 5405TIP3   OH237773   6.047   6.250   6.255 -0.6028  0.5702  0.4598
 5405TIP3    H137774   6.109   6.177   6.262  0.1032  1.1865  0.8164
 5405TIP3    H237775   6.013   6.260   6.344 -1.7258 -0.1889  0.1292
 5406TIP3   OH237776   6.841   0.360   0.012  0.3223  0.2795 -0.2290
 5406TIP3    H137777   6.932   0.358   0.041  0.2924 -1.8023 -0.0786
 5406TIP3    H237778   6.794   0.308   0.078 -1.0143  1.4489 -0.2205
 5407TIP3   OH237779   3.060   2.145   1.848  0.2735  0.2259 -0.2340
 5407TIP3    H137780   2.970   2.146   1.879 -0.4030 -0.9589 -2.0228
 5407TIP3    H237781   3.068   2.225   1.795  0.5025  0.6843  0.4796
 5408TIP3   OH237782   1.324   4.655   0.711 -0.5529  0.4925  0.3552
 5408TIP3    H137783   1.329   4.624   0.621 -0.3250  1.1534  0.1289
 5408TIP3    H237784   1.330   4.751   0.704  0.0551  0.5214  1.1156
 5409TIP3   OH237785   5.079   0.558   7.036 -0.6504  0.2558 -0.5063
 5409TIP3    H137786   4.988   0.536   7.017 -0.3025  0.4736 -2.5728
 5409TIP3    H237787   5.128   0.478   7.018 -0.4100  0.1410  0.5856
 5410TIP3   OH237788   3.764   4.159   6.908  0.7661 -0.7499 -0.7097
 5410TIP3    H137789   3.760   4.087   6.970  1.1749  0.1460  0.4048
 5410TIP3    H237790   3.771   4.237   6.963  3.0883 -0.0509 -1.8696
 5411TIP3   OH237791   3.327   5.190   0.879 -0.0512 -0.2190  0.3057
 5411TIP3    H137792   3.306   5.148   0.795  2.1752 -1.3728  0.2705
 5411TIP3    H237793   3.343   5.282   0.855 -0.5074 -0.2977 -0.3483
 5412TIP3   OH237794   4.802   5.401   1.080  0.3376 -0.2919  0.6039
 5412TIP3    H137795   4.867   5.444   1.024  0.1881 -0.6713  0.1221
 5412TIP3    H237796   4.720   5.446   1.060  0.7564  1.5111  2.6573
 5413TIP3   OH237797   5.308   4.419   7.043  0.2855 -0.1402  0.2268
 5413TIP3    H137798   5.293   4.484   6.974  0.7805 -0.4001 -0.1313
 5413TIP3    H237799   5.228   4.368   7.046  0.0920  0.1555  0.1504
 5414TIP3   OH237800   6.733   1.529   7.098  0.0192 -1.0860  1.2482
 5414TIP3    H137801   6.760   1.620   7.092 -1.5009 -0.7098 -2.9462
 5414TIP3    H237802   6.815   1.480   7.108  1.5188  0.5003 -1.9685
 5415TIP3   OH237803   3.566   2.036   6.756 -0.1805 -0.3330 -0.5452
 5415TIP3    H137804   3.544   2.080   6.838  1.0492 -0.0853 -0.3358
 5415TIP3    H237805   3.519   2.086   6.689 -1.1036 -0.4691 -0.0189
 5416TIP3   OH237806   5.524   1.541   1.450  0.3236  0.1643 -0.5396
 5416TIP3    H137807   5.478   1.616   1.488 -1.5391  0.2432 -2.6815
 5416TIP3    H237808   5.555   1.573   1.365  1.1131 -0.9682 -0.6973
 5417TIP3   OH237809   1.188   4.545   0.370  0.3803  0.0545  0.0955
 5417TIP3    H137810   1.262   4.490   0.346 -0.7525 -0.5736 -2.2511
 5417TIP3    H237811   1.111   4.490   0.356 -0.6346  1.3311  0.4593
 5418TIP3   OH237812   4.140   0.346   7.136  0.2859 -0.1624  0.1687
 5418TIP3    H137813   4.133   0.267   7.189  0.0988 -1.0980 -1.1947
 5418TIP3    H237814   4.234   0.367   7.135  0.2023  0.3314  1.4906
 5419TIP3   OH237815   6.469   4.475   0.750 -0.8039 -0.7278  0.8526
 5419TIP3    H137816   6.544   4.447   0.699 -1.5837  0.1720 -0.8587
 5419TIP3    H237817   6.426   4.394   0.777  0.3810 -1.2309  1.2666
 5420TIP3   OH237818   5.765   1.519   0.957 -0.8582  0.0944  0.1438
 5420TIP3    H137819   5.789   1.532   0.866  0.8404  1.6607  0.7632
 5420TIP3    H237820   5.742   1.426   0.963  0.2716 -0.3347 -1.5950
 5421TIP3   OH237821   0.415   2.274   2.304  0.2480 -0.1721 -0.5558
 5421TIP3    H137822   0.488   2.332   2.282  0.9972 -1.6878 -2.3734
 5421TIP3    H237823   0.373   2.256   2.220 -1.7505 -0.0213  0.3415
 5422TIP3   OH237824   1.122   0.247   6.348 -0.1307  0.1946  0.2396
 5422TIP3    H137825   1.157   0.320   6.400 -0.5616  1.6724 -1.4372
 5422TIP3    H237826   1.157   0.169   6.390  1.2383  1.4051  1.4778
 5423TIP3   OH237827   3.091   4.981   0.808  0.0108 -0.8397 -0.1588
 5423TIP3    H137828   3.074   4.894   0.844 -1.0569 -1.2459 -1.5763
 5423TIP3    H237829   3.186   4.987   0.802  0.1133 -1.6757  0.4729
 5424TIP3   OH237830   5.583   5.737   0.973 -0.8633 -0.1462  0.6772
 5424TIP3    H137831   5.673   5.723   1.002 -0.1522  2.1939 -0.1564
 5424TIP3    H237832   5.531   5.739   1.053  0.1248  0.2742  1.3164
 5425TIP3   OH237833   2.597   1.058   8.218 -0.2508  0.5384  0.0997
 5425TIP3    H137834   2.561   1.055   8.306 -0.5263  2.4673  0.0842
 5425TIP3    H237835   2.529   1.100   8.165  0.9678  1.9122 -0.4437
 5426TIP3   OH237836   1.697   5.002   7.178 -0.4837  0.0323 -0.1064
 5426TIP3    H137837   1.694   5.056   7.099  0.9591  0.4996  0.1311
 5426TIP3    H237838   1.776   4.949   7.168 -0.0890  0.3535  1.1759
 5427TIP3   OH237839   5.720   5.780   1.394 -0.1754  0.1095 -0.3050
 5427TIP3    H137840   5.783   5.716   1.427 -1.2807 -0.6421  0.4062
 5427TIP3    H237841   5.634   5.743   1.416 -0.9003  0.6487 -2.1025
 5428TIP3   OH237842   0.258   4.697   7.756 -0.5722 -0.9704 -0.0439
 5428TIP3    H137843   0.281   4.682   7.664 -0.1318 -0.5468 -0.0082
 5428TIP3    H237844   0.308   4.775   7.781 -1.4934 -0.4593  0.2612
 5429TIP3   OH237845   1.760   6.171   7.353  0.0524  0.6590 -0.3279
 5429TIP3    H137846   1.783   6.206   7.439 -0.8047 -1.5671  0.8805
 5429TIP3    H237847   1.724   6.246   7.305  1.5033  2.1723  0.8538
 5430TIP3   OH237848   6.083   2.581   1.378 -0.4763 -0.1519  0.3291
 5430TIP3    H137849   6.119   2.612   1.461 -1.4138 -0.3087  0.7983
 5430TIP3    H237850   6.050   2.494   1.397 -2.1294  0.4053  0.2172
 5431TIP3   OH237851   1.787   1.531   0.357  0.0090 -0.2382  0.3513
 5431TIP3    H137852   1.839   1.612   0.368  1.7747 -1.2664 -0.0187
 5431TIP3    H237853   1.763   1.506   0.446  1.1679 -0.3440  0.6546
 5432TIP3   OH237854   4.754   3.963   0.564  0.0875  0.3353  0.4141
 5432TIP3    H137855   4.832   3.988   0.613  0.1817  0.7693  0.0464
 5432TIP3    H237856   4.693   4.035   0.577  0.1540  0.5093 -0.1899
 5433TIP3   OH237857   5.516   1.677   6.557 -0.2301  0.0203 -0.2381
 5433TIP3    H137858   5.440   1.627   6.584  0.0284  0.0527  0.5718
 5433TIP3    H237859   5.484   1.767   6.548 -0.7646 -0.3060 -1.9899
 5434TIP3   OH237860   1.675   3.313   0.907  0.2314  0.1749  0.2118
 5434TIP3    H137861   1.621   3.260   0.849 -0.3126  1.2559 -0.2916
 5434TIP3    H237862   1.655   3.280   0.995  0.9800 -1.4027 -0.1687
 5435TIP3   OH237863   1.984   6.430   1.780 -0.1881 -0.2835  0.1596
 5435TIP3    H137864   1.966   6.338   1.764  0.3933 -0.3242 -0.3030
 5435TIP3    H237865   1.932   6.477   1.715  1.9573 -0.4375 -1.8006
 5436TIP3   OH237866   4.209   5.683   8.218 -0.5355  0.1984 -0.0217
 5436TIP3    H137867   4.184   5.609   8.275  0.0083  0.7523  0.9613
 5436TIP3    H237868   4.296   5.707   8.248 -1.0238  1.7560  0.2150
 5437TIP3   OH237869   6.945   4.830   0.185  0.6121  0.6144  0.1163
 5437TIP3    H137870   6.873   4.785   0.140  0.1943  0.7996  0.5916
 5437TIP3    H237871   6.960   4.908   0.132  1.0177  0.1775 -0.4405
 5438TIP3   OH237872   6.649   4.665   7.550 -0.2672  0.3796 -0.2673
 5438TIP3    H137873   6.663   4.593   7.488 -1.2273  0.0848 -0.1593
 5438TIP3    H237874   6.737   4.696   7.571  0.0962  0.1248 -1.3572
 5439TIP3   OH237875   4.642   6.552   1.040 -0.3550 -0.1511  0.4349
 5439TIP3    H137876   4.668   6.635   1.081 -0.3991  0.1527 -0.1485
 5439TIP3    H237877   4.635   6.491   1.113 -4.6520  1.3866  1.6030
 5440TIP3   OH237878   1.966   3.731   0.553 -0.4622 -0.1474 -0.0292
 5440TIP3    H137879   1.883   3.774   0.572 -0.3044  0.5578 -0.8519
 5440TIP3    H237880   2.021   3.801   0.515  1.2164 -0.0767  2.3207
 5441TIP3   OH237881   2.167   3.099   6.407  0.1967  0.3335  0.0904
 5441TIP3    H137882   2.122   3.180   6.429  0.8335  0.6548  0.2366
 5441TIP3    H237883   2.180   3.104   6.312  1.4882  1.0753  0.2841
 5442TIP3   OH237884   0.625   3.172   0.953 -0.0706  0.6776 -0.1509
 5442TIP3    H137885   0.566   3.106   0.918  0.1500  0.9263 -1.0110
 5442TIP3    H237886   0.576   3.254   0.945 -0.1042  0.7057  0.3332
 5443TIP3   OH237887   6.920   6.649   2.123 -0.5071  0.5548  0.0477
 5443TIP3    H137888   6.888   6.671   2.210 -0.1300  0.2901  0.2538
 5443TIP3    H237889   6.992   6.588   2.138 -0.0644  0.9502 -0.4155
 5444TIP3   OH237890   5.410   2.001   1.214  0.1562  0.4611 -0.5418
 5444TIP3    H137891   5.423   1.918   1.169  0.1216  0.2165 -0.1030
 5444TIP3    H237892   5.427   1.982   1.306 -0.0332  0.8966 -0.4118
 5445TIP3   OH237893   5.906   4.187   5.702  0.0904 -0.1277  0.0764
 5445TIP3    H137894   5.876   4.130   5.773  1.5786  0.1420  0.9493
 5445TIP3    H237895   6.000   4.198   5.717  0.1084  1.3727 -0.9114
 5446TIP3   OH237896   1.848   4.654   7.747  0.0103  0.7522  0.0996
 5446TIP3    H137897   1.796   4.734   7.735  1.6872  1.8438 -0.1769
 5446TIP3    H237898   1.927   4.683   7.793 -1.0993 -1.4467  3.8199
 5447TIP3   OH237899   5.106   4.845   0.803 -0.7047  0.0923  0.2586
 5447TIP3    H137900   5.114   4.751   0.790 -2.4955 -0.0226 -0.2478
 5447TIP3    H237901   5.086   4.880   0.716 -1.9467  0.6908  0.7675
 5448TIP3   OH237902   2.719   0.189   8.285 -0.3059  0.3660  0.0064
 5448TIP3    H137903   2.737   0.153   8.372  0.4362  0.2694 -0.1877
 5448TIP3    H237904   2.624   0.179   8.275 -0.4690  0.7692  0.9768
 5449TIP3   OH237905   6.807   1.042   7.986 -0.2626 -0.1218 -0.0859
 5449TIP3    H137906   6.760   0.978   8.039 -0.5789 -0.7837 -1.1336
 5449TIP3    H237907   6.895   1.043   8.022 -0.5365 -0.3698  0.6057
 5450TIP3   OH237908   0.090   6.981   7.396 -0.1808 -0.9842  0.2474
 5450TIP3    H137909   0.102   6.960   7.303 -1.1172 -1.4849  0.2327
 5450TIP3    H237910   0.003   7.019   7.401  0.8704  1.5759  0.5259
 5451TIP3   OH237911   5.625   0.552   1.467  0.0532  0.5444 -0.3019
 5451TIP3    H137912   5.584   0.639   1.466 -1.1454  0.0348 -3.0786
 5451TIP3    H237913   5.553   0.491   1.457  0.8654 -0.8765  1.7460
 5452TIP3   OH237914   3.730   0.983   1.704 -0.2479  0.1778 -0.6369
 5452TIP3    H137915   3.682   0.914   1.660 -1.4676  0.4613  0.1782
 5452TIP3    H237916   3.669   1.057   1.705 -0.3356  0.1441  1.5693
 5453TIP3   OH237917   1.802   1.954   7.705 -0.1319  0.7512 -0.4678
 5453TIP3    H137918   1.820   2.008   7.628 -0.3552 -2.4770 -2.9963
 5453TIP3    H237919   1.889   1.932   7.739  0.0030  1.2275 -0.4880
 5454TIP3   OH237920   3.873   4.485   7.446  0.2437  0.7891  0.0035
 5454TIP3    H137921   3.921   4.464   7.526  2.4949  1.8334 -0.9833
 5454TIP3    H237922   3.809   4.413   7.436 -0.4725  0.9052  2.9448
 5455TIP3   OH237923   3.298   1.790   1.468  0.0547  0.1768  0.2159
 5455TIP3    H137924   3.220   1.735   1.468 -0.0177  0.2259 -1.4925
 5455TIP3    H237925   3.365   1.737   1.424  1.4342 -0.4195  2.8751
 5456TIP3   OH237926   1.965   1.921   0.232 -0.1062 -0.6513  0.0524
 5456TIP3    H137927   2.042   1.907   0.287 -0.0138 -1.3599 -0.2638
 5456TIP3    H237928   1.997   1.916   0.143 -0.6776 -1.9446 -0.1018
 5457TIP3   OH237929   3.528   0.088   1.133  0.2485 -0.0391 -0.3793
 5457TIP3    H137930   3.454   0.028   1.146  0.5335 -0.0677  1.3904
 5457TIP3    H237931   3.605   0.037   1.160  0.8008  0.3137 -1.2584
 5458TIP3   OH237932   1.153   4.193   6.071  0.2303  0.4741  0.3265
 5458TIP3    H137933   1.116   4.268   6.117  1.4800  0.6582  1.0766
 5458TIP3    H237934   1.085   4.167   6.009 -2.0705 -0.5382  3.0417
 5459TIP3   OH237935   5.872   4.651   7.649  0.2241  0.5304 -0.0012
 5459TIP3    H137936   5.904   4.683   7.565 -0.8789  0.1790 -0.5600
 5459TIP3    H237937   5.945   4.599   7.683  2.0888  3.4806  0.9404
 5460TIP3   OH237938   2.667   3.925   8.087 -0.2656 -0.0364  0.4113
 5460TIP3    H137939   2.711   3.880   8.015 -0.6306 -1.1688  0.8656
 5460TIP3    H237940   2.641   3.855   8.147 -0.0982  0.8557  1.5791
 5461TIP3   OH237941   6.610   0.818   1.533  0.3076  0.0429 -0.8246
 5461TIP3    H137942   6.522   0.827   1.495 -0.8040  0.8263  1.6871
 5461TIP3    H237943   6.600   0.748   1.598  1.9309 -0.7725 -1.4071
 5462TIP3   OH237944   4.224   2.784   1.432  0.3738  0.0006  0.0463
 5462TIP3    H137945   4.183   2.857   1.386  0.2814  1.0797  1.7474
 5462TIP3    H237946   4.161   2.760   1.499  2.0000  1.0244  2.0618
 5463TIP3   OH237947   5.760   0.038   0.291  0.1854 -0.1109 -0.1631
 5463TIP3    H137948   5.667   0.022   0.304 -0.3385  1.4164 -1.6403
 5463TIP3    H237949   5.803  -0.012   0.360 -1.7442 -0.5559  0.7829
 5464TIP3   OH237950   0.348   0.553   0.184 -0.1766  0.0155  0.4417
 5464TIP3    H137951   0.398   0.552   0.103 -0.7195  0.0492  0.1024
 5464TIP3    H237952   0.289   0.627   0.175  0.5854  0.7656  1.3887
 5465TIP3   OH237953   4.713   5.189   8.299  0.0788 -0.0467 -0.5622
 5465TIP3    H137954   4.622   5.177   8.272 -0.0059 -2.7273  0.5468
 5465TIP3    H237955   4.751   5.246   8.233 -2.5237  1.6173 -0.7528
 5466TIP3   OH237956   3.290   2.412   8.118 -0.0692 -0.4552 -0.4019
 5466TIP3    H137957   3.351   2.342   8.094  0.6334  0.2152 -0.6081
 5466TIP3    H237958   3.265   2.450   8.034 -2.1818 -1.8447 -0.4830
 5467TIP3   OH237959   5.206   5.859   6.348  0.3015 -0.1124  0.7099
 5467TIP3    H137960   5.297   5.836   6.367  0.9677  1.9770  0.3047
 5467TIP3    H237961   5.193   5.944   6.391 -0.4763  1.1021 -1.7274
 5468TIP3   OH237962   3.440   1.751   8.138  0.1830 -0.0932  0.3854
 5468TIP3    H137963   3.407   1.716   8.221  0.0335 -1.3335 -0.1849
 5468TIP3    H237964   3.435   1.846   8.149 -2.2922 -0.2125  0.8262
 5469TIP3   OH237965   0.745   5.275   1.262 -0.5532 -0.3290  0.0536
 5469TIP3    H137966   0.803   5.323   1.202  0.3791 -0.3668  0.8931
 5469TIP3    H237967   0.714   5.341   1.324 -1.0482 -0.3982 -0.1193
 5470TIP3   OH237968   1.775   3.324   7.508  0.0920 -0.2922  0.1974
 5470TIP3    H137969   1.715   3.256   7.478 -0.7623  1.2089 -1.6851
 5470TIP3    H237970   1.828   3.345   7.431 -1.2506  2.7687 -0.0383
 5471TIP3   OH237971   1.737   1.116   0.735  0.3537  0.0007  0.0961
 5471TIP3    H137972   1.803   1.132   0.802 -1.1271  0.6130  1.4695
 5471TIP3    H237973   1.682   1.194   0.736 -0.8931 -0.8297 -0.4056
 5472TIP3   OH237974   5.824   5.599   1.661  0.3353  0.6363  0.0732
 5472TIP3    H137975   5.850   5.512   1.691 -0.1457  0.5428  0.2253
 5472TIP3    H237976   5.771   5.634   1.732  0.0563  0.8268 -0.2229
 5473TIP3   OH237977   1.410   6.586   7.610  0.4755  0.3593 -0.3082
 5473TIP3    H137978   1.328   6.629   7.634 -1.2231 -2.0765 -1.3389
 5473TIP3    H237979   1.473   6.657   7.603 -1.5203  2.3321  0.5973
 5474TIP3   OH237980   1.616   4.765   7.604  0.8245 -0.2387 -0.4370
 5474TIP3    H137981   1.569   4.704   7.547  0.4445 -0.2294 -0.1447
 5474TIP3    H237982   1.595   4.851   7.568  0.1543 -0.2004  0.0134
 5475TIP3   OH237983   0.309   4.661   1.619  0.1291  0.5202 -0.4613
 5475TIP3    H137984   0.372   4.725   1.652 -1.6378  2.8803 -1.3915
 5475TIP3    H237985   0.240   4.659   1.685  0.1641 -0.4792 -0.4380
 5476TIP3   OH237986   3.910   4.234   0.335 -0.0214  0.1598 -0.1468
 5476TIP3    H137987   3.841   4.193   0.387 -0.6292  0.7384 -0.4874
 5476TIP3    H237988   3.897   4.328   0.347  1.2752  0.2732  0.5177
 5477TIP3   OH237989   6.014   2.501   0.799 -0.0951 -0.3604  0.1986
 5477TIP3    H137990   6.103   2.529   0.777 -0.1066 -0.9832 -0.6849
 5477TIP3    H237991   5.958   2.551   0.739 -0.2821 -0.5974  0.1764
 5478TIP3   OH237992   4.788   6.557   8.302 -0.2881  0.1572 -0.3172
 5478TIP3    H137993   4.707   6.537   8.254  0.8345 -0.0894 -2.2236
 5478TIP3    H237994   4.772   6.523   8.390 -0.8626 -3.6034 -1.6629
 5479TIP3   OH237995   3.012   0.700   8.141  0.6648  0.4358  0.2030
 5479TIP3    H137996   2.956   0.730   8.213  2.9340  1.1790  1.7911
 5479TIP3    H237997   2.969   0.732   8.062 -1.5654  0.2118  1.2534
 5480TIP3   OH237998   4.393   5.978   1.716  0.2970  0.1984 -0.5889
 5480TIP3    H137999   4.401   6.069   1.689 -2.7584  0.4476 -1.0146
 5480TIP3    H238000   4.366   5.982   1.807 -0.1389 -0.2444 -0.6920
 5481TIP3   OH238001   6.638   2.171   0.977 -1.7015  0.1423  0.2450
 5481TIP3    H138002   6.688   2.180   1.058  0.0536  0.6218 -0.8380
 5481TIP3    H238003   6.560   2.122   1.003 -0.4936 -1.0357  1.9476
 5482TIP3   OH238004   1.869   3.283   1.328 -0.1089 -0.1620 -0.4068
 5482TIP3    H138005   1.953   3.328   1.320 -0.1180 -0.1267 -0.3066
 5482TIP3    H238006   1.892   3.191   1.344 -0.0829  0.0002  0.5169
 5483TIP3   OH238007   5.291   2.954   0.900 -0.2651  0.0472 -0.0835
 5483TIP3    H138008   5.336   2.987   0.822 -0.3331  0.5804  0.0997
 5483TIP3    H238009   5.199   2.978   0.887 -0.2179  0.4684  0.3236
 5484TIP3   OH238010   6.227   1.185   8.242  0.5512  0.0681 -0.0478
 5484TIP3    H138011   6.136   1.159   8.230 -0.8486  4.2830 -0.2096
 5484TIP3    H238012   6.274   1.147   8.168 -0.3296 -4.4226  1.4113
 5485TIP3   OH238013   4.532   5.274   6.341 -0.3234  0.1254 -0.7880
 5485TIP3    H138014   4.475   5.302   6.269  0.6629  1.8960 -0.9612
 5485TIP3    H238015   4.601   5.341   6.343  1.3931 -1.5738 -0.1800
 5486TIP3   OH238016   3.734   1.631   6.417  0.3192  0.3545 -0.5872
 5486TIP3    H138017   3.771   1.549   6.452  0.5213  0.3950 -0.7043
 5486TIP3    H238018   3.640   1.621   6.428  0.3330  0.0435 -0.7273
 5487TIP3   OH238019   0.458   6.906   6.137  0.1172  0.1998 -0.1843
 5487TIP3    H138020   0.506   6.842   6.189  0.6758  0.3282 -0.5286
 5487TIP3    H238021   0.409   6.853   6.074  1.2904  0.1247 -1.0721
 5488TIP3   OH238022   4.535   0.440   1.641  0.3147 -0.4692  0.3030
 5488TIP3    H138023   4.550   0.409   1.730 -1.1434 -0.6691  0.5004
 5488TIP3    H238024   4.439   0.443   1.632  0.3778  2.2582 -0.3009
 5489TIP3   OH238025   2.301   4.357   1.567  0.2942 -0.3187  0.0033
 5489TIP3    H138026   2.242   4.305   1.512  0.5149  0.0495 -0.5962
 5489TIP3    H238027   2.245   4.424   1.606  0.3026  0.0353 -0.5714
 5490TIP3   OH238028   1.866   3.009   6.474  0.2312  0.1899 -0.5154
 5490TIP3    H138029   1.948   2.996   6.521  0.4418 -1.7747 -1.3493
 5490TIP3    H238030   1.877   3.094   6.430  1.1895  0.6587  0.5763
 5491TIP3   OH238031   3.676   1.477   1.000 -0.1679  0.3027  0.1337
 5491TIP3    H138032   3.613   1.455   0.932  0.1297 -0.8757  0.2169
 5491TIP3    H238033   3.697   1.569   0.985 -1.8337  0.6932  0.0663
 5492TIP3   OH238034   2.548   4.014   1.993 -0.4636  0.0591 -0.0791
 5492TIP3    H138035   2.523   3.942   2.050  0.0694  0.6475  0.9308
 5492TIP3    H238036   2.642   4.003   1.981 -0.3409  0.6866  0.2478
 5493TIP3   OH238037   1.818   0.780   7.470 -0.0874  0.1013  0.5487
 5493TIP3    H138038   1.803   0.703   7.526  0.3918  0.6800  1.4853
 5493TIP3    H238039   1.730   0.806   7.442 -0.2638 -0.7235  0.2991
 5494TIP3   OH238040   0.688   2.387   6.557 -0.3262  0.9546 -0.5227
 5494TIP3    H138041   0.650   2.299   6.561 -1.3208  1.4041  1.8654
 5494TIP3    H238042   0.738   2.388   6.476 -3.0884 -0.6473 -2.4181
 5495TIP3   OH238043   1.357   0.199   7.214 -0.3328  0.0621  0.4047
 5495TIP3    H138044   1.331   0.215   7.305 -1.2100 -1.4835  0.4637
 5495TIP3    H238045   1.432   0.257   7.200  0.5136 -0.4390  2.4662
 5496TIP3   OH238046   6.918   6.518   0.139  0.4949 -0.0790  0.6724
 5496TIP3    H138047   6.931   6.426   0.162  0.3570  0.2955  2.3559
 5496TIP3    H238048   6.995   6.563   0.172  0.9300  0.3419 -0.8193
 5497TIP3   OH238049   4.845   4.292   1.678 -0.0982 -0.1734 -0.2348
 5497TIP3    H138050   4.894   4.220   1.716 -1.4187 -1.1596 -0.3563
 5497TIP3    H238051   4.838   4.357   1.748  2.5633  0.6479 -0.6250
 5498TIP3   OH238052   6.502   0.197   0.429 -0.4175  0.0535  0.3140
 5498TIP3    H138053   6.571   0.132   0.420  0.3255  0.6763  1.2539
 5498TIP3    H238054   6.545   0.272   0.471 -1.2490  1.1480 -0.7255
 5499TIP3   OH238055   3.493   2.979   6.112 -0.7594 -0.3732 -0.7362
 5499TIP3    H138056   3.542   3.059   6.095  0.6725 -0.8638  0.8346
 5499TIP3    H238057   3.472   2.945   6.025  1.2312  0.1431 -1.4694
 5500TIP3   OH238058   2.640   3.391   0.222  0.3822 -0.2052 -0.1219
 5500TIP3    H138059   2.603   3.305   0.241  0.8994 -0.4816 -0.3654
 5500TIP3    H238060   2.573   3.453   0.253  1.2609 -0.5998  2.8428
 5501TIP3   OH238061   1.301   0.976   8.145 -0.5283 -0.1889  0.2692
 5501TIP3    H138062   1.212   0.952   8.171 -0.7738  1.2285  0.8159
 5501TIP3    H238063   1.325   0.911   8.079 -1.1131 -1.9625  1.6918
 5502TIP3   OH238064   0.704   5.003   0.290 -0.1267  0.0766 -0.2804
 5502TIP3    H138065   0.645   4.966   0.355 -0.1107 -1.2029 -0.9603
 5502TIP3    H238066   0.791   4.982   0.322 -0.1372 -1.3884 -1.1631
 5503TIP3   OH238067   3.078   0.138   2.302 -0.4779  0.4718  0.7538
 5503TIP3    H138068   3.099   0.058   2.254 -2.1243  0.9107 -0.8033
 5503TIP3    H238069   3.153   0.195   2.289  0.2102 -0.3835  0.9189
 5504TIP3   OH238070   4.455   3.723   2.053  0.1635 -0.1569  0.0005
 5504TIP3    H138071   4.533   3.756   2.097 -0.0604 -1.1180  1.1736
 5504TIP3    H238072   4.384   3.780   2.084  0.2616  0.1938 -0.4126
 5505TIP3   OH238073   6.740   5.958   8.350  0.3434  0.3006  0.1505
 5505TIP3    H138074   6.683   6.002   8.415  0.4846  1.7777 -0.6715
 5505TIP3    H238075   6.679   5.915   8.291  0.1269  0.6126  0.1399
 5506TIP3   OH238076   3.871   3.829   2.102  0.1684  0.3500  0.0731
 5506TIP3    H138077   3.820   3.754   2.069 -0.5667  1.8515 -2.4111
 5506TIP3    H238078   3.933   3.789   2.163 -1.5841 -2.0144  0.4889
 5507TIP3   OH238079   0.864   2.136   0.111  0.3271  0.0137 -0.3267
 5507TIP3    H138080   0.939   2.077   0.122 -1.3774 -2.1388  0.4427
 5507TIP3    H238081   0.852   2.142   0.016 -0.9299 -3.0245 -0.4835
 5508TIP3   OH238082   5.575   2.582   8.310 -0.6042 -0.0421 -0.3292
 5508TIP3    H138083   5.568   2.661   8.257 -0.9454  0.7910  0.9296
 5508TIP3    H238084   5.487   2.565   8.341 -0.1581  0.4261  1.2807
 5509TIP3   OH238085   5.455   2.035   8.088 -0.3532 -1.1102  0.2273
 5509TIP3    H138086   5.512   2.100   8.130  1.6833 -1.0212 -2.4081
 5509TIP3    H238087   5.380   2.086   8.057  0.6102 -0.1893 -0.6881
 5510TIP3   OH238088   1.879   5.773   7.253  0.3928 -0.5401 -0.1971
 5510TIP3    H138089   1.907   5.739   7.338  1.6168 -0.4403 -0.5305
 5510TIP3    H238090   1.936   5.728   7.190  0.8587  0.8178 -0.7886
 5511TIP3   OH238091   1.850   1.395   6.812  0.1333 -0.0777 -0.0681
 5511TIP3    H138092   1.793   1.444   6.871 -1.0027 -1.5964  0.1423
 5511TIP3    H238093   1.793   1.367   6.740  1.2836  0.8936 -1.4388
 5512TIP3   OH238094   1.964   6.322   6.685 -0.0908  0.1331 -0.1426
 5512TIP3    H138095   2.015   6.384   6.736  2.0395 -0.1852 -1.7495
 5512TIP3    H238096   1.896   6.292   6.745  1.8700  0.2331  2.2994
 5513TIP3   OH238097   2.418   3.624   1.286 -0.0562  0.0838 -0.3055
 5513TIP3    H138098   2.473   3.701   1.281  1.4289 -0.8294  0.9390
 5513TIP3    H238099   2.413   3.592   1.196  0.8864  0.5830 -0.5481
 5514TIP3   OH238100   6.356   3.810   0.155  0.0920  0.1536 -0.5572
 5514TIP3    H138101   6.309   3.891   0.137 -0.3594 -0.0168 -0.1526
 5514TIP3    H238102   6.379   3.776   0.068  0.5622  0.8673 -0.7186
 5515TIP3   OH238103   3.390   3.759   1.518 -0.2848  0.0641  0.4410
 5515TIP3    H138104   3.421   3.679   1.559 -1.0224 -0.1881  0.5188
 5515TIP3    H238105   3.296   3.747   1.510 -0.2314  0.3582 -0.7944
 5516TIP3   OH238106   4.510   1.718   1.551 -0.3141  0.3436 -0.1492
 5516TIP3    H138107   4.515   1.750   1.461  2.6789  0.8724  0.0893
 5516TIP3    H238108   4.578   1.767   1.598 -0.7379 -1.0021  2.0410
 5517TIP3   OH238109   4.557   0.999   0.076 -0.5649 -0.0528 -0.2484
 5517TIP3    H138110   4.625   0.985   0.010  0.2583 -0.8346  0.7243
 5517TIP3    H238111   4.561   0.921   0.131 -0.9756  0.7417  0.9483
 5518TIP3   OH238112   1.399   3.841   0.359 -0.2830 -0.1216 -0.1245
 5518TIP3    H138113   1.350   3.770   0.317  0.7638 -1.9605  1.6089
 5518TIP3    H238114   1.384   3.828   0.452  0.8838  1.2602  0.2819
 5519TIP3   OH238115   4.291   4.006   6.570 -0.2856 -0.3044  0.5899
 5519TIP3    H138116   4.338   3.930   6.535 -0.4810 -0.7277  1.2435
 5519TIP3    H238117   4.268   4.057   6.492 -1.7922 -1.8566 -0.0238
 5520TIP3   OH238118   2.993   6.376   7.879  0.0312 -0.0115  0.3253
 5520TIP3    H138119   2.988   6.282   7.899  1.5879  0.0473  1.1000
 5520TIP3    H238120   2.992   6.418   7.965  1.4044  0.5643  0.0697
 5521TIP3   OH238121   5.199   6.179   6.831  0.4160 -0.1170  0.2632
 5521TIP3    H138122   5.268   6.245   6.833  1.4447 -1.1992  1.9836
 5521TIP3    H238123   5.226   6.112   6.894 -2.0935 -0.6873  0.8568
 5522TIP3   OH238124   0.036   3.678   7.139 -0.1323  0.0795  0.1345
 5522TIP3    H138125   0.127   3.688   7.166 -0.1946 -1.2119  0.9165
 5522TIP3    H238126   0.040   3.651   7.047  0.2790 -0.1392  0.2182
 5523TIP3   OH238127   4.175   2.687   1.772 -0.1320 -0.2339 -0.1805
 5523TIP3    H138128   4.143   2.650   1.854 -0.1050  0.6673  0.2441
 5523TIP3    H238129   4.224   2.616   1.732  2.5117  0.1660  2.0407
 5524TIP3   OH238130   0.521   5.014   0.075  0.0645  0.0375  0.5023
 5524TIP3    H138131   0.573   5.030   0.153 -0.6970 -1.7255  1.4408
 5524TIP3    H238132   0.440   5.063   0.090 -0.6319 -1.3587  1.4896
 5525TIP3   OH238133   5.450   1.096   1.342 -1.0251 -0.3474  0.4233
 5525TIP3    H138134   5.515   1.092   1.412 -1.2157 -0.1466  0.6119
 5525TIP3    H238135   5.412   1.008   1.339 -0.4785 -0.5784  0.0548
 5526TIP3   OH238136   6.750   4.838   0.841  0.3603  0.1973 -0.0608
 5526TIP3    H138137   6.796   4.907   0.794 -1.7142  0.6809 -1.5476
 5526TIP3    H238138   6.657   4.862   0.833 -0.3027 -1.8440  0.8704
 5527TIP3   OH238139   1.886   2.346   8.116 -0.1617 -0.1967  0.1098
 5527TIP3    H138140   1.982   2.349   8.118 -0.1401  2.5800 -0.4664
 5527TIP3    H238141   1.866   2.285   8.045  1.2179 -0.0594 -0.4371
 5528TIP3   OH238142   3.225   4.290   6.758  0.5904  0.0935  0.2373
 5528TIP3    H138143   3.303   4.301   6.813  1.3251 -0.8151 -0.5746
 5528TIP3    H238144   3.259   4.298   6.668 -0.4136  0.5736 -0.1125
 5529TIP3   OH238145   2.203   1.271   2.344  0.0261  0.4958 -0.2491
 5529TIP3    H138146   2.220   1.199   2.283 -3.9288 -1.8451  1.0284
 5529TIP3    H238147   2.185   1.346   2.288 -0.2396 -0.7005 -1.8315
 5530TIP3   OH238148   3.408   2.251   7.643  0.4431  0.5052 -0.0565
 5530TIP3    H138149   3.451   2.169   7.618 -1.9854 -1.0538  0.5385
 5530TIP3    H238150   3.464   2.287   7.712  1.5714 -0.6613 -0.3191
 5531TIP3   OH238151   4.816   2.424   0.307  0.6786 -0.5808 -0.0489
 5531TIP3    H138152   4.785   2.364   0.239 -0.6412 -0.9445  0.8294
 5531TIP3    H238153   4.911   2.409   0.311  0.3710 -2.8417  0.3359
 5532TIP3   OH238154   6.223   4.847   1.789  0.3810 -0.3222 -0.8805
 5532TIP3    H138155   6.264   4.907   1.727  0.0364 -0.7699 -1.5551
 5532TIP3    H238156   6.205   4.900   1.866 -1.8199  0.9783 -2.2021
 5533TIP3   OH238157   2.350   2.399   7.078 -0.3813 -0.6507  0.6261
 5533TIP3    H138158   2.395   2.483   7.092  0.0093 -0.4473 -1.4917
 5533TIP3    H238159   2.411   2.334   7.112  0.0962 -0.1723  0.7066
 5534TIP3   OH238160   0.766   2.594   0.002 -0.4573  0.1685 -0.3359
 5534TIP3    H138161   0.859   2.576   0.016 -0.6312 -2.2714 -1.8797
 5534TIP3    H238162   0.765   2.658  -0.069  0.0349  0.6155  0.0471
 5535TIP3   OH238163   0.484   3.143   1.340  0.2351 -0.8634 -0.2223
 5535TIP3    H138164   0.480   3.053   1.308 -1.7926 -1.2501  0.9586
 5535TIP3    H238165   0.449   3.138   1.429  0.0523  1.0835 -0.1539
 5536TIP3   OH238166   2.233   2.574   0.002  0.2945 -0.3492  0.2256
 5536TIP3    H138167   2.280   2.492   0.019  1.0650  0.0806  0.2284
 5536TIP3    H238168   2.209   2.569  -0.090  0.4191 -0.5374  0.2016
 5537TIP3   OH238169   4.012   6.358   0.038 -0.0768 -0.0047 -0.0617
 5537TIP3    H138170   4.005   6.435  -0.017  2.5526  0.6728  0.3800
 5537TIP3    H238171   3.990   6.388   0.126 -0.3521 -0.1008 -0.0960
 5538TIP3   OH238172   0.946   5.810   7.238  0.4219 -0.1103 -0.1541
 5538TIP3    H138173   0.955   5.729   7.288  1.5855  1.8225  3.0735
 5538TIP3    H238174   1.036   5.840   7.223  0.0171  0.7848 -0.9706
 5539TIP3   OH238175   0.874   4.677   6.389  0.1759  0.3969  0.1556
 5539TIP3    H138176   0.942   4.708   6.449 -1.0043  3.1658  0.2185
 5539TIP3    H238177   0.883   4.733   6.311 -1.5698  0.3659 -0.1125
 5540TIP3   OH238178   4.357   6.540   6.841  0.1066  0.1280  0.0023
 5540TIP3    H138179   4.401   6.473   6.893  1.5211  0.2967 -0.9084
 5540TIP3    H238180   4.427   6.579   6.789 -1.1024  0.5508 -1.3808
 5541TIP3   OH238181   3.229   4.440   5.755 -0.4590  0.1041 -0.7196
 5541TIP3    H138182   3.154   4.382   5.744 -0.7490  0.4386 -0.5326
 5541TIP3    H238183   3.212   4.485   5.838  0.9357 -1.2784  0.3741
 5542TIP3   OH238184   5.565   1.012   7.555 -0.4538 -0.4716  0.5027
 5542TIP3    H138185   5.586   1.008   7.648 -2.4305 -2.4682  0.9539
 5542TIP3    H238186   5.576   0.922   7.524 -0.7548 -0.0301 -0.9595
 5543TIP3   OH238187   4.076   1.094   1.268  0.2005  0.3856 -0.2684
 5543TIP3    H138188   4.001   1.118   1.214 -0.6051  0.5521  0.8956
 5543TIP3    H238189   4.057   1.132   1.354  0.3834 -1.7764  0.7774
 5544TIP3   OH238190   0.534   6.252   8.337 -0.1378 -0.2882 -0.3817
 5544TIP3    H138191   0.625   6.224   8.345 -0.8002 -2.4806  0.2223
 5544TIP3    H238192   0.526   6.284   8.247  1.0169 -0.9326 -0.7356
 5545TIP3   OH238193   5.317   5.503   6.961  0.5495  0.5217  0.0787
 5545TIP3    H138194   5.231   5.475   6.931  1.4021 -0.7117 -1.3970
 5545TIP3    H238195   5.354   5.426   7.004  0.7172  1.2144  1.2238
 5546TIP3   OH238196   2.603   5.909   8.058  0.0730  0.3183 -0.0067
 5546TIP3    H138197   2.521   5.861   8.074 -0.5842  1.7807  1.2451
 5546TIP3    H238198   2.621   5.895   7.965 -1.6222  0.0059 -0.3156
 5547TIP3   OH238199   0.130   6.903   7.139  0.3899  0.5583  0.5870
 5547TIP3    H138200   0.205   6.872   7.088 -0.2623  1.4266 -0.9537
 5547TIP3    H238201   0.107   6.987   7.100 -1.4697  0.2493  0.9044
 5548TIP3   OH238202   3.160   4.134   7.652 -0.0373  0.0297 -0.5820
 5548TIP3    H138203   3.173   4.136   7.557 -1.1650  0.5125 -0.7501
 5548TIP3    H238204   3.177   4.224   7.680 -1.4170  0.3351 -0.6147
 5549TIP3   OH238205   1.457   2.332   1.991  0.4150 -0.3874 -0.0267
 5549TIP3    H138206   1.484   2.328   2.082  0.7031  1.4531  0.0034
 5549TIP3    H238207   1.401   2.410   1.986 -2.4602 -2.3402 -0.7242
 5550TIP3   OH238208   1.159   1.785   0.286 -0.5126  0.5280  0.4384
 5550TIP3    H138209   1.099   1.715   0.311 -1.5161  1.3771  0.4779
 5550TIP3    H238210   1.240   1.765   0.332  0.6892 -2.8997 -2.6594
 5551TIP3   OH238211   5.998   2.219   7.930 -0.1388  0.0771  0.2276
 5551TIP3    H138212   6.091   2.196   7.923 -0.1530  0.2033 -0.4410
 5551TIP3    H238213   5.972   2.241   7.841 -1.3251 -1.9547  0.0032
 5552TIP3   OH238214   4.764   6.912   0.164  0.4936 -0.1968  0.0404
 5552TIP3    H138215   4.761   7.000   0.199  0.6962 -0.1633 -0.0238
 5552TIP3    H238216   4.789   6.923   0.072 -1.5862 -0.1614 -0.5704
 5553TIP3   OH238217   5.881   2.603   6.273  0.0678 -0.0416  0.1495
 5553TIP3    H138218   5.918   2.517   6.254 -1.2499 -0.9843  1.6539
 5553TIP3    H238219   5.957   2.658   6.291  0.9577 -0.7251 -1.3847
 5554TIP3   OH238220   2.824   4.718   1.349 -0.1571  0.2585 -0.9601
 5554TIP3    H138221   2.773   4.723   1.269 -0.7686 -0.2434 -0.6094
 5554TIP3    H238222   2.761   4.737   1.419  0.4566  1.1256 -0.6224
 5555TIP3   OH238223   4.780   5.831   8.341 -0.4577  0.0927 -0.1892
 5555TIP3    H138224   4.732   5.748   8.344 -1.0580  0.4554  0.7958
 5555TIP3    H238225   4.748   5.880   8.417 -0.5454  1.4637 -1.0670
 5556TIP3   OH238226   3.518   4.178   7.109 -0.2860  0.3513 -0.0741
 5556TIP3    H138227   3.473   4.202   7.028 -1.8437  0.8841  0.9107
 5556TIP3    H238228   3.477   4.095   7.135  0.2660  0.1398  0.1266
 5557TIP3   OH238229   5.660   0.933   0.828  0.4813  0.3435 -0.1493
 5557TIP3    H138230   5.634   0.888   0.909  1.0459  1.6436  0.7961
 5557TIP3    H238231   5.579   0.974   0.796 -0.2479 -2.0077 -1.5283
 5558TIP3   OH238232   1.128   5.014   0.055 -0.2231  0.4040 -0.1724
 5558TIP3    H138233   1.166   5.098   0.080  1.2579  0.5061 -2.4550
 5558TIP3    H238234   1.061   5.035  -0.010 -0.7685 -0.1212  0.2028
 5559TIP3   OH238235   6.321   3.611   7.994  0.3066 -0.6295  0.2158
 5559TIP3    H138236   6.249   3.548   7.992  0.9965 -1.4335  0.5219
 5559TIP3    H238237   6.310   3.662   7.914 -0.9638 -0.3324  0.5572
 5560TIP3   OH238238   1.458   1.392   0.417  0.1587  0.1964 -0.3532
 5560TIP3    H138239   1.539   1.346   0.393  1.0613  1.3613  0.3720
 5560TIP3    H238240   1.388   1.337   0.382  1.1337 -2.2319  1.3089
 5561TIP3   OH238241   0.485   5.825   0.628 -0.3454 -0.3170  0.3090
 5561TIP3    H138242   0.506   5.768   0.554  0.7627 -0.2435  0.5575
 5561TIP3    H238243   0.421   5.775   0.679 -2.0387  0.1068 -1.2872
 5562TIP3   OH238244   2.531   6.983   5.772  0.0474 -0.5455 -0.2403
 5562TIP3    H138245   2.622   6.973   5.745 -0.0992  1.8833 -2.0228
 5562TIP3    H238246   2.531   7.063   5.826 -0.9119 -0.9757  0.4199
 5563TIP3   OH238247   2.362   0.960   0.496  0.0169 -0.2311  0.7362
 5563TIP3    H138248   2.321   1.002   0.572  0.0653  0.8211  0.1950
 5563TIP3    H238249   2.407   1.031   0.451 -0.0450 -0.8396 -0.3010
 5564TIP3   OH238250   3.449   3.363   7.928  0.0626  0.4007 -0.0182
 5564TIP3    H138251   3.356   3.373   7.909  0.3050  0.6523 -1.1675
 5564TIP3    H238252   3.458   3.391   8.019 -1.1852 -0.9513  0.5523
 5565TIP3   OH238253   3.717   0.633   6.180  0.6335 -0.1473 -0.6846
 5565TIP3    H138254   3.667   0.701   6.135 -0.0526  0.7465  1.2704
 5565TIP3    H238255   3.650   0.576   6.220  1.1518 -0.0627  0.3551
 5566TIP3   OH238256   3.779   5.887   8.121  0.0271 -0.4597  0.5370
 5566TIP3    H138257   3.823   5.914   8.041  1.3260 -0.9782  1.0388
 5566TIP3    H238258   3.835   5.818   8.157 -0.7941 -0.5892  1.6279
 5567TIP3   OH238259   6.809   1.341   6.314 -0.1428 -0.4924  0.4028
 5567TIP3    H138260   6.727   1.346   6.363 -1.6150 -1.5945 -1.8354
 5567TIP3    H238261   6.858   1.270   6.356  0.7442  1.5015  3.1004
 5568TIP3   OH238262   1.860   2.674   1.072  0.0678 -0.3518 -0.3819
 5568TIP3    H138263   1.946   2.631   1.080 -0.4923 -2.5993 -4.0351
 5568TIP3    H238264   1.846   2.715   1.157  3.8569 -1.5591  1.0504
 5569TIP3   OH238265   5.074   3.288   0.141  0.2334  0.2835 -0.3926
 5569TIP3    H138266   5.134   3.344   0.190 -0.0206 -0.4543  0.7875
 5569TIP3    H238267   5.120   3.205   0.132  0.6076  0.6270 -2.1311
 5570TIP3   OH238268   4.922   4.560   7.546 -0.2818 -0.4717  0.0066
 5570TIP3    H138269   4.884   4.502   7.480 -2.3722  0.5455  0.2471
 5570TIP3    H238270   4.960   4.632   7.496 -1.0556 -0.1642 -0.1541
 5571TIP3   OH238271   1.066   2.885   6.459  0.5679  0.3328 -0.9225
 5571TIP3    H138272   1.154   2.855   6.483  0.4611  0.7399  0.0140
 5571TIP3    H238273   1.064   2.976   6.488 -0.7032 -0.1197  0.5422
 5572TIP3   OH238274   5.827   2.309   7.251  0.6009  0.3329 -0.2460
 5572TIP3    H138275   5.908   2.261   7.265  0.8567  0.4189 -1.3651
 5572TIP3    H238276   5.854   2.401   7.247  0.2746  0.4816  0.6252
 5573TIP3   OH238277   5.729   3.575   1.729 -0.4480 -0.3340 -0.0522
 5573TIP3    H138278   5.775   3.502   1.772  0.0610 -0.6699 -1.1414
 5573TIP3    H238279   5.799   3.631   1.697 -0.7475 -1.0694 -2.1234
 5574TIP3   OH238280   3.159   6.084   1.120  0.2047  0.0122  0.2647
 5574TIP3    H138281   3.166   6.137   1.199  0.9397 -0.9845  0.8921
 5574TIP3    H238282   3.246   6.044   1.110 -0.1746 -0.6601 -0.4806
 5575TIP3   OH238283   1.883   4.127   1.504  0.3592 -0.1982  0.4602
 5575TIP3    H138284   1.798   4.114   1.545  0.2463  1.2287  0.7485
 5575TIP3    H238285   1.881   4.073   1.425 -1.8100  1.6121 -0.8651
 5576TIP3   OH238286   4.845   4.664   7.101  0.0165 -0.3342 -0.4647
 5576TIP3    H138287   4.821   4.756   7.097  2.3251  0.3940  0.4947
 5576TIP3    H238288   4.787   4.626   7.167  1.0880  1.2139  1.4668
 5577TIP3   OH238289   4.264   4.748   7.147  0.2046 -0.1705 -1.0779
 5577TIP3    H138290   4.225   4.770   7.063 -0.6850 -0.3982 -0.7394
 5577TIP3    H238291   4.340   4.694   7.125 -0.3679 -0.7358 -1.7159
 5578TIP3   OH238292   5.221   0.997   2.405 -0.0822  0.2269 -0.0021
 5578TIP3    H138293   5.262   1.020   2.322  2.1565 -1.8253  0.4424
 5578TIP3    H238294   5.190   1.081   2.440  2.1373  1.6759 -1.2499
 5579TIP3   OH238295   2.816   1.308   1.330  0.5171  0.3563 -0.0261
 5579TIP3    H138296   2.849   1.320   1.241  1.5274  1.7677  0.5013
 5579TIP3    H238297   2.822   1.395   1.370  2.6693 -0.6917  2.2511
 5580TIP3   OH238298   0.595   0.266   7.716 -0.4908 -0.2314 -0.2970
 5580TIP3    H138299   0.625   0.311   7.637  3.5417 -0.2165  0.9797
 5580TIP3    H238300   0.598   0.173   7.693  1.7889 -0.3035 -0.0040
 5581TIP3   OH238301   0.269   6.492   6.829  0.0879  0.3070 -0.3194
 5581TIP3    H138302   0.206   6.480   6.758 -1.2309 -0.2201  0.8877
 5581TIP3    H238303   0.255   6.416   6.886  2.8646 -0.6549 -0.7329
 5582TIP3   OH238304   3.863   4.747   6.957  0.2817  0.2308  0.0838
 5582TIP3    H138305   3.786   4.780   7.003  1.1086  1.9389  0.3379
 5582TIP3    H238306   3.830   4.719   6.872 -0.9282 -1.0171  0.9295
 5583TIP3   OH238307   0.961   5.574   1.512 -0.6400 -0.1147  0.1268
 5583TIP3    H138308   1.046   5.538   1.539 -0.6792 -0.6020 -0.3835
 5583TIP3    H238309   0.917   5.595   1.594 -0.6131 -1.2365  0.4457
 5584TIP3   OH238310   6.421   3.586   6.700  0.3042  0.3514 -0.2441
 5584TIP3    H138311   6.423   3.492   6.713 -3.6381  0.2250  0.7082
 5584TIP3    H238312   6.417   3.623   6.788 -0.4907  1.2194 -0.6239
 5585TIP3   OH238313   4.414   0.176   0.584 -0.1308  0.3200  0.0237
 5585TIP3    H138314   4.471   0.208   0.514 -0.5218 -0.9274 -0.9044
 5585TIP3    H238315   4.427   0.081   0.584 -2.1974 -0.0091 -0.2365
 5586TIP3   OH238316   0.254   5.299   2.193 -0.1089 -0.2242 -0.6984
 5586TIP3    H138317   0.347   5.286   2.210  0.1214  0.7328 -1.1358
 5586TIP3    H238318   0.243   5.394   2.192 -2.0465 -0.1097  4.4215
 5587TIP3   OH238319   0.926   5.355   6.534  0.4075 -0.3031 -0.0643
 5587TIP3    H138320   0.945   5.449   6.526  1.5055 -0.2788  2.1630
 5587TIP3    H238321   0.893   5.344   6.622 -0.3197 -1.9505 -0.5030
 5588TIP3   OH238322   0.064   2.920   1.381 -0.2312 -0.4532 -0.5865
 5588TIP3    H138323   0.150   2.914   1.422 -1.2026 -1.0274  1.4899
 5588TIP3    H238324   0.072   2.993   1.320  0.7797  1.7765  2.0195
 5589TIP3   OH238325   6.119   3.437   7.835  0.2302 -0.2588 -0.6709
 5589TIP3    H138326   6.071   3.473   7.760 -0.3047  0.0462 -0.1901
 5589TIP3    H238327   6.060   3.449   7.909  0.7952 -0.4644 -0.1811
 5590TIP3   OH238328   2.967   2.772   0.227  1.0697  0.1447  0.3949
 5590TIP3    H138329   2.959   2.860   0.265 -0.3655  0.7722 -1.2437
 5590TIP3    H238330   2.934   2.781   0.138 -0.7850 -2.4249  0.7057
 5591TIP3   OH238331   3.098   1.413   8.056 -0.2931 -0.2764 -0.0370
 5591TIP3    H138332   3.132   1.384   7.971 -0.6453  0.2963 -0.3835
 5591TIP3    H238333   3.005   1.431   8.039 -0.5982 -1.1153  0.7186
 5592TIP3   OH238334   1.415   4.082   1.827  0.6843  0.2889 -0.8159
 5592TIP3    H138335   1.340   4.029   1.799  1.2006 -1.2420  0.6062
 5592TIP3    H238336   1.489   4.022   1.827  1.9147  1.7129 -1.9366
 5593TIP3   OH238337   2.532   1.056   1.310  0.1749  0.3101 -0.5533
 5593TIP3    H138338   2.493   1.001   1.378  1.4018 -0.6750 -0.6071
 5593TIP3    H238339   2.549   1.140   1.353  0.3519 -0.0997  0.1919
 5594TIP3   OH238340   1.754   0.989   0.499  0.2995 -0.4095  0.0601
 5594TIP3    H138341   1.752   1.009   0.593 -0.9641 -0.3401  0.0336
 5594TIP3    H238342   1.846   1.000   0.474  0.3271  1.7583  0.8396
 5595TIP3   OH238343   5.892   0.091   0.899 -0.1300  0.1376  0.6661
 5595TIP3    H138344   5.932   0.175   0.876  2.8361 -1.1011  0.8960
 5595TIP3    H238345   5.874   0.098   0.993  2.0138 -0.1402  1.1396
 5596TIP3   OH238346   5.295   2.578   0.068 -0.8301  0.0639 -0.0559
 5596TIP3    H138347   5.218   2.522   0.061  0.0832 -1.4177  1.0292
 5596TIP3    H238348   5.332   2.557   0.154  0.6815  0.8472 -0.4801
 5597TIP3   OH238349   5.092   1.141   8.050 -0.3708  0.5748  0.2586
 5597TIP3    H138350   5.098   1.075   8.120 -0.2765  1.6807  1.3357
 5597TIP3    H238351   5.152   1.110   7.983 -1.0185 -0.9053  0.3321
 5598TIP3   OH238352   4.202   5.742   1.003 -0.8232 -0.9087  0.0123
 5598TIP3    H138353   4.233   5.691   1.077  1.5954 -1.5042 -1.3239
 5598TIP3    H238354   4.111   5.762   1.024 -0.3128 -1.3275  2.9579
 5599TIP3   OH238355   3.549   5.391   7.620  0.1572 -0.2979 -0.1435
 5599TIP3    H138356   3.520   5.480   7.601  1.6641  0.2668  0.0982
 5599TIP3    H238357   3.578   5.356   7.535 -1.3583 -0.9489 -0.4317
 5600TIP3   OH238358   0.401   4.206   0.713  0.1410  0.1860  0.4832
 5600TIP3    H138359   0.404   4.264   0.789  0.1716 -1.9141  2.1762
 5600TIP3    H238360   0.350   4.254   0.648 -1.7190  1.2282  2.5804
 5601TIP3   OH238361   4.389   4.606   6.336 -0.4576 -0.5866  0.5462
 5601TIP3    H138362   4.483   4.614   6.321 -0.8536  3.3896 -1.1385
 5601TIP3    H238363   4.372   4.512   6.336  3.4157 -1.4393  0.6007
 5602TIP3   OH238364   5.518   5.224   1.301  0.1623  0.3645  0.7693
 5602TIP3    H138365   5.556   5.278   1.232  0.5857 -0.1331  0.6125
 5602TIP3    H238366   5.554   5.261   1.382 -0.5037  1.0832  0.7509
 5603TIP3   OH238367   5.078   4.548   7.222  0.6368 -0.0002  0.3186
 5603TIP3    H138368   4.991   4.565   7.185  0.4507  0.6742  1.0436
 5603TIP3    H238369   5.128   4.627   7.205  1.2220 -0.5051 -0.3715
 5604TIP3   OH238370   4.062   3.927   0.264 -0.4910 -0.5373 -0.2342
 5604TIP3    H138371   4.148   3.886   0.277 -0.7080 -0.8137  0.4079
 5604TIP3    H238372   4.004   3.878   0.323 -1.3235 -1.0920 -1.4748
 5605TIP3   OH238373   1.181   5.115   1.198  0.1414  0.1945  0.3430
 5605TIP3    H138374   1.130   5.039   1.172  1.2488 -0.1757 -0.8654
 5605TIP3    H238375   1.126   5.160   1.262 -1.5947 -0.2912 -0.7373
 5606TIP3   OH238376   3.399   4.245   6.546  0.4199 -0.4635 -0.3567
 5606TIP3    H138377   3.439   4.221   6.630  1.6960 -0.5926 -0.9663
 5606TIP3    H238378   3.460   4.309   6.508 -1.1310  1.0963 -0.3367
 5607TIP3   OH238379   3.197   3.435   7.871 -0.0566  0.0419  0.1614
 5607TIP3    H138380   3.147   3.375   7.816  0.5727 -1.0390  0.7462
 5607TIP3    H238381   3.133   3.473   7.930 -0.5624  0.4341 -0.6232
 5608TIP3   OH238382   4.567   1.798   7.470 -0.1919  0.0641 -0.5561
 5608TIP3    H138383   4.525   1.767   7.550  1.6365 -1.0252  0.0318
 5608TIP3    H238384   4.597   1.718   7.426 -0.1030  0.7224 -1.7414
 5609TIP3   OH238385   5.329   6.307   8.258  0.6273 -0.7939 -0.3753
 5609TIP3    H138386   5.398   6.250   8.225 -0.3282 -1.0164 -2.1228
 5609TIP3    H238387   5.266   6.248   8.298  1.3370 -0.6063  1.0643
 5610TIP3   OH238388   6.607   3.923   7.097  0.0691  0.7382  0.3745
 5610TIP3    H138389   6.518   3.958   7.097  0.0901  0.7985  0.9331
 5610TIP3    H238390   6.624   3.900   7.005  0.2677  2.7349 -0.1294
 5611TIP3   OH238391   3.927   0.152   6.155 -0.3408 -0.3155 -0.3830
 5611TIP3    H138392   3.922   0.095   6.078  0.0144 -0.0301 -0.6165
 5611TIP3    H238393   3.969   0.232   6.124 -0.9052  0.1129 -0.0751
 5612TIP3   OH238394   4.002   1.397   8.117  0.4496 -0.3687  0.4297
 5612TIP3    H138395   4.079   1.389   8.061  0.9183 -1.4847  1.1997
 5612TIP3    H238396   4.037   1.395   8.206 -0.3575  0.5680  0.7821
 5613TIP3   OH238397   4.678   2.655   1.025  0.7500 -0.1039  0.7509
 5613TIP3    H138398   4.682   2.737   1.075  1.6900 -0.0457  0.5943
 5613TIP3    H238399   4.625   2.676   0.948  1.4288  0.5084  0.4397
 5614TIP3   OH238400   6.321   2.854   8.038  0.4879 -0.3624  0.1761
 5614TIP3    H138401   6.277   2.838   8.122  0.2415 -0.6991 -0.0164
 5614TIP3    H238402   6.261   2.911   7.990  1.3714  1.2300  0.8668
 5615TIP3   OH238403   4.919   2.467   0.710 -0.3203  0.0689 -0.0246
 5615TIP3    H138404   4.858   2.401   0.678 -1.3330  1.4356 -0.9982
 5615TIP3    H238405   4.906   2.467   0.805  0.3381 -1.7068  0.1057
 5616TIP3   OH238406   3.645   4.328   7.654 -0.4332 -0.4524  0.3953
 5616TIP3    H138407   3.705   4.369   7.717  1.3497  1.3723 -2.2933
 5616TIP3    H238408   3.655   4.234   7.670 -0.1816 -0.0658  2.8752
 5617TIP3   OH238409   1.252   2.751   1.514  0.0921 -0.2222 -0.5644
 5617TIP3    H138410   1.238   2.807   1.438 -1.4319  0.9251  0.4924
 5617TIP3    H238411   1.282   2.811   1.583  1.9290 -1.3130 -0.3477
 5618TIP3   OH238412   0.751   5.788   6.430  0.2848  0.2099  0.5530
 5618TIP3    H138413   0.788   5.720   6.486  2.1892  0.9395  0.2428
 5618TIP3    H238414   0.703   5.739   6.363  0.7124 -0.7788  0.9363
 5619TIP3   OH238415   1.382   2.092   1.880 -0.1047  0.4294  0.3842
 5619TIP3    H138416   1.399   2.181   1.909  2.8290 -0.0274  0.3120
 5619TIP3    H238417   1.358   2.045   1.959 -0.9777  1.1010  0.5318
 5620TIP3   OH238418   1.466   2.216   2.241  0.8546  0.9732 -0.0703
 5620TIP3    H138419   1.413   2.153   2.191 -0.5160  0.6292  1.7237
 5620TIP3    H238420   1.519   2.161   2.299  0.0613  1.4188  1.1090
 5621TIP3   OH238421   2.135   1.568   7.839  0.1012 -0.1378 -0.3010
 5621TIP3    H138422   2.185   1.648   7.825  0.3167  0.1509  1.8272
 5621TIP3    H238423   2.043   1.596   7.834  0.1732  0.4512  1.3400
 5622TIP3   OH238424   5.358   1.737   1.566  0.1778  0.0478  0.3598
 5622TIP3    H138425   5.298   1.700   1.501  0.3525  1.9016 -0.9131
 5622TIP3    H238426   5.311   1.726   1.649 -0.9669 -0.4940 -0.3267
 5623TIP3   OH238427   0.378   6.029   0.825 -0.2198  0.2296 -0.0672
 5623TIP3    H138428   0.438   6.072   0.885  1.2427  3.0603 -3.2663
 5623TIP3    H238429   0.425   5.952   0.794 -1.0434 -1.3444  2.2699
 5624TIP3   OH238430   5.216   0.440   6.173 -0.5145  0.0568 -0.4276
 5624TIP3    H138431   5.138   0.467   6.220  0.2443 -0.7890  1.4236
 5624TIP3    H238432   5.277   0.514   6.182  0.2055 -0.7046  1.3842
 5625TIP3   OH238433   3.110   2.966   1.584  0.2465 -0.0238 -0.4940
 5625TIP3    H138434   3.148   2.942   1.668 -0.3965  0.5642 -0.0265
 5625TIP3    H238435   3.080   2.883   1.546 -0.3560 -0.1768  0.3038
 5626TIP3   OH238436   3.859   2.037   8.353 -0.1800  0.0311  0.2715
 5626TIP3    H138437   3.776   2.084   8.362  1.0584  2.4847 -0.2343
 5626TIP3    H238438   3.868   1.987   8.434 -2.4120 -0.8428  0.0523
 5627TIP3   OH238439   2.736   1.141   0.760  0.4085 -0.2308 -0.5608
 5627TIP3    H138440   2.820   1.102   0.785 -0.1926 -0.2639  1.5421
 5627TIP3    H238441   2.759   1.209   0.696  2.0543 -0.1403  0.0872
 5628TIP3   OH238442   3.151   0.466   8.099  0.2137 -0.3978 -0.3793
 5628TIP3    H138443   3.119   0.547   8.059 -0.5722 -0.6013 -0.1792
 5628TIP3    H238444   3.149   0.402   8.027 -0.5624 -0.5993 -0.1793
 5629TIP3   OH238445   3.405   5.465   0.357  1.0607 -0.2268  0.2505
 5629TIP3    H138446   3.407   5.373   0.329  0.8854  0.1127 -0.9244
 5629TIP3    H238447   3.357   5.464   0.440 -0.9043 -0.9400 -0.8343
 5630TIP3   OH238448   2.150   2.901   7.652  0.0203  0.2352 -0.4422
 5630TIP3    H138449   2.226   2.905   7.594 -0.3306  0.9033 -0.8675
 5630TIP3    H238450   2.109   2.817   7.631 -0.4688  0.7541 -1.6519
 5631TIP3   OH238451   4.218   6.529   6.285  0.9082 -0.4947 -0.1439
 5631TIP3    H138452   4.229   6.509   6.378  2.4219 -1.3581 -0.4707
 5631TIP3    H238453   4.170   6.454   6.250 -0.7239  0.3856  0.1328
 5632TIP3   OH238454   1.685   1.689   1.510  0.0862  0.0381 -0.7034
 5632TIP3    H138455   1.680   1.719   1.601  2.5179  0.2955 -0.5939
 5632TIP3    H238456   1.753   1.743   1.470 -0.9764 -0.0232 -2.7349
 5633TIP3   OH238457   1.892   1.594   7.729  0.6334  0.9443  0.1795
 5633TIP3    H138458   1.813   1.568   7.682  0.2109 -0.6704  1.6703
 5633TIP3    H238459   1.961   1.539   7.692  0.6489  0.9174  0.2482
 5634TIP3   OH238460   4.303   4.807   0.969  1.1623 -0.0706  0.3121
 5634TIP3    H138461   4.292   4.762   1.052  0.5290 -0.1737  0.1772
 5634TIP3    H238462   4.349   4.745   0.913 -1.3917 -1.3716 -0.5061
 5635TIP3   OH238463   3.873   0.971   7.907 -0.4308  0.3230 -0.1237
 5635TIP3    H138464   3.865   0.876   7.899  1.4599  0.0659  0.4939
 5635TIP3    H238465   3.884   1.003   7.818  2.7268 -0.5232 -0.1610
 5636TIP3   OH238466   4.373   6.730   8.070 -0.4611  0.6127  0.4526
 5636TIP3    H138467   4.408   6.756   7.984  0.5815 -1.9867 -0.0079
 5636TIP3    H238468   4.281   6.710   8.054  0.2933 -2.4637 -0.8305
 5637TIP3   OH238469   1.929   6.259   8.301  0.0700 -0.2598  0.6764
 5637TIP3    H138470   1.908   6.173   8.264 -1.3336 -0.1625  1.1809
 5637TIP3    H238471   1.928   6.318   8.226 -1.2486 -0.3229  0.6114
 5638TIP3   OH238472   2.117   5.429   0.065 -0.5145  0.1030  0.2639
 5638TIP3    H138473   2.034   5.470   0.089 -0.6443  0.2360 -0.4015
 5638TIP3    H238474   2.092   5.349   0.019 -0.2837  0.5383 -0.6221
 5639TIP3   OH238475   1.083   6.708   1.081  0.6205  0.3943 -0.2135
 5639TIP3    H138476   1.174   6.695   1.106  0.3029 -1.2767  0.1593
 5639TIP3    H238477   1.050   6.771   1.146  1.0860 -0.2227  0.6412
 5640TIP3   OH238478   0.298   4.700   0.794 -0.1364  0.1213 -0.4884
 5640TIP3    H138479   0.366   4.767   0.799  0.1382 -0.1749 -0.2366
 5640TIP3    H238480   0.342   4.623   0.760  0.1035 -0.6255  1.3928
 5641TIP3   OH238481   2.901   5.986   0.711  0.3539 -0.4838 -0.2451
 5641TIP3    H138482   2.935   5.949   0.793 -0.9690  0.4477  0.7630
 5641TIP3    H238483   2.946   6.071   0.703  0.3453 -0.4930 -0.3968
 5642TIP3   OH238484   0.282   2.519   7.836  0.6800 -0.1150  0.1180
 5642TIP3    H138485   0.355   2.471   7.798  2.2976  1.9483  0.4283
 5642TIP3    H238486   0.304   2.527   7.929  0.0013  0.4242  0.2456
 5643TIP3   OH238487   2.155   5.836   6.094  0.4238 -0.4842 -0.4645
 5643TIP3    H138488   2.175   5.904   6.158 -0.3789  0.0164 -0.7206
 5643TIP3    H238489   2.069   5.861   6.059  0.6999 -0.9257 -1.4952
 5644TIP3   OH238490   2.557   6.687   6.719 -0.3170  0.2888  0.4046
 5644TIP3    H138491   2.477   6.702   6.669 -0.6749 -2.0334  0.2066
 5644TIP3    H238492   2.527   6.652   6.803  0.4346  1.2704  1.1211
 5645TIP3   OH238493   6.718   1.365   0.998 -0.1111  0.0897  0.0995
 5645TIP3    H138494   6.763   1.445   1.028 -1.4698  1.1243 -0.5076
 5645TIP3    H238495   6.674   1.391   0.917  1.1670 -1.8915 -1.3116
 5646TIP3   OH238496   2.462   1.034   1.043  0.0456 -0.3839  0.5857
 5646TIP3    H138497   2.518   1.099   1.001 -1.2330 -1.0100 -2.3676
 5646TIP3    H238498   2.499   1.023   1.130  2.1511  2.0016  0.1107
 5647TIP3   OH238499   5.128   3.103   2.032 -0.1329 -0.0081  0.7923
 5647TIP3    H138500   5.224   3.109   2.031 -0.1380  0.1622  1.0720
 5647TIP3    H238501   5.099   3.194   2.033 -0.3668  0.0570 -2.1732
 5648TIP3   OH238502   3.250   5.577   0.054 -0.1482 -0.0046 -0.3310
 5648TIP3    H138503   3.160   5.546   0.058 -0.3553  0.4704 -1.1168
 5648TIP3    H238504   3.254   5.630  -0.026  0.9380 -0.3835 -0.5542
 5649TIP3   OH238505   5.319   3.253   1.185 -0.4045 -0.4435  0.0680
 5649TIP3    H138506   5.247   3.315   1.174 -0.3606  0.1076  2.2509
 5649TIP3    H238507   5.319   3.234   1.279  1.1442 -1.8679 -0.1744
 5650TIP3   OH238508   0.434   3.338   2.325 -0.4863  0.1099  0.0291
 5650TIP3    H138509   0.522   3.346   2.361 -0.8060  0.1290  0.8398
 5650TIP3    H238510   0.431   3.400   2.253  0.5504 -0.7659 -0.8076
 5651TIP3   OH238511   3.940   6.376   2.350 -0.1686  0.2583  0.4989
 5651TIP3    H138512   3.919   6.336   2.435 -2.1504  1.7750  0.7772
 5651TIP3    H238513   3.889   6.326   2.287 -0.5856  0.6732  0.5083
 5652TIP3   OH238514   4.826   0.174   1.287 -0.1865 -0.1716 -0.1214
 5652TIP3    H138515   4.754   0.238   1.285 -0.4157 -0.3871  0.6178
 5652TIP3    H238516   4.877   0.192   1.209 -0.5618  0.5574 -0.2064
 5653TIP3   OH238517   5.221   2.883   7.749 -0.1836 -0.6986 -0.5407
 5653TIP3    H138518   5.138   2.908   7.792 -0.2220  0.5031 -1.2677
 5653TIP3    H238519   5.289   2.911   7.811 -0.1662  2.4771 -1.8080
 5654TIP3   OH238520   6.759   2.961   7.216 -0.1864  0.1846  0.5069
 5654TIP3    H138521   6.834   3.014   7.244  0.3915  0.2029 -0.9886
 5654TIP3    H238522   6.721   3.009   7.143 -0.6579 -0.6448  0.1932
 5655TIP3   OH238523   3.846   1.567   1.993 -0.1416  0.0693  0.0181
 5655TIP3    H138524   3.804   1.514   2.061  0.9210 -1.2548 -0.3248
 5655TIP3    H238525   3.926   1.519   1.971  0.5763  1.5434 -0.7104
 5656TIP3   OH238526   1.621   2.476   0.074 -0.0229 -0.0038  0.5101
 5656TIP3    H138527   1.676   2.536   0.025  0.5806 -1.1954 -0.3263
 5656TIP3    H238528   1.533   2.513   0.067 -0.1264 -0.5478 -2.2501
 5657TIP3   OH238529   1.496   5.658   0.124 -0.2600 -0.7340 -0.5450
 5657TIP3    H138530   1.527   5.741   0.086  1.5106 -1.5493 -0.9373
 5657TIP3    H238531   1.475   5.604   0.048  0.9563 -1.5137 -0.3316
 5658TIP3   OH238532   6.146   0.796   1.172 -0.2519 -0.0146 -0.4537
 5658TIP3    H138533   6.116   0.761   1.256  0.2977 -1.1515 -0.7066
 5658TIP3    H238534   6.241   0.788   1.175 -0.1582  0.8767 -0.7941
 5659TIP3   OH238535   6.379   2.944   6.682  0.0313  0.1161  0.5417
 5659TIP3    H138536   6.290   2.952   6.647  0.1690 -0.5886  0.0009
 5659TIP3    H238537   6.436   2.967   6.608  0.3136 -0.7679  0.4752
 5660TIP3   OH238538   2.015   2.074   0.628 -0.3270 -0.0585 -0.5002
 5660TIP3    H138539   2.052   2.125   0.700 -2.1543  0.2509  0.2825
 5660TIP3    H238540   2.047   1.985   0.642 -0.8110 -0.0486  0.8446
 5661TIP3   OH238541   6.029   5.700   6.101  0.1421  0.0512 -0.0954
 5661TIP3    H138542   6.110   5.694   6.052  0.9233  1.0817  1.0066
 5661TIP3    H238543   5.962   5.723   6.036  0.8881  0.0569 -0.8690
 5662TIP3   OH238544   6.378   3.295   6.654 -0.2761 -0.0937  0.4627
 5662TIP3    H138545   6.403   3.231   6.587  1.6959  0.7907  0.2887
 5662TIP3    H238546   6.285   3.313   6.636 -0.5922 -2.0502 -0.1631
 5663TIP3   OH238547   6.953   2.702   2.124  0.2082 -0.0129  0.7175
 5663TIP3    H138548   7.021   2.754   2.167 -0.9125  2.2837 -0.1363
 5663TIP3    H238549   6.981   2.611   2.138  3.8463  0.7816 -0.2256
 5664TIP3   OH238550   6.326   4.394   1.390  0.1478  0.1060  0.0364
 5664TIP3    H138551   6.398   4.332   1.401 -0.5254 -0.6531  0.3113
 5664TIP3    H238552   6.366   4.471   1.350  1.2028 -0.0972  0.6625
 5665TIP3   OH238553   6.926   4.508   6.808 -0.3138 -0.0812 -0.3729
 5665TIP3    H138554   6.850   4.519   6.865  1.5934 -2.2572  2.9091
 5665TIP3    H238555   6.979   4.586   6.825  0.5701 -1.0358  1.5509
 5666TIP3   OH238556   1.746   2.924   2.263  0.2577 -0.4288 -0.2272
 5666TIP3    H138557   1.810   2.883   2.321  1.2097  0.7176 -0.4323
 5666TIP3    H238558   1.791   2.933   2.179 -0.6208 -0.7910 -0.7509
 5667TIP3   OH238559   0.983   3.712   0.265 -0.4365 -0.1417  0.2283
 5667TIP3    H138560   0.967   3.771   0.339 -0.2966 -1.1564  1.0930
 5667TIP3    H238561   1.032   3.639   0.303 -0.7038 -0.8736 -0.7911
 5668TIP3   OH238562   2.909   3.120   6.148 -0.5770 -0.3142  0.0853
 5668TIP3    H138563   2.821   3.097   6.119 -1.4820  2.2595  0.4958
 5668TIP3    H238564   2.918   3.212   6.124  2.0410 -0.5184  0.0405
 5669TIP3   OH238565   4.758   3.372   7.546  0.0894  0.0065  0.4404
 5669TIP3    H138566   4.734   3.303   7.608 -0.1454  0.3485  0.7358
 5669TIP3    H238567   4.848   3.394   7.568 -0.9627  2.4540  2.9483
 5670TIP3   OH238568   3.065   3.078   6.890 -0.3368 -0.0243  0.0446
 5670TIP3    H138569   3.042   3.169   6.871  1.2283  0.4142  0.1150
 5670TIP3    H238570   3.028   3.061   6.977  1.5733  1.4091  1.1955
 5671TIP3   OH238571   4.219   3.736   7.857 -0.5092 -0.0889 -0.1917
 5671TIP3    H138572   4.219   3.826   7.892  1.3609 -0.3843  0.7131
 5671TIP3    H238573   4.128   3.706   7.868 -0.8543  1.2134  0.8006
 5672TIP3   OH238574   5.095   0.589   7.335 -0.1448 -0.3973 -0.3705
 5672TIP3    H138575   5.009   0.581   7.376 -0.5373  0.5715 -0.9617
 5672TIP3    H238576   5.077   0.585   7.241  0.4531 -0.1452 -0.5008
 5673TIP3   OH238577   3.615   3.823   1.378 -0.8324  0.2924  0.0960
 5673TIP3    H138578   3.547   3.809   1.444 -2.0834  1.0385 -0.9861
 5673TIP3    H238579   3.598   3.756   1.312  0.5840 -0.6283  0.6192
 5674TIP3   OH238580   2.489   1.478   0.657  0.7646 -0.0524 -0.7724
 5674TIP3    H138581   2.464   1.386   0.666  1.5679 -0.1481  0.6540
 5674TIP3    H238582   2.571   1.477   0.609  0.6426 -0.0516 -0.9845
 5675TIP3   OH238583   6.587   3.146   7.934  0.1115 -0.1229 -0.7391
 5675TIP3    H138584   6.660   3.172   7.878 -0.4688  0.1659 -1.3731
 5675TIP3    H238585   6.575   3.053   7.918  1.3279 -0.5309  0.5313
 5676TIP3   OH238586   3.543   6.224   6.395 -0.7743  0.0567 -0.0793
 5676TIP3    H138587   3.520   6.140   6.435 -0.4801 -1.0284 -2.0065
 5676TIP3    H238588   3.470   6.242   6.335 -0.5798  0.9229 -0.0631
 5677TIP3   OH238589   5.156   3.031   6.380  1.0098 -0.0418  0.0437
 5677TIP3    H138590   5.219   3.053   6.312 -1.7109  0.4118 -2.5418
 5677TIP3    H238591   5.101   2.962   6.341 -1.1716  0.8151  1.3991
 5678TIP3   OH238592   1.003   6.858   8.265  0.2102 -0.0462 -0.1339
 5678TIP3    H138593   1.070   6.791   8.277 -0.0311 -0.4861 -1.1704
 5678TIP3    H238594   1.037   6.935   8.311  0.9079 -0.5980  0.2849
 5679TIP3   OH238595   3.306   6.926   1.147 -0.3267 -0.2670  0.2620
 5679TIP3    H138596   3.235   6.875   1.107 -0.7437 -0.6085  1.3999
 5679TIP3    H238597   3.262   6.977   1.215  0.2562  0.8514 -0.1930
 5680TIP3   OH238598   1.283   2.615   7.104 -0.4375  0.1812  0.4812
 5680TIP3    H138599   1.257   2.638   7.194 -0.2572 -1.2536  0.9174
 5680TIP3    H238600   1.210   2.564   7.070  0.2236 -0.7706  0.4426
 5681TIP3   OH238601   4.538   4.533   0.602 -0.5989 -0.0969  0.6697
 5681TIP3    H138602   4.594   4.531   0.679 -1.4360 -2.1200  1.2902
 5681TIP3    H238603   4.597   4.554   0.530  0.3311  1.0952  1.7260
 5682TIP3   OH238604   3.567   3.237   7.735 -0.4584 -0.0836  0.0051
 5682TIP3    H138605   3.608   3.158   7.770  0.1086 -0.2372 -0.9604
 5682TIP3    H238606   3.530   3.281   7.811  0.7553 -0.3818  0.7887
 5683TIP3   OH238607   6.164   4.356   8.306 -0.3321 -0.5185  0.1437
 5683TIP3    H138608   6.085   4.395   8.269  0.1665  0.9438  0.5491
 5683TIP3    H238609   6.232   4.374   8.241  0.6236  2.3519  1.7761
 5684TIP3   OH238610   3.870   2.137   6.328 -0.5635 -0.6171 -0.2767
 5684TIP3    H138611   3.948   2.147   6.382 -0.9529 -0.6731  0.2996
 5684TIP3    H238612   3.821   2.065   6.369 -0.6592 -0.9361 -0.9389
 5685TIP3   OH238613   1.344   4.871   1.580  0.6466  0.3661 -0.1254
 5685TIP3    H138614   1.325   4.802   1.644  1.7819  0.9481  0.8933
 5685TIP3    H238615   1.273   4.865   1.516 -0.0901 -0.7691  0.7555
 5686TIP3   OH238616   0.790   0.617   6.069  0.1775  0.0498  0.6364
 5686TIP3    H138617   0.857   0.658   6.013  1.6092  0.4859  2.5697
 5686TIP3    H238618   0.758   0.688   6.124  0.3967 -0.7549  1.8473
 5687TIP3   OH238619   4.304   2.723   6.681  0.4812 -0.6072  0.1073
 5687TIP3    H138620   4.355   2.756   6.756  0.7411  0.2085 -0.4123
 5687TIP3    H238621   4.278   2.802   6.634  0.9494 -1.1305 -1.0789
 5688TIP3   OH238622   0.562   5.970   0.345 -0.3615 -0.3667 -0.5063
 5688TIP3    H138623   0.541   5.936   0.432  1.5440 -1.2318 -0.3253
 5688TIP3    H238624   0.612   6.050   0.362 -0.9421  0.0758 -0.8417
 5689TIP3   OH238625   2.844   5.455   1.544 -0.4092  0.0956 -0.0312
 5689TIP3    H138626   2.825   5.542   1.507 -0.9259  0.0259  0.0646
 5689TIP3    H238627   2.830   5.395   1.471 -0.3040  0.0682 -0.0288
 5690TIP3   OH238628   0.103   4.986   6.485  0.3305  0.0818 -0.3765
 5690TIP3    H138629   0.179   4.931   6.506  0.3287  0.4600  0.7035
 5690TIP3    H238630   0.140   5.071   6.463  0.2096  0.5063  0.9618
 5691TIP3   OH238631   1.660   5.927   1.815  0.2429  0.1186  0.3902
 5691TIP3    H138632   1.656   6.022   1.826  0.7992  0.3586 -1.1817
 5691TIP3    H238633   1.585   5.894   1.863 -0.4302  1.4332  0.3017
 5692TIP3   OH238634   3.414   4.452   0.873 -0.5862 -0.7323 -0.4317
 5692TIP3    H138635   3.354   4.399   0.925 -1.2656 -0.0313 -0.5030
 5692TIP3    H238636   3.490   4.394   0.859 -0.8651 -1.3137  0.3826
 5693TIP3   OH238637   1.356   6.551   7.248  0.1413 -0.1549 -0.3133
 5693TIP3    H138638   1.371   6.492   7.322  0.6019 -0.0235 -0.2987
 5693TIP3    H238639   1.298   6.619   7.283  0.8703  0.2669  0.1237
 5694TIP3   OH238640   6.580   2.811   6.307 -0.1720  0.1711 -0.1438
 5694TIP3    H138641   6.607   2.853   6.225 -0.8500  0.4597 -0.2290
 5694TIP3    H238642   6.484   2.817   6.306 -0.4756 -2.9791 -1.0049
 5695TIP3   OH238643   2.652   4.194   7.274 -0.1935  0.5567 -0.1035
 5695TIP3    H138644   2.691   4.199   7.187  0.7811 -1.0178  0.1990
 5695TIP3    H238645   2.711   4.135   7.323 -0.6382  1.5218  1.6573
 5696TIP3   OH238646   4.873   6.970   0.460 -0.0848  0.1149 -0.0940
 5696TIP3    H138647   4.962   6.979   0.427 -0.5327 -1.9885 -2.1552
 5696TIP3    H238648   4.825   7.042   0.419  0.6412  1.3441  1.1404
 5697TIP3   OH238649   0.214   3.650   1.532  0.0625 -0.4204 -0.4651
 5697TIP3    H138650   0.198   3.631   1.625 -0.5159 -1.7099 -0.8009
 5697TIP3    H238651   0.286   3.592   1.508  1.9813  1.7509 -0.2272
 5698TIP3   OH238652   5.107   2.971   7.494  0.2265  0.2681 -0.4709
 5698TIP3    H138653   5.156   3.052   7.504  0.5643  0.0075  0.0760
 5698TIP3    H238654   5.139   2.915   7.565 -0.2909 -0.1955 -0.5934
 5699TIP3   OH238655   1.831   3.573   8.201  0.0727  0.3462  0.2845
 5699TIP3    H138656   1.924   3.552   8.198 -0.0648 -0.1696 -1.7166
 5699TIP3    H238657   1.818   3.638   8.132 -1.3546 -1.0255 -0.8044
 5700TIP3   OH238658   3.379   6.443   0.275  0.1890  0.3146 -0.1263
 5700TIP3    H138659   3.331   6.482   0.349  2.6888 -0.6096  2.1481
 5700TIP3    H238660   3.467   6.481   0.281  0.6149 -0.1766 -2.3750
 5701TIP3   OH238661   2.649   5.096   1.520 -0.6761  0.0135  0.1939
 5701TIP3    H138662   2.744   5.086   1.514 -0.8156 -0.6854 -1.2829
 5701TIP3    H238663   2.627   5.062   1.607  0.4836  0.9314  0.8890
 5702TIP3   OH238664   0.320   4.893   8.278  0.0061 -0.3516  0.3031
 5702TIP3    H138665   0.407   4.898   8.317  0.0579  0.7824  0.0784
 5702TIP3    H238666   0.279   4.977   8.298 -0.2142  0.0081 -1.4467
 5703TIP3   OH238667   3.293   6.693   0.443  0.1865 -0.2054  0.0225
 5703TIP3    H138668   3.285   6.775   0.395  1.9401  1.2534  2.0282
 5703TIP3    H238669   3.286   6.718   0.535  0.0455 -2.4200  0.6706
 5704TIP3   OH238670   2.060   2.863   6.141  0.2143 -0.0995  0.5256
 5704TIP3    H138671   1.982   2.854   6.196 -1.4323  0.4871 -1.5687
 5704TIP3    H238672   2.088   2.773   6.124 -1.2802 -0.4276 -0.3453
 5705TIP3   OH238673   6.512   2.196   0.548  0.2887 -0.1997  0.4610
 5705TIP3    H138674   6.584   2.238   0.595 -1.4756  1.4834  1.8591
 5705TIP3    H238675   6.550   2.118   0.509  3.3075  1.6226 -0.5312
 5706TIP3   OH238676   1.480   5.539   6.798 -0.4383 -0.1932  0.1750
 5706TIP3    H138677   1.419   5.508   6.865 -1.6716  0.9503 -0.3924
 5706TIP3    H238678   1.510   5.624   6.830  0.1861 -0.3504  0.0171
 5707TIP3   OH238679   2.707   3.088   8.234 -0.6024 -0.3398 -0.3399
 5707TIP3    H138680   2.681   3.024   8.167  0.1958  0.6952 -1.6941
 5707TIP3    H238681   2.627   3.104   8.284 -0.7640 -2.6253  0.2861
 5708TIP3   OH238682   1.889   3.001   1.298  0.1716 -0.2304 -0.8103
 5708TIP3    H138683   1.830   2.932   1.268 -1.6654  0.7093  0.4779
 5708TIP3    H238684   1.909   2.977   1.389 -0.6863  1.0146 -0.2684
 5709TIP3   OH238685   0.580   1.839   1.094 -0.1590  0.1854 -0.1750
 5709TIP3    H138686   0.601   1.824   1.001 -0.1970 -0.2793 -0.1090
 5709TIP3    H238687   0.580   1.752   1.133 -1.3514  0.2600  0.0164
 5710TIP3   OH238688   0.520   3.175   0.453 -0.0924 -0.2964  0.0277
 5710TIP3    H138689   0.533   3.193   0.546  0.3894 -1.1593  0.1355
 5710TIP3    H238690   0.431   3.139   0.448  0.8592 -2.8984  0.5781
 5711TIP3   OH238691   6.205   1.690   1.384 -0.3092 -0.3428 -0.3989
 5711TIP3    H138692   6.192   1.777   1.423  1.0162 -0.9006  1.3711
 5711TIP3    H238693   6.125   1.642   1.407  0.7365 -0.8935  2.4147
 5712TIP3   OH238694   3.134   1.581   1.205  0.0515  0.2494  0.3252
 5712TIP3    H138695   3.116   1.574   1.299 -1.0534 -2.2885  0.0132
 5712TIP3    H238696   3.063   1.532   1.163  1.1529  0.3315 -1.7668
 5713TIP3   OH238697   4.476   4.158   2.145  0.2243 -0.4178 -0.5882
 5713TIP3    H138698   4.394   4.206   2.133 -0.0509 -0.7731 -0.1633
 5713TIP3    H238699   4.533   4.219   2.192 -0.6635 -1.0170  1.3937
 5714TIP3   OH238700   4.293   0.139   0.167  0.0560  0.3331  0.2803
 5714TIP3    H138701   4.302   0.234   0.155  0.2017  0.4420  1.1654
 5714TIP3    H238702   4.276   0.105   0.080 -1.1478  1.3178  0.0980
 5715TIP3   OH238703   1.266   2.515   7.587  0.7947  0.0350  0.3523
 5715TIP3    H138704   1.301   2.598   7.622  1.2693  0.3713 -0.8906
 5715TIP3    H238705   1.340   2.475   7.542  0.4975 -0.9645  0.7360
 5716TIP3   OH238706   1.975   4.527   7.506 -0.6411 -0.9023  0.3659
 5716TIP3    H138707   1.930   4.576   7.575 -0.4677 -0.6884  0.3279
 5716TIP3    H238708   1.994   4.441   7.545  0.5697 -0.3616  1.0128
 5717TIP3   OH238709   2.480   2.993   1.986 -0.6365  0.1040 -0.5035
 5717TIP3    H138710   2.483   3.036   1.901 -2.5196 -1.2505 -1.3168
 5717TIP3    H238711   2.386   2.981   2.004 -0.2967 -3.5653 -0.3553
 5718TIP3   OH238712   0.718   2.234   1.470 -0.1125 -0.1508 -0.1335
 5718TIP3    H138713   0.796   2.288   1.458  0.8132 -1.5723 -0.6776
 5718TIP3    H238714   0.684   2.221   1.381 -0.5351 -0.1881  0.0287
 5719TIP3   OH238715   3.304   0.288   2.223  0.1745 -0.3191 -0.3076
 5719TIP3    H138716   3.363   0.363   2.218 -0.2511  0.0461  0.0197
 5719TIP3    H238717   3.353   0.216   2.184  0.3069  0.3030 -1.3422
 5720TIP3   OH238718   2.199   6.744   1.260 -0.0328  0.1485 -0.8448
 5720TIP3    H138719   2.200   6.670   1.199 -0.7675 -1.4902  1.0124
 5720TIP3    H238720   2.238   6.817   1.210  1.9810 -1.7981 -2.3240
 5721TIP3   OH238721   3.970   4.275   1.410  0.0799  0.7258 -0.1139
 5721TIP3    H138722   3.966   4.210   1.480 -3.1378  0.3477 -0.5116
 5721TIP3    H238723   4.062   4.276   1.384  0.4465 -3.1581  0.3834
 5722TIP3   OH238724   1.652   5.619   0.378  0.3638  0.3505  0.1979
 5722TIP3    H138725   1.592   5.636   0.305  0.3352  0.3765  0.2273
 5722TIP3    H238726   1.663   5.524   0.379  0.3440  0.3483  0.1760
 5723TIP3   OH238727   4.482   3.803   7.447 -0.1057 -0.7224 -0.3723
 5723TIP3    H138728   4.494   3.893   7.419 -1.8216 -0.1785  0.5597
 5723TIP3    H238729   4.540   3.794   7.523 -1.1287  0.1042  0.5297
 5724TIP3   OH238730   1.396   3.206   1.792 -0.3893 -0.0660  0.1883
 5724TIP3    H138731   1.315   3.218   1.844  0.4010 -0.7615  1.6451
 5724TIP3    H238732   1.466   3.237   1.850  0.3089  2.0722 -1.6500
 5725TIP3   OH238733   1.055   4.189   0.024  0.3023 -0.2277 -0.0873
 5725TIP3    H138734   1.062   4.247   0.100  1.7234 -0.2132 -0.1931
 5725TIP3    H238735   0.997   4.236  -0.036  1.0904  0.9087  0.0020
 5726TIP3   OH238736   2.181   3.614   0.924  0.7797 -0.0057 -0.3949
 5726TIP3    H138737   2.114   3.548   0.942 -0.6741  0.9986 -1.8763
 5726TIP3    H238738   2.157   3.688   0.980  1.2030  0.0265 -0.2512
 5727TIP3   OH238739   4.299   0.044   7.452  0.4724  0.6102  0.0916
 5727TIP3    H138740   4.263  -0.044   7.467 -0.5990  0.4209 -3.0248
 5727TIP3    H238741   4.394   0.032   7.459  0.3078 -0.5788  0.6113
 5728TIP3   OH238742   4.323   5.121   7.390 -0.3891  0.6881 -0.0320
 5728TIP3    H138743   4.406   5.096   7.430 -0.0665  1.1964 -0.3711
 5728TIP3    H238744   4.259   5.111   7.460 -0.2108 -0.6451 -0.0400
 5729TIP3   OH238745   0.946   6.631   7.045 -0.0157 -0.0607  0.5222
 5729TIP3    H138746   1.015   6.576   7.082  0.9819  1.0986  0.4553
 5729TIP3    H238747   0.993   6.708   7.011 -1.1159 -0.1479 -1.3122
 5730TIP3   OH238748   4.079   6.005   7.725  0.2662 -0.5318  0.0006
 5730TIP3    H138749   4.022   5.928   7.731 -0.2681 -0.1440 -0.0228
 5730TIP3    H238750   4.041   6.067   7.787  0.9891 -0.4707  0.3867
 5731TIP3   OH238751   5.639   5.342   1.536 -0.2344  0.1385  0.3135
 5731TIP3    H138752   5.559   5.353   1.587 -0.9780 -1.6039 -0.4047
 5731TIP3    H238753   5.706   5.323   1.602 -0.5824  0.7674  0.8572
 5732TIP3   OH238754   2.247   1.399   0.078 -0.7101 -0.1134  0.5616
 5732TIP3    H138755   2.153   1.409   0.087 -1.0551 -0.9680 -1.5087
 5732TIP3    H238756   2.277   1.370   0.165 -2.8687 -3.2533  0.4146
 5733TIP3   OH238757   4.515   2.268   8.338  0.0084 -0.2889  0.2888
 5733TIP3    H138758   4.539   2.361   8.338 -0.0633 -0.2526  1.8755
 5733TIP3    H238759   4.593   2.223   8.370 -0.0147 -0.7696 -0.3139
 5734TIP3   OH238760   0.159   0.302   7.610 -0.4156 -0.4067 -0.0775
 5734TIP3    H138761   0.242   0.314   7.565 -0.7922 -0.5393 -0.8251
 5734TIP3    H238762   0.167   0.216   7.652 -0.5361 -0.8682 -0.9709
 5735TIP3   OH238763   5.565   0.286   1.036 -0.3787 -0.0207 -0.6592
 5735TIP3    H138764   5.620   0.363   1.024  1.1150 -0.7593  1.0514
 5735TIP3    H238765   5.479   0.312   1.003 -0.3327  2.9039  1.2010
 5736TIP3   OH238766   3.482   1.795   0.997  0.4133 -0.1818 -0.2455
 5736TIP3    H138767   3.552   1.790   1.063  0.6129  0.7670 -0.3599
 5736TIP3    H238768   3.401   1.784   1.047  0.5362  1.0034  0.2581
 5737TIP3   OH238769   5.682   4.981   1.202  0.6254 -0.0842 -0.3466
 5737TIP3    H138770   5.639   5.028   1.274  2.4801 -0.3773  1.0286
 5737TIP3    H238771   5.723   5.050   1.150 -0.3044  0.0953 -0.8567
 5738TIP3   OH238772   6.980   2.358   0.938  0.0247  0.1822 -0.4748
 5738TIP3    H138773   7.046   2.414   0.898 -1.0311  0.6360 -1.6481
 5738TIP3    H238774   6.967   2.395   1.025 -0.6267  1.8040 -1.2132
 5739TIP3   OH238775   4.475   3.447   6.848 -0.0877 -0.7506  0.1677
 5739TIP3    H138776   4.553   3.408   6.808 -1.5772 -2.6721 -1.0282
 5739TIP3    H238777   4.415   3.374   6.860 -1.3210  0.4920  2.1014
 5740TIP3   OH238778   3.230   0.803   7.478 -0.2087 -0.3693  0.3964
 5740TIP3    H138779   3.198   0.886   7.443  0.2028  0.1082  1.1174
 5740TIP3    H238780   3.153   0.746   7.477 -0.4484 -0.0492 -0.2892
 5741TIP3   OH238781   6.707   3.051   2.186  0.3209  0.0335  0.3551
 5741TIP3    H138782   6.774   3.095   2.238  0.5549  0.3740 -0.2271
 5741TIP3    H238783   6.644   3.119   2.165 -0.1692 -0.2674  0.8257
 5742TIP3   OH238784   0.285   5.835   8.126  0.4129  0.0855 -0.2136
 5742TIP3    H138785   0.237   5.887   8.061 -2.0189 -2.4543 -0.6375
 5742TIP3    H238786   0.337   5.899   8.174 -0.5982  2.5645 -2.1962
 5743TIP3   OH238787   1.686   0.307   2.281  0.2401  0.0384 -0.2379
 5743TIP3    H138788   1.621   0.372   2.254  0.2546  0.8495  1.5036
 5743TIP3    H238789   1.768   0.338   2.243  0.8942  2.9262  2.9179
 5744TIP3   OH238790   3.959   2.609   1.258 -0.0079  0.6220 -0.1311
 5744TIP3    H138791   4.032   2.591   1.317 -0.7778 -0.3659  0.5421
 5744TIP3    H238792   3.993   2.589   1.171  0.7407  0.8587  0.1033
 5745TIP3   OH238793   2.200   4.102   6.589  0.6010  0.3270  0.0330
 5745TIP3    H138794   2.222   4.106   6.682  2.2251  0.4009 -0.3241
 5745TIP3    H238795   2.239   4.181   6.552 -3.0831  2.2255 -0.1806
 5746TIP3   OH238796   5.643   1.542   6.199  0.4900  0.4658  0.4189
 5746TIP3    H138797   5.631   1.459   6.246  1.1489 -0.8948 -1.6463
 5746TIP3    H238798   5.717   1.583   6.242  0.2952 -0.1084  1.3473
 5747TIP3   OH238799   0.040   1.365   1.137  0.3068 -0.2563 -0.6271
 5747TIP3    H138800   0.002   1.443   1.177  1.8933  0.8844 -1.2009
 5747TIP3    H238801   0.005   1.292   1.187 -1.6958  0.7743 -0.4508
 5748TIP3   OH238802   5.846   4.212   6.609 -0.0695 -0.1174 -0.0158
 5748TIP3    H138803   5.805   4.132   6.576  0.0989  0.1309 -0.8461
 5748TIP3    H238804   5.876   4.257   6.531 -0.0207  0.6853  0.4588
 5749TIP3   OH238805   4.949   4.274   0.851  0.4573  0.0733  0.0209
 5749TIP3    H138806   4.929   4.357   0.810 -1.4630 -0.5711 -0.4595
 5749TIP3    H238807   4.974   4.296   0.941 -2.2132  1.0842  0.6081
 5750TIP3   OH238808   5.544   0.572   7.252  0.4166 -0.2754  0.5688
 5750TIP3    H138809   5.495   0.596   7.174 -0.0708  0.4730  1.0904
 5750TIP3    H238810   5.477   0.555   7.318  0.7659  3.0626  1.9825
 5751TIP3   OH238811   2.684   3.780   0.277  0.3650 -0.3378 -0.3668
 5751TIP3    H138812   2.613   3.746   0.223  1.9668 -1.0463 -2.1827
 5751TIP3    H238813   2.667   3.745   0.364 -2.4671  1.0456 -0.2561
 5752TIP3   OH238814   5.814   2.912   7.954 -0.4886 -0.2395  0.4150
 5752TIP3    H138815   5.842   2.989   7.904  0.6512  0.2919  1.7889
 5752TIP3    H238816   5.749   2.946   8.016 -0.7545 -0.5945  0.3347
 5753TIP3   OH238817   6.612   6.965   7.578 -0.1832 -0.8389 -0.3840
 5753TIP3    H138818   6.653   6.926   7.501 -0.5153  1.3758 -1.7889
 5753TIP3    H238819   6.681   7.021   7.616 -0.2165 -1.4322  0.5769
 5754TIP3   OH238820   4.286   0.714   1.626  0.5639 -0.0822 -1.0244
 5754TIP3    H138821   4.377   0.742   1.636  0.1986  1.1197 -0.8997
 5754TIP3    H238822   4.289   0.620   1.639  1.5300  0.1624  0.9098
 5755TIP3   OH238823   3.492   1.341   7.428 -0.7491  0.5567  0.1765
 5755TIP3    H138824   3.526   1.301   7.508 -1.5892 -1.1322 -0.2710
 5755TIP3    H238825   3.481   1.433   7.451  0.5950  0.4456  1.4679
 5756TIP3   OH238826   6.896   2.675   1.352 -0.5038  0.1346  0.7827
 5756TIP3    H138827   6.964   2.652   1.414 -2.0572  1.3623  3.1214
 5756TIP3    H238828   6.915   2.766   1.329 -0.0518 -0.2522 -0.4413
 5757TIP3   OH238829   1.045   1.104   1.346  0.7199 -0.5323 -0.2881
 5757TIP3    H138830   1.034   1.028   1.288  0.1993  0.4749 -1.5662
 5757TIP3    H238831   0.958   1.117   1.384  0.7437 -0.4223 -0.2710
 5758TIP3   OH238832   5.006   4.781   7.734  0.7833 -0.6281 -0.4925
 5758TIP3    H138833   4.995   4.688   7.714  0.8249 -0.5452 -0.9103
 5758TIP3    H238834   5.039   4.820   7.652 -1.2923  0.1522 -1.0367
 5759TIP3   OH238835   4.832   4.034   2.107  0.0200 -0.7477 -0.2136
 5759TIP3    H138836   4.795   4.101   2.050 -0.3201 -2.0056 -1.5164
 5759TIP3    H238837   4.757   3.998   2.153  0.2871  0.2295  1.0646
 5760TIP3   OH238838   0.782   4.683   0.517 -0.1129 -0.1416 -0.2392
 5760TIP3    H138839   0.755   4.599   0.481  1.0531 -0.9794  0.7408
 5760TIP3    H238840   0.878   4.680   0.517 -0.0565  0.5713  1.1748
 5761TIP3   OH238841   3.475   4.070   1.652  0.0425 -0.0887 -0.2263
 5761TIP3    H138842   3.558   4.059   1.607  0.2299  0.4633 -0.0247
 5761TIP3    H238843   3.497   4.068   1.745 -0.1725  0.0415 -0.1712
 5762TIP3   OH238844   2.533   3.202   0.692  0.1018 -0.8771 -0.0542
 5762TIP3    H138845   2.577   3.281   0.660 -0.7075  0.0591  1.0654
 5762TIP3    H238846   2.461   3.235   0.746  0.5657 -2.3747  1.5687
 5763TIP3   OH238847   5.814   2.417   6.532  0.0674  0.2417  0.3803
 5763TIP3    H138848   5.878   2.345   6.530 -1.6086 -1.3150  0.7489
 5763TIP3    H238849   5.807   2.444   6.440 -0.8995 -1.5863 -0.1175
 5764TIP3   OH238850   5.483   1.687   7.127 -0.3495  0.0751 -0.0557
 5764TIP3    H138851   5.388   1.680   7.112 -0.2539 -1.6049 -0.0350
 5764TIP3    H238852   5.521   1.616   7.076  0.8317  0.2320  0.5682
 5765TIP3   OH238853   6.726   0.937   0.324  0.1734 -0.2159  0.0543
 5765TIP3    H138854   6.649   0.913   0.272  0.9599 -0.6505 -0.9523
 5765TIP3    H238855   6.690   0.982   0.400 -1.0313  0.6162 -0.9515
 5766TIP3   OH238856   3.133   2.558   7.307  0.3485 -0.1350  0.0434
 5766TIP3    H138857   3.058   2.522   7.260  0.6168  0.0852 -0.5676
 5766TIP3    H238858   3.147   2.498   7.380  0.6742 -1.1805 -0.8516
 5767TIP3   OH238859   2.950   4.292   6.806 -0.6218 -0.2578 -0.5433
 5767TIP3    H138860   2.917   4.289   6.716 -1.6526 -0.0707 -0.1888
 5767TIP3    H238861   3.044   4.306   6.796 -0.6900 -0.4127 -1.5950
 5768TIP3   OH238862   6.553   6.044   1.842 -0.0617 -0.4750  0.0699
 5768TIP3    H138863   6.544   6.005   1.755  0.6794  0.0187 -0.2421
 5768TIP3    H238864   6.628   6.103   1.834 -0.1839 -0.1819  0.9597
 5769TIP3   OH238865   6.725   1.624   6.704 -0.5877  0.2121 -0.8107
 5769TIP3    H138866   6.674   1.706   6.702 -0.3703  0.3574 -0.3938
 5769TIP3    H238867   6.796   1.641   6.765 -0.1503 -0.0643 -1.2337
 5770TIP3   OH238868   1.608   1.244   7.464 -0.3670  0.3594  0.4217
 5770TIP3    H138869   1.536   1.182   7.451 -0.1650  0.2379 -0.1798
 5770TIP3    H238870   1.664   1.202   7.529 -0.7987  0.4185  0.8335
 5771TIP3   OH238871   2.037   1.373   2.094  0.3634  0.3445 -0.6186
 5771TIP3    H138872   1.984   1.453   2.092 -1.1524 -0.6126 -0.1558
 5771TIP3    H238873   2.124   1.403   2.119  0.9324  2.4120 -4.3491
 5772TIP3   OH238874   0.645   0.328   1.023  0.2580  0.4847 -0.4769
 5772TIP3    H138875   0.702   0.405   1.021 -0.0046  0.6799 -0.6375
 5772TIP3    H238876   0.658   0.291   1.110  2.7013 -1.0803 -1.4042
 5773TIP3   OH238877   2.167   6.710   8.185 -0.3039  0.2459  0.0346
 5773TIP3    H138878   2.227   6.636   8.174  0.2699  0.7086  0.0071
 5773TIP3    H238879   2.108   6.683   8.256 -0.6548 -0.5850 -0.5572
 5774TIP3   OH238880   2.071   0.615   7.155  0.2315  0.6218  0.5121
 5774TIP3    H138881   2.138   0.581   7.215  0.4912 -1.2044 -0.7271
 5774TIP3    H238882   2.041   0.696   7.196  0.3579 -0.5511  3.1115
 5775TIP3   OH238883   1.378   1.516   0.859  0.0612  0.0590  0.2997
 5775TIP3    H138884   1.292   1.520   0.818  1.1262 -0.9036 -2.2047
 5775TIP3    H238885   1.365   1.461   0.936 -1.3596 -0.9198 -0.5922
 5776TIP3   OH238886   0.431   3.061   2.359 -0.1318  0.8566 -0.2312
 5776TIP3    H138887   0.487   3.027   2.288 -0.2108  1.3639 -0.5452
 5776TIP3    H238888   0.440   3.156   2.352  0.1736  0.9072  0.7025
 5777TIP3   OH238889   1.602   1.584   0.158  0.4541 -0.5398  0.1714
 5777TIP3    H138890   1.640   1.521   0.219  2.1211  1.8451  1.7945
 5777TIP3    H238891   1.638   1.669   0.185 -2.8336  1.4069 -0.8426
 5778TIP3   OH238892   5.407   5.245   7.101  0.7467  0.3181  0.0205
 5778TIP3    H138893   5.498   5.215   7.102  0.3113 -1.1008  0.2808
 5778TIP3    H238894   5.359   5.171   7.064 -0.3226  1.0078 -0.0007
 5779TIP3   OH238895   5.969   0.030   8.363  0.0442  0.2101 -0.2341
 5779TIP3    H138896   5.997   0.120   8.346 -0.1134 -0.0460 -2.0468
 5779TIP3    H238897   5.982   0.019   8.457 -0.8780  2.4411  0.2369
 5780TIP3   OH238898   0.439   2.730   0.744  0.0039 -0.0049  0.4588
 5780TIP3    H138899   0.359   2.703   0.700 -1.3988  2.7050  1.1351
 5780TIP3    H238900   0.503   2.739   0.673 -0.0788 -2.5712 -0.0427
 5781TIP3   OH238901   4.928   4.445   6.223  0.7322 -0.2863 -0.1291
 5781TIP3    H138902   5.012   4.424   6.182  1.3311  0.7300  0.5438
 5781TIP3    H238903   4.921   4.384   6.296  0.2972 -1.1763 -0.8741
 5782TIP3   OH238904   1.102   1.556   1.551 -0.1998 -0.2114 -0.2222
 5782TIP3    H138905   1.144   1.472   1.538 -0.5914 -0.3109 -0.8749
 5782TIP3    H238906   1.169   1.621   1.529  0.3807 -0.3203  1.1150
 5783TIP3   OH238907   6.846   1.257   7.400 -0.2781  0.8969 -0.2541
 5783TIP3    H138908   6.864   1.326   7.464  0.2879  0.7659 -0.2680
 5783TIP3    H238909   6.758   1.226   7.422  0.2421  0.2476  1.0295
 5784TIP3   OH238910   4.586   3.770   6.830 -0.2904  0.3519 -0.7473
 5784TIP3    H138911   4.674   3.736   6.846  0.2135  2.0927  0.5160
 5784TIP3    H238912   4.599   3.841   6.768 -1.0318 -0.3094 -1.6912
 5785TIP3   OH238913   3.237   5.512   1.954 -0.0538 -0.0781 -0.8745
 5785TIP3    H138914   3.144   5.488   1.961 -0.2951  1.1238  0.4105
 5785TIP3    H238915   3.236   5.606   1.936  0.9126  0.2268  0.4952
 5786TIP3   OH238916   0.550   6.714   6.293  0.2113 -0.4367 -0.0323
 5786TIP3    H138917   0.555   6.698   6.388  0.3101 -0.7670 -0.0915
 5786TIP3    H238918   0.602   6.643   6.255 -1.0712 -1.2043 -0.4264
 5787TIP3   OH238919   0.301   5.319   0.234 -0.2304  0.4501  0.0484
 5787TIP3    H138920   0.387   5.338   0.271  0.1858 -1.9214  0.4646
 5787TIP3    H238921   0.244   5.388   0.268  1.4317  1.8967 -0.0125
 5788TIP3   OH238922   0.398   4.161   8.063  0.5174 -0.1530  0.0629
 5788TIP3    H138923   0.402   4.205   7.978 -2.7602  0.5487  0.1152
 5788TIP3    H238924   0.389   4.232   8.127 -2.4152 -0.6456  0.3704
 5789TIP3   OH238925   3.232   1.700   2.358 -0.0235  0.0763 -0.0469
 5789TIP3    H138926   3.163   1.744   2.406 -0.0232  1.5372 -1.2959
 5789TIP3    H238927   3.313   1.724   2.403 -0.2341 -1.2042  1.0954
 5790TIP3   OH238928   3.991   3.410   1.713 -0.2764 -0.4297 -0.8448
 5790TIP3    H138929   3.995   3.493   1.760 -0.9668 -1.5800  1.4196
 5790TIP3    H238930   4.042   3.425   1.633  1.2020  1.6062  0.3698
 5791TIP3   OH238931   3.366   2.438   1.397 -0.5254  0.1794 -0.0077
 5791TIP3    H138932   3.325   2.518   1.431  1.8479  1.3314  0.3262
 5791TIP3    H238933   3.372   2.453   1.302  1.5226  1.2721  0.2372
 5792TIP3   OH238934   2.133   4.192   1.435 -0.0635 -0.4446  0.1397
 5792TIP3    H138935   2.122   4.174   1.341  1.1621 -1.3138  0.1435
 5792TIP3    H238936   2.047   4.171   1.473 -0.8086  0.6296 -0.8586
 5793TIP3   OH238937   1.998   0.326   0.061  0.4326  0.2783  0.7044
 5793TIP3    H138938   1.956   0.408   0.085 -0.5725  0.1217 -0.4142
 5793TIP3    H238939   1.940   0.288  -0.005  0.8094 -1.3979  1.2989
 5794TIP3   OH238940   0.711   6.951   6.966 -0.4175 -0.1682  0.7827
 5794TIP3    H138941   0.666   6.883   7.016 -0.0628 -1.1304 -0.1826
 5794TIP3    H238942   0.795   6.961   7.011 -0.3215 -0.6403  0.7201
 5795TIP3   OH238943   5.452   4.979   6.610  0.0466  0.3944  0.1171
 5795TIP3    H138944   5.507   5.055   6.591 -0.2756  0.5888 -0.0504
 5795TIP3    H238945   5.419   4.952   6.524 -0.5556  0.6152  0.2781
 5796TIP3   OH238946   5.777   5.977   1.133  0.2742  0.0108 -0.0663
 5796TIP3    H138947   5.782   5.885   1.159 -0.1991  0.0084  0.0235
 5796TIP3    H238948   5.789   6.026   1.214  1.2678  0.0458 -0.2237
 5797TIP3   OH238949   2.071   3.059   0.689  0.2483 -0.6735 -0.5489
 5797TIP3    H138950   2.058   3.119   0.763 -1.4478 -1.8641  0.1788
 5797TIP3    H238951   2.153   3.014   0.709 -0.9921 -2.1925  1.5616
 5798TIP3   OH238952   0.171   4.452   6.281 -0.3581 -0.2798 -0.3319
 5798TIP3    H138953   0.217   4.511   6.222  0.4535 -0.1236  0.4228
 5798TIP3    H238954   0.183   4.365   6.242  0.2652 -0.1930 -0.3573
 5799TIP3   OH238955   3.375   0.240   1.589 -0.0062 -0.0208  0.0008
 5799TIP3    H138956   3.413   0.249   1.502 -0.0558 -0.0429 -0.0236
 5799TIP3    H238957   3.287   0.277   1.580  0.4438  1.1959  0.3727
 5800TIP3   OH238958   2.111   2.868   0.912 -0.4428  0.5243  0.5923
 5800TIP3    H138959   2.090   2.781   0.878 -0.6948  1.0367 -0.6469
 5800TIP3    H238960   2.194   2.891   0.870 -0.2401  0.7685  1.1237
 5801TIP3   OH238961   3.654   2.644   0.034  0.0625 -0.0599 -0.3025
 5801TIP3    H138962   3.609   2.659  -0.049  0.4858 -1.7862 -0.8795
 5801TIP3    H238963   3.744   2.672   0.018 -0.2688  1.3892  0.1968
 5802TIP3   OH238964   6.037   3.886   7.076  0.4521 -0.2658  0.4299
 5802TIP3    H138965   6.007   3.901   6.986 -0.0357 -0.4556  0.5593
 5802TIP3    H238966   5.984   3.946   7.129 -1.1720 -2.0497  0.8993
 5803TIP3   OH238967   4.631   4.847   0.370  0.3955 -0.3716  0.0976
 5803TIP3    H138968   4.597   4.758   0.383  2.5029 -1.4884 -1.3576
 5803TIP3    H238969   4.578   4.902   0.428 -0.3933 -2.6961  1.7360
 5804TIP3   OH238970   5.476   1.381   7.481  0.9940 -0.2348  0.4312
 5804TIP3    H138971   5.550   1.424   7.524 -0.1706 -0.0548  2.3839
 5804TIP3    H238972   5.439   1.324   7.549 -0.9506  0.0550 -0.3298
 5805TIP3   OH238973   3.832   2.697   7.158  0.1887 -0.3673  0.3386
 5805TIP3    H138974   3.867   2.716   7.071 -0.8357 -0.6808 -0.1682
 5805TIP3    H238975   3.824   2.783   7.200 -2.8870  0.3327 -1.3314
 5806TIP3   OH238976   2.593   1.251   1.517  0.3696  0.2616 -0.9374
 5806TIP3    H138977   2.577   1.296   1.600  0.8029 -2.5904  0.8435
 5806TIP3    H238978   2.656   1.306   1.471 -0.0474  2.0367  0.4886
 5807TIP3   OH238979   3.813   0.170   7.609  0.4498 -0.0386  0.0827
 5807TIP3    H138980   3.806   0.264   7.627 -0.3076 -0.3352  1.4743
 5807TIP3    H238981   3.880   0.138   7.669  1.7751 -0.1763 -1.3986
 5808TIP3   OH238982   6.249   5.989   7.488  0.2189  0.1948 -0.4950
 5808TIP3    H138983   6.339   5.983   7.520  0.1304 -2.1889 -0.4764
 5808TIP3    H238984   6.258   6.014   7.396  0.9006 -0.0179 -0.4907
 5809TIP3   OH238985   2.339   5.771   8.299 -0.4688  0.2944  0.5319
 5809TIP3    H138986   2.419   5.763   8.351 -0.8076 -1.5140  0.8693
 5809TIP3    H238987   2.369   5.792   8.211  0.1762  2.4225  1.2187
 5810TIP3   OH238988   2.350   5.448   8.276  0.6141  0.1959 -0.3778
 5810TIP3    H138989   2.408   5.432   8.350 -0.6796  2.7511  1.3208
 5810TIP3    H238990   2.262   5.436   8.312 -0.0284  0.4023 -1.8041
 5811TIP3   OH238991   1.875   4.613   7.255  0.4775 -0.3256 -0.4797
 5811TIP3    H138992   1.919   4.597   7.338 -1.6162  1.4684  1.0499
 5811TIP3    H238993   1.879   4.528   7.210 -0.5471 -2.1256  2.5374
 5812TIP3   OH238994   1.626   0.283   7.991  0.3821 -0.4671 -0.0604
 5812TIP3    H138995   1.568   0.319   7.925 -1.0894 -0.7056  1.0627
 5812TIP3    H238996   1.602   0.190   7.996  2.1174 -1.0059 -0.8424
 5813TIP3   OH238997   2.686   4.008   6.529  0.7191 -0.4827  0.6403
 5813TIP3    H138998   2.708   3.999   6.622 -1.9270 -1.5250  1.2760
 5813TIP3    H238999   2.705   3.922   6.491  1.0834 -0.2918  0.3855
 5814TIP3   OH239000   1.498   6.206   0.212  0.0478  0.1294  0.3436
 5814TIP3    H139001   1.455   6.249   0.138  0.0633  0.1122  0.3246
 5814TIP3    H239002   1.437   6.218   0.284 -0.7150 -1.2358 -0.0474
 5815TIP3   OH239003   5.681   5.018   0.337  0.1610 -0.2934 -0.4030
 5815TIP3    H139004   5.659   5.111   0.343  0.0055 -0.3688  0.2407
 5815TIP3    H239005   5.653   4.992   0.249 -0.2414  0.1506 -0.4057
 5816TIP3   OH239006   4.505   6.021   1.996 -0.8339  0.2780  0.2001
 5816TIP3    H139007   4.600   6.016   2.010 -0.7350 -0.2870 -0.6279
 5816TIP3    H239008   4.483   6.112   2.017 -0.1214  0.4095  0.4248
 5817TIP3   OH239009   4.703   3.633   1.930 -0.2928 -0.0960  0.2918
 5817TIP3    H139010   4.609   3.643   1.947 -0.7113 -0.2804 -1.6808
 5817TIP3    H239011   4.729   3.718   1.893 -0.0103 -0.4917 -0.4352
 5818TIP3   OH239012   6.455   4.286   2.098  0.5662  0.4529  0.1955
 5818TIP3    H139013   6.515   4.336   2.154 -0.2506  1.6137  0.0584
 5818TIP3    H239014   6.449   4.201   2.141  1.5556  0.6375  0.7390
 5819TIP3   OH239015   1.659   6.404   0.667 -0.2928 -0.1385 -0.2084
 5819TIP3    H139016   1.640   6.324   0.620 -1.1791 -0.0311 -0.0440
 5819TIP3    H239017   1.728   6.380   0.729  0.7849 -0.3135 -1.4321
 5820TIP3   OH239018   1.271   2.023   1.373  0.5235 -0.3781  0.1986
 5820TIP3    H139019   1.280   2.115   1.395 -1.8356  1.1259 -3.9205
 5820TIP3    H239020   1.356   1.998   1.337  0.2466  1.4630 -2.0064
 5821TIP3   OH239021   0.534   1.410   6.787  0.1981 -0.0885 -0.3291
 5821TIP3    H139022   0.450   1.421   6.832 -0.5683  0.3355 -1.7873
 5821TIP3    H239023   0.596   1.460   6.839 -0.1978 -1.2544  1.3699
 5822TIP3   OH239024   5.524   3.908   7.569 -0.8000 -0.2890 -0.5081
 5822TIP3    H139025   5.481   3.937   7.489 -1.0374  1.4869  0.2003
 5822TIP3    H239026   5.614   3.938   7.561 -1.3074  1.7525  0.6930
 5823TIP3   OH239027   4.963   2.633   7.204  0.1507  0.8300 -0.1750
 5823TIP3    H139028   4.960   2.720   7.243 -1.5033  1.1158 -0.8640
 5823TIP3    H239029   4.893   2.584   7.247 -0.3363  0.5070 -1.2911
 5824TIP3   OH239030   5.043   4.225   1.110 -0.3864  0.1759  0.4390
 5824TIP3    H139031   4.980   4.187   1.171 -0.2391  1.4507  1.4142
 5824TIP3    H239032   5.121   4.240   1.162  1.0069 -1.8865 -0.8698
 5825TIP3   OH239033   5.072   1.357   0.031  0.5639 -0.2674  0.0487
 5825TIP3    H139034   5.113   1.287   0.082  0.8458  0.0558  0.2687
 5825TIP3    H239035   5.131   1.432   0.042 -0.6003  0.5101  1.1896
 5826TIP3   OH239036   3.779   5.688   1.260  0.6211  0.0657  0.1370
 5826TIP3    H139037   3.732   5.762   1.301 -0.8330 -1.0714  0.6093
 5826TIP3    H239038   3.732   5.672   1.179  0.8949 -0.3837  0.0660
 5827TIP3   OH239039   4.374   3.069   0.203  0.5559  0.6753  0.5388
 5827TIP3    H139040   4.409   3.033   0.284 -0.9501 -1.2352  0.4109
 5827TIP3    H239041   4.287   3.029   0.194 -0.0192  2.1378 -1.1642
 5828TIP3   OH239042   3.095   6.054   1.534 -0.4030 -0.3828 -1.0143
 5828TIP3    H139043   3.081   5.965   1.500 -0.5368 -0.5422 -0.5514
 5828TIP3    H239044   3.079   6.046   1.628  1.0242 -0.1790 -0.7318
 5829TIP3   OH239045   0.910   6.339   0.438  0.2588 -0.6528  0.1256
 5829TIP3    H139046   0.831   6.287   0.456  0.0239  0.0145  1.0745
 5829TIP3    H239047   0.923   6.391   0.517  1.8661 -1.0038  0.1254
 5830TIP3   OH239048   5.961   0.588   0.320  0.2199 -0.0603 -0.0934
 5830TIP3    H139049   6.010   0.639   0.384 -0.8220  1.0624 -0.1510
 5830TIP3    H239050   6.028   0.538   0.273  1.6209  2.7231 -1.3738
 5831TIP3   OH239051   4.074   2.836   7.294 -0.0518 -0.1164 -0.0731
 5831TIP3    H139052   4.051   2.768   7.231  0.3390 -1.3702  1.0875
 5831TIP3    H239053   3.999   2.896   7.293 -0.1924 -0.2815 -1.4644
 5832TIP3   OH239054   0.315   5.279   7.303  0.8407  0.1088  0.1271
 5832TIP3    H139055   0.348   5.369   7.311  1.8433 -0.2715  0.4133
 5832TIP3    H239056   0.330   5.240   7.389  0.8045 -0.4590 -0.1189
 5833TIP3   OH239057   5.396   5.621   6.623 -0.1412  0.3885 -0.2890
 5833TIP3    H139058   5.307   5.648   6.646  0.1132 -0.1402  1.4542
 5833TIP3    H239059   5.419   5.677   6.549 -2.4071 -0.3989 -1.6922
 5834TIP3   OH239060   6.157   2.186   1.404 -0.4404  0.2587 -0.4991
 5834TIP3    H139061   6.100   2.128   1.354 -1.0800 -1.3511  1.8717
 5834TIP3    H239062   6.099   2.255   1.436 -0.4893  0.1345 -0.3154
 5835TIP3   OH239063   5.006   1.130   1.600  0.0641  0.0495  0.2548
 5835TIP3    H139064   4.918   1.163   1.582  0.5704 -0.2395 -3.7177
 5835TIP3    H239065   5.061   1.208   1.605  0.1168  0.1497 -1.3826
 5836TIP3   OH239066   2.472   4.865   7.745 -0.1934 -0.3740 -0.2210
 5836TIP3    H139067   2.498   4.887   7.835 -1.8445 -1.2143  0.5052
 5836TIP3    H239068   2.551   4.882   7.693  1.5145 -1.8766  1.6750
 5837TIP3   OH239069   6.163   3.904   0.894  0.1998 -0.5740 -0.2453
 5837TIP3    H139070   6.255   3.902   0.923  0.0017 -0.0104  0.4336
 5837TIP3    H239071   6.120   3.837   0.948  0.0352 -0.2219  0.0632
 5838TIP3   OH239072   1.173   3.575   1.063 -0.5387 -0.4140  0.0630
 5838TIP3    H139073   1.233   3.635   1.018 -1.8956  1.4650  0.6019
 5838TIP3    H239074   1.142   3.516   0.994  2.8215 -2.3850 -0.0139
 5839TIP3   OH239075   0.557   0.134   5.749  0.1422  0.2203 -0.3203
 5839TIP3    H139076   0.492   0.066   5.767  0.0723  0.3163 -0.2097
 5839TIP3    H239077   0.531   0.208   5.805  2.0420 -0.7615  2.0662
 5840TIP3   OH239078   0.639   3.571   7.026 -0.0283 -0.0104 -0.9811
 5840TIP3    H139079   0.590   3.616   6.957  1.2950  1.8426 -0.7742
 5840TIP3    H239080   0.681   3.641   7.076  0.2532 -1.3812  0.8115
 5841TIP3   OH239081   2.123   3.952   0.504  0.0267  0.2572 -0.1472
 5841TIP3    H139082   2.209   3.933   0.542 -0.1861  1.5937  1.0847
 5841TIP3    H239083   2.083   4.013   0.566 -0.9900  1.2594 -1.7418
 5842TIP3   OH239084   6.910   0.556   7.391  0.1456  0.1679  1.0073
 5842TIP3    H139085   7.004   0.563   7.408  0.2902 -1.4399  0.9641
 5842TIP3    H239086   6.872   0.529   7.475 -0.1215 -0.3684  0.7174
 5843TIP3   OH239087   6.218   0.166   0.745  0.7310 -0.0834 -0.7885
 5843TIP3    H139088   6.217   0.073   0.770  0.5922  0.0220 -0.3860
 5843TIP3    H239089   6.133   0.199   0.775  1.2872  0.4660  0.2281
 5844TIP3   OH239090   4.167   1.916   0.294  0.2076 -0.4442 -0.5021
 5844TIP3    H139091   4.086   1.909   0.344 -0.1691 -1.4081 -1.2089
 5844TIP3    H239092   4.173   2.008   0.271  0.0595 -0.1035  0.7496
 5845TIP3   OH239093   4.812   1.286   8.299  0.0972 -0.3926  0.0649
 5845TIP3    H139094   4.895   1.316   8.336 -0.4935  1.0959  0.2252
 5845TIP3    H239095   4.801   1.337   8.219 -0.1541 -1.3583 -0.5292
 5846TIP3   OH239096   3.660   5.436   0.539  0.5512  0.2440  0.4321
 5846TIP3    H139097   3.581   5.484   0.565  1.4851  1.7477  0.5890
 5846TIP3    H239098   3.661   5.443   0.443 -0.5689 -1.5754  0.2283
 5847TIP3   OH239099   3.782   1.857   8.164  0.4866  0.5253 -0.2055
 5847TIP3    H139100   3.813   1.927   8.222 -0.7000 -0.2529  1.4838
 5847TIP3    H239101   3.858   1.800   8.153  0.5559  0.2942  1.2514
 5848TIP3   OH239102   5.037   3.075   0.481  0.2581  0.4495  0.0644
 5848TIP3    H139103   5.125   3.077   0.444 -0.4406 -1.3803 -1.8776
 5848TIP3    H239104   5.003   2.989   0.459 -2.0990  1.1595  0.5899
 5849TIP3   OH239105   5.442   5.040   1.950  0.2722 -0.1121 -0.1661
 5849TIP3    H139106   5.435   5.027   1.855  2.2795  1.0009 -0.5175
 5849TIP3    H239107   5.394   5.121   1.967 -1.8199 -1.3473  0.1370
 5850TIP3   OH239108   2.293   4.679   1.425  0.1791 -0.1091  0.3167
 5850TIP3    H139109   2.223   4.624   1.460 -1.6202  0.7994 -1.6499
 5850TIP3    H239110   2.360   4.679   1.493 -1.0727 -2.2206  1.6506
 5851TIP3   OH239111   3.029   5.058   7.908 -0.2517 -0.0223  0.0605
 5851TIP3    H139112   3.023   5.022   7.820 -0.6071 -0.9697  0.4638
 5851TIP3    H239113   3.018   5.153   7.895 -1.8813 -0.2865 -0.7661
 5852TIP3   OH239114   6.506   5.326   1.970 -0.6210 -0.0540  0.4613
 5852TIP3    H139115   6.562   5.384   1.917 -1.4178 -0.4657 -0.8836
 5852TIP3    H239116   6.463   5.384   2.032 -0.6585  0.6596 -0.2183
 5853TIP3   OH239117   1.765   1.548   6.337  0.0445 -0.0132 -0.0647
 5853TIP3    H139118   1.720   1.526   6.255  0.4648  2.1554 -0.9493
 5853TIP3    H239119   1.851   1.579   6.309  1.5802 -2.5793  1.5021
 5854TIP3   OH239120   0.048   5.296   5.551 -0.7979  0.5857  0.2150
 5854TIP3    H139121  -0.038   5.273   5.586  0.9106 -1.4108  3.5147
 5854TIP3    H239122   0.094   5.337   5.623  1.2999  0.9476 -1.2264
 5855TIP3   OH239123   5.510   0.330   0.498  0.3864  0.2981  0.3434
 5855TIP3    H139124   5.603   0.340   0.517  0.7729 -1.8059 -0.1257
 5855TIP3    H239125   5.506   0.252   0.442 -1.6233  0.6020  0.0046
 5856TIP3   OH239126   1.162   4.105   7.501 -0.6012  0.1080 -0.3104
 5856TIP3    H139127   1.232   4.095   7.437  0.3456 -1.2371  0.8622
 5856TIP3    H239128   1.086   4.134   7.451 -0.1955 -1.8894 -2.2095
 5857TIP3   OH239129   6.394   5.042   7.299  0.3190  0.1002 -0.7586
 5857TIP3    H139130   6.348   5.111   7.348  1.8576 -0.0184  0.9577
 5857TIP3    H239131   6.476   5.029   7.347  1.1817 -1.2048 -2.4734
 5858TIP3   OH239132   0.408   0.620   6.280  0.1764  0.0311  0.0963
 5858TIP3    H139133   0.395   0.712   6.303  1.9221 -0.1589  2.1886
 5858TIP3    H239134   0.387   0.615   6.186  1.0003  2.7650 -0.3124
 5859TIP3   OH239135   5.023   4.826   7.995  0.1326 -0.2922  0.8625
 5859TIP3    H139136   5.024   4.800   7.903 -0.2032 -0.1054  0.8066
 5859TIP3    H239137   4.930   4.832   8.018  0.2076  0.3361  1.0213
 5860TIP3   OH239138   5.552   4.407   1.419 -0.1845  0.1668  0.2478
 5860TIP3    H139139   5.579   4.335   1.363 -2.5981 -1.2329  0.7073
 5860TIP3    H239140   5.577   4.486   1.372 -0.9441 -0.9556 -2.1816
 5861TIP3   OH239141   5.532   1.339   0.480  0.1186 -0.4585  0.1736
 5861TIP3    H139142   5.546   1.417   0.427  0.6550  0.4559  1.6064
 5861TIP3    H239143   5.619   1.315   0.510 -0.2586 -0.4933  1.2667
 5862TIP3   OH239144   4.921   2.011   6.883  0.0731  0.6410  0.1666
 5862TIP3    H139145   4.971   2.055   6.953  0.4100 -1.2080  1.1475
 5862TIP3    H239146   4.962   2.041   6.802  1.7172  0.4504  0.8959
 5863TIP3   OH239147   1.636   2.994   0.244  0.3906 -0.7399  0.5164
 5863TIP3    H139148   1.681   2.928   0.192  0.2180 -1.3988  1.1769
 5863TIP3    H239149   1.704   3.032   0.300  0.9746  1.2959 -1.4257
 5864TIP3   OH239150   4.693   3.230   6.904 -0.4436  0.7264  0.0240
 5864TIP3    H139151   4.635   3.210   6.831  0.5164  2.0086 -1.1378
 5864TIP3    H239152   4.745   3.304   6.874 -0.2348  1.5027  2.1514
 5865TIP3   OH239153   0.774   2.801   5.942  0.2444  0.3171 -0.2162
 5865TIP3    H139154   0.699   2.849   5.905 -0.3339 -0.5050 -0.1441
 5865TIP3    H239155   0.845   2.865   5.944 -0.7751  1.4828  0.8181
 5866TIP3   OH239156   2.312   6.003   7.768  0.3380 -0.1349 -0.0008
 5866TIP3    H139157   2.262   5.953   7.832  1.3430 -0.0856  0.8437
 5866TIP3    H239158   2.278   6.092   7.775  0.4865 -0.1157  0.5202
 5867TIP3   OH239159   5.504   3.435   0.215 -0.1151 -0.0703  0.4931
 5867TIP3    H139160   5.566   3.372   0.252 -3.5940 -2.3097  3.0732
 5867TIP3    H239161   5.469   3.391   0.137 -1.7751 -0.9664  1.6980
 5868TIP3   OH239162   0.196   2.537   0.362  0.1123  0.4100 -0.3079
 5868TIP3    H139163   0.241   2.454   0.375  0.2756  0.2537 -1.6892
 5868TIP3    H239164   0.137   2.521   0.289 -1.1588  1.0210  0.5625
 5869TIP3   OH239165   6.729   1.406   0.087 -0.3088  0.0954 -0.0929
 5869TIP3    H139166   6.704   1.320   0.054  0.5300 -0.3055  0.2844
 5869TIP3    H239167   6.672   1.422   0.162  0.3177 -0.6622  0.5632
 5870TIP3   OH239168   2.017   4.991   6.545 -0.0820 -0.3683 -0.1476
 5870TIP3    H139169   2.058   4.959   6.465 -0.7958  0.7513 -1.0068
 5870TIP3    H239170   1.923   4.974   6.532 -0.1748 -0.5136  0.6264
 5871TIP3   OH239171   2.744   1.815   6.498 -0.7626  0.0391  0.0172
 5871TIP3    H139172   2.778   1.767   6.423 -1.0989 -1.1628  0.6018
 5871TIP3    H239173   2.819   1.825   6.557 -0.8404 -0.3454  0.1814
 5872TIP3   OH239174   3.072   0.651   7.131  0.4334  0.2331  0.4035
 5872TIP3    H139175   3.127   0.729   7.134 -0.4621  0.8853  0.2642
 5872TIP3    H239176   3.047   0.643   7.039  0.9819 -0.5582  0.3132
 5873TIP3   OH239177   5.326   0.751   2.393 -0.0250  0.6059  0.0384
 5873TIP3    H139178   5.247   0.710   2.427  0.2425 -0.2186 -0.3159
 5873TIP3    H239179   5.300   0.841   2.374 -1.2771 -0.0232 -1.4211
 5874TIP3   OH239180   4.400   4.928   6.944  0.6915 -0.2692  0.2497
 5874TIP3    H139181   4.417   4.842   6.981  0.2858 -0.6333 -0.3854
 5874TIP3    H239182   4.360   4.910   6.858  1.2400  0.5461 -0.1940
 5875TIP3   OH239183   2.980   6.846   7.607  0.1061 -0.0913 -0.3072
 5875TIP3    H139184   2.894   6.889   7.609  0.4803  0.6794 -0.6246
 5875TIP3    H239185   2.976   6.782   7.679 -1.9233 -2.4346 -2.3117
 5876TIP3   OH239186   2.249   6.465   8.013 -0.1656  0.1986  0.2236
 5876TIP3    H139187   2.257   6.379   7.971 -2.7470 -0.6501  1.2406
 5876TIP3    H239188   2.252   6.527   7.940  2.5678 -0.6019 -0.4572
 5877TIP3   OH239189   0.354   6.328   8.067 -0.5204 -0.2145  1.0154
 5877TIP3    H139190   0.307   6.279   8.135 -0.3197 -0.8022  0.7431
 5877TIP3    H239191   0.355   6.418   8.098 -0.7492 -0.4158  1.6174
 5878TIP3   OH239192   3.871   0.247   7.338  0.1407 -0.3956 -0.4629
 5878TIP3    H139193   3.842   0.204   7.419  1.2195  0.1279  0.2275
 5878TIP3    H239194   3.951   0.199   7.313  0.3026  0.0098 -0.7313
 5879TIP3   OH239195   0.287   1.275   1.401  0.1983  0.8241 -0.0474
 5879TIP3    H139196   0.341   1.220   1.457  0.6614  1.5146  0.1975
 5879TIP3    H239197   0.216   1.305   1.458 -0.9243 -0.7144 -0.5685
 5880TIP3   OH239198   0.408   2.486   1.071 -0.1045 -0.1860  0.0085
 5880TIP3    H139199   0.458   2.417   1.029  0.7236 -0.8571  1.9958
 5880TIP3    H239200   0.358   2.442   1.140 -0.1048  1.0725  0.8551
 5881TIP3   OH239201   4.497   1.527   8.084  0.3787 -0.1330 -0.2537
 5881TIP3    H139202   4.447   1.512   8.164 -0.2172  0.0309 -0.5935
 5881TIP3    H239203   4.495   1.622   8.071  1.2029 -0.0693 -0.0022
 5882TIP3   OH239204   1.571   4.001   0.899 -0.4055  0.0761  0.3211
 5882TIP3    H139205   1.511   3.992   0.974 -0.1143  1.8256  0.8158
 5882TIP3    H239206   1.528   4.065   0.842  0.1908  0.0583 -0.1543
 5883TIP3   OH239207   3.156   6.360   7.107  0.9338 -0.0142 -0.4584
 5883TIP3    H139208   3.235   6.377   7.158  0.9644 -2.0246  0.2276
 5883TIP3    H239209   3.150   6.265   7.102 -2.4050 -0.0247  1.0401
 5884TIP3   OH239210   5.631   0.697   8.324 -0.4179 -0.0406 -0.0295
 5884TIP3    H139211   5.583   0.737   8.251  0.9994  2.2876  0.2003
 5884TIP3    H239212   5.571   0.631   8.359 -2.7984  1.6081 -0.7427
 5885TIP3   OH239213   6.231   4.320   0.301  0.2350  0.1730 -0.5345
 5885TIP3    H139214   6.246   4.355   0.389 -0.5527 -0.2918 -0.2106
 5885TIP3    H239215   6.186   4.390   0.254 -1.1516 -0.2890  0.0492
 5886TIP3   OH239216   5.422   4.949   1.702 -0.4669 -0.8499 -0.3697
 5886TIP3    H139217   5.395   4.975   1.614 -0.0352 -0.2165 -0.3221
 5886TIP3    H239218   5.376   4.867   1.718 -0.4549 -1.0340 -1.2337
 5887TIP3   OH239219   0.891   0.305   6.463  0.0145 -0.5192 -0.2341
 5887TIP3    H139220   0.913   0.250   6.538  1.0701  0.0173 -0.1300
 5887TIP3    H239221   0.965   0.294   6.403 -0.3725 -0.2093 -0.7706
 5888TIP3   OH239222   1.860   1.195   7.845  0.1639  0.0493  0.1010
 5888TIP3    H139223   1.941   1.210   7.795 -0.3241  1.8366 -0.2311
 5888TIP3    H239224   1.890   1.179   7.934  0.9529 -1.1787 -0.3514
 5889TIP3   OH239225   4.918   3.225   7.954  0.6467  0.0769 -0.0004
 5889TIP3    H139226   4.830   3.229   7.917  0.4594 -1.3532  0.2577
 5889TIP3    H239227   4.905   3.238   8.048  0.9175  1.6312 -0.1446
 5890TIP3   OH239228   6.828   5.767   7.625  0.2028  0.0410 -0.2052
 5890TIP3    H139229   6.844   5.712   7.548  2.7868 -2.0180  1.6261
 5890TIP3    H239230   6.791   5.706   7.690 -0.9862  1.4978  0.5320
 5891TIP3   OH239231   0.230   2.182   6.823 -0.1621 -0.9378 -0.2228
 5891TIP3    H139232   0.243   2.267   6.780 -2.8246 -0.3084  0.0239
 5891TIP3    H239233   0.314   2.137   6.813  0.8962  1.1563 -1.6049
 5892TIP3   OH239234   1.760   3.591   0.339  0.2585 -0.0823 -0.0736
 5892TIP3    H139235   1.808   3.666   0.306 -1.9643  1.4175 -0.1532
 5892TIP3    H239236   1.767   3.525   0.270  0.1349  1.0303 -1.1948
 5893TIP3   OH239237   1.099   1.923   0.043  0.8647  0.0461  0.0113
 5893TIP3    H139238   1.110   1.850  -0.018  0.1984 -0.2387  0.2201
 5893TIP3    H239239   1.133   1.890   0.126  0.3734 -0.1123  0.1567
 5894TIP3   OH239240   1.538   5.618   2.104 -0.4393 -0.4170  0.2711
 5894TIP3    H139241   1.606   5.632   2.170 -0.1713  2.7990 -0.5092
 5894TIP3    H239242   1.468   5.573   2.150  0.2953  0.5238  2.4237
 5895TIP3   OH239243   3.050   2.377   5.749 -0.6013 -0.1408 -0.1644
 5895TIP3    H139244   3.139   2.403   5.771 -1.0694  0.9494  0.5299
 5895TIP3    H239245   3.013   2.345   5.831 -1.1210  0.2217 -0.2531
 5896TIP3   OH239246   3.297   5.126   6.859 -0.0506  0.5435  0.1918
 5896TIP3    H139247   3.367   5.184   6.831  1.3353 -1.8430 -1.6806
 5896TIP3    H239248   3.338   5.040   6.866 -2.0810 -0.3702  2.4341
 5897TIP3   OH239249   2.588   5.284   0.844  0.4933 -0.2926  0.2162
 5897TIP3    H139250   2.608   5.377   0.856  3.7101 -0.8621 -0.0763
 5897TIP3    H239251   2.611   5.265   0.754  0.2741 -1.4754  0.3908
 5898TIP3   OH239252   6.697   2.056   1.741 -0.3452 -0.3366 -0.5863
 5898TIP3    H139253   6.770   2.046   1.681 -0.1304 -0.8708 -0.2475
 5898TIP3    H239254   6.697   2.149   1.764 -1.1330  0.1228 -2.2675
 5899TIP3   OH239255   1.632   5.641   2.572  0.1371 -0.1152 -0.3124
 5899TIP3    H139256   1.615   5.553   2.605 -1.1401  0.3646  0.4240
 5899TIP3    H239257   1.660   5.690   2.649 -2.2930  0.8729  0.0523
 5900TIP3   OH239258   2.092   2.335   7.168 -0.1052 -0.1828  0.3140
 5900TIP3    H139259   2.165   2.377   7.122  3.5350 -2.8577  2.9969
 5900TIP3    H239260   2.077   2.254   7.118 -0.4411 -0.1934  0.4326
 5901TIP3   OH239261   0.133   3.819   1.082 -0.6414  0.0384  0.0555
 5901TIP3    H139262   0.114   3.758   1.153  0.4570  1.0335  1.2684
 5901TIP3    H239263   0.138   3.765   1.004  0.0217 -1.3924  1.0396
 5902TIP3   OH239264   0.072   0.730   7.681  0.3985 -0.1531 -0.2272
 5902TIP3    H139265   0.048   0.639   7.697  0.8788 -0.2232  0.1261
 5902TIP3    H239266  -0.009   0.772   7.653  0.4322 -0.9758 -1.6587
 5903TIP3   OH239267   2.680   0.196   6.601  0.2391  0.0791  0.3224
 5903TIP3    H139268   2.665   0.224   6.692 -0.4121  2.5668 -0.4597
 5903TIP3    H239269   2.668   0.101   6.603 -0.2457  0.1152  2.7330
 5904TIP3   OH239270   2.754   3.904   1.247 -0.0638  0.7702 -0.2555
 5904TIP3    H139271   2.740   3.859   1.330 -0.0374 -0.8264 -1.0616
 5904TIP3    H239272   2.813   3.846   1.198  0.2633  1.8805 -1.2253
 5905TIP3   OH239273   4.902   5.407   5.906  0.2604  0.0020  1.0506
 5905TIP3    H139274   4.965   5.338   5.926  0.8337  0.3348  0.4603
 5905TIP3    H239275   4.835   5.364   5.853  0.5535 -0.1331  0.7848
 5906TIP3   OH239276   6.554   0.489   6.540 -0.7355 -0.0581  0.3261
 5906TIP3    H139277   6.591   0.506   6.627 -2.1939  0.7399  0.8089
 5906TIP3    H239278   6.485   0.553   6.530  1.6031  2.2818 -2.8857
 5907TIP3   OH239279   2.758   5.996   7.223  0.0578 -0.4530  0.0439
 5907TIP3    H139280   2.740   5.949   7.305  0.9944 -0.4476  0.2564
 5907TIP3    H239281   2.795   5.930   7.165  0.8624 -0.1098  0.1584
 5908TIP3   OH239282   4.259   1.510   7.076 -0.2200  0.0948  0.2205
 5908TIP3    H139283   4.181   1.563   7.058 -0.4271 -0.8978 -2.1571
 5908TIP3    H239284   4.228   1.420   7.075  0.6695 -0.2487  1.1742
 5909TIP3   OH239285   5.253   2.726   7.375 -0.2990 -0.3277 -0.0769
 5909TIP3    H139286   5.206   2.695   7.452  0.4737  1.9095  1.3986
 5909TIP3    H239287   5.343   2.696   7.388 -0.1695  0.0471 -0.0744
 5910TIP3   OH239288   2.204   5.298   7.087  0.5531  0.0982  0.1271
 5910TIP3    H139289   2.240   5.376   7.043  0.5178 -1.0752 -2.0876
 5910TIP3    H239290   2.123   5.329   7.127  1.4169  1.5917  0.8538
 5911TIP3   OH239291   6.246   6.166   2.409 -0.5605 -0.6298  1.0800
 5911TIP3    H139292   6.247   6.211   2.494 -2.2255 -1.0315  1.3561
 5911TIP3    H239293   6.209   6.229   2.348 -0.4781 -0.7531  0.8998
 5912TIP3   OH239294   5.617   4.425   0.064 -0.3591  0.1117 -0.4442
 5912TIP3    H139295   5.587   4.416   0.154 -0.5198  1.8197 -0.2791
 5912TIP3    H239296   5.594   4.516   0.041  0.9930  0.1644 -1.7033
 5913TIP3   OH239297   5.614   6.110   1.342 -0.2395 -0.1702  0.3305
 5913TIP3    H139298   5.558   6.040   1.310  1.4293 -1.5725  0.2844
 5913TIP3    H239299   5.599   6.112   1.437 -2.1272  1.1616  0.0476
 5914TIP3   OH239300   2.210   2.093   7.741 -0.2216  0.1046 -0.1602
 5914TIP3    H139301   2.240   2.183   7.732 -0.5294  0.4134  1.5596
 5914TIP3    H239302   2.264   2.043   7.679  1.3601  1.1615  0.3095
 5915TIP3   OH239303   5.289   6.877   1.773 -0.2484  0.3687  0.1321
 5915TIP3    H139304   5.328   6.958   1.803 -0.9123  0.2377  1.3875
 5915TIP3    H239305   5.345   6.849   1.700  0.1479  1.7827 -0.1342
 5916TIP3   OH239306   3.543   1.614   6.967  0.0779 -0.0052 -0.3880
 5916TIP3    H139307   3.503   1.648   6.888 -0.1490  1.6365  0.3827
 5916TIP3    H239308   3.482   1.547   6.998 -0.6678  0.5041 -0.7190
 5917TIP3   OH239309   4.101   5.317   1.316  0.1672  0.2580  0.1281
 5917TIP3    H139310   4.113   5.288   1.407 -0.7342  0.3237  0.2693
 5917TIP3    H239311   4.046   5.250   1.277  1.5520 -0.4263 -0.7320
 5918TIP3   OH239312   4.997   2.128   0.063 -0.3541 -0.2465 -0.5608
 5918TIP3    H139313   5.029   2.090   0.145 -2.5162  1.6070  1.2796
 5918TIP3    H239314   5.046   2.083  -0.005  0.8406 -2.5883  1.6868
 5919TIP3   OH239315   3.121   3.779   0.615  0.2332 -0.0780 -0.2271
 5919TIP3    H139316   3.048   3.718   0.631  0.2544  0.5189  2.7938
 5919TIP3    H239317   3.199   3.724   0.614  0.0396 -0.3622  0.0682
 5920TIP3   OH239318   3.180   6.928   0.358  1.2019  0.4832 -0.3006
 5920TIP3    H139319   3.182   6.949   0.452 -0.3505  3.2418 -0.7727
 5920TIP3    H239320   3.196   7.012   0.315  2.2224 -0.7907 -2.5510
 5921TIP3   OH239321   0.265   2.034   2.359  0.2488 -0.1657  0.2395
 5921TIP3    H139322   0.330   2.101   2.338 -1.4444  2.0432  1.5262
 5921TIP3    H239323   0.296   1.996   2.441  1.2521 -1.0711 -0.5277
 5922TIP3   OH239324   1.500   1.013   1.335 -0.2088 -0.4316 -0.6029
 5922TIP3    H139325   1.518   1.021   1.429 -2.0193 -0.0024 -0.2643
 5922TIP3    H239326   1.444   1.088   1.315  1.2061  0.2337 -2.3329
 5923TIP3   OH239327   4.188   1.198   0.876 -0.3428 -0.9056  0.0369
 5923TIP3    H139328   4.195   1.175   0.969 -0.8462  0.2997  0.3917
 5923TIP3    H239329   4.236   1.128   0.831  0.0452 -1.4290  1.2039
 5924TIP3   OH239330   1.551   6.648   0.907  0.2659  0.5756  0.8212
 5924TIP3    H139331   1.646   6.661   0.911  0.3374  0.6491 -0.6880
 5924TIP3    H239332   1.541   6.553   0.897  0.3100  0.7382 -1.2098
 5925TIP3   OH239333   3.415   5.152   1.412  0.4923 -0.1937  0.1166
 5925TIP3    H139334   3.368   5.165   1.329  0.4898  2.3984  0.4289
 5925TIP3    H239335   3.387   5.066   1.442 -1.0508 -0.3733 -1.6183
 5926TIP3   OH239336   5.263   0.543   1.562 -0.2354 -0.1867 -0.0923
 5926TIP3    H139337   5.221   0.583   1.486 -0.9294  0.7625  0.7710
 5926TIP3    H239338   5.192   0.497   1.607  0.1085 -0.4720  0.1610
 5927TIP3   OH239339   6.526   3.814   1.987  0.1041 -0.1300 -0.1239
 5927TIP3    H139340   6.531   3.719   1.975  0.6917 -0.3640  1.6695
 5927TIP3    H239341   6.442   3.828   2.032  1.2143 -0.1758  2.1388
 5928TIP3   OH239342   6.400   0.119   7.775 -0.7875 -0.6056  0.0927
 5928TIP3    H139343   6.483   0.082   7.746  0.4361  0.3978  2.1073
 5928TIP3    H239344   6.412   0.213   7.770 -1.6749 -0.4391  0.7691
 5929TIP3   OH239345   3.653   0.535   0.813 -0.2404  0.4236  0.5050
 5929TIP3    H139346   3.651   0.509   0.721  0.7874 -1.2838  0.9079
 5929TIP3    H239347   3.659   0.630   0.811 -0.2709  0.4271 -1.1873
 5930TIP3   OH239348   2.036   6.912   8.057  0.4971  0.4308 -0.1246
 5930TIP3    H139349   2.082   6.843   8.106  0.0995 -0.6035 -1.1618
 5930TIP3    H239350   1.952   6.872   8.034  1.3997  0.1374 -3.3023
 5931TIP3   OH239351   5.709   4.005   6.950  0.7108  0.8746 -0.3060
 5931TIP3    H139352   5.738   4.062   7.020 -1.5939 -0.0112  1.4740
 5931TIP3    H239353   5.781   3.942   6.939  0.2073 -0.4576  3.0230
 5932TIP3   OH239354   1.005   5.717   6.266  0.1891 -0.2090  0.1638
 5932TIP3    H139355   0.958   5.761   6.195  1.2006 -0.0905 -0.4403
 5932TIP3    H239356   0.973   5.626   6.263 -1.8804  0.4109  1.3971
 5933TIP3   OH239357   6.719   5.537   0.323  0.1418 -0.5077  0.2852
 5933TIP3    H139358   6.702   5.445   0.302  1.1338 -0.7655  0.5432
 5933TIP3    H239359   6.658   5.586   0.268 -0.5246 -1.3195  0.2764
 5934TIP3   OH239360   5.446   6.976   6.236 -0.4365 -0.0815  0.0347
 5934TIP3    H139361   5.360   7.003   6.267 -1.0390  0.6409 -2.1564
 5934TIP3    H239362   5.480   7.051   6.188 -0.1236 -1.5492 -2.1688
 5935TIP3   OH239363   3.043   1.648   0.276  0.0267 -0.2181 -0.0524
 5935TIP3    H139364   3.024   1.559   0.245  0.8116 -0.4712  0.1732
 5935TIP3    H239365   3.093   1.635   0.357 -1.2157  0.4404  0.8495
 5936TIP3   OH239366   6.727   1.263   1.239  0.2324 -0.4510 -0.6020
 5936TIP3    H139367   6.696   1.301   1.157  2.9916  1.8475 -0.7532
 5936TIP3    H239368   6.702   1.327   1.306  2.0464  0.1065 -0.3870
 5937TIP3   OH239369   1.610   0.552   6.968  0.4720 -0.1907 -0.4444
 5937TIP3    H139370   1.606   0.570   6.874 -0.4621  1.7364 -0.0839
 5937TIP3    H239371   1.640   0.634   7.007  0.0730 -0.7052  1.0106
 5938TIP3   OH239372   3.341   3.096   7.351  0.1382  0.0089  0.0531
 5938TIP3    H139373   3.309   3.097   7.261 -2.5149  0.3699  0.9122
 5938TIP3    H239374   3.341   3.188   7.378  2.4237  0.0822  0.0017
 5939TIP3   OH239375   1.379   5.701   2.697  0.1419  0.3907 -0.3822
 5939TIP3    H139376   1.441   5.762   2.658  1.8186 -0.5470  0.6960
 5939TIP3    H239377   1.307   5.756   2.728 -0.3466  1.3486 -3.0158
 5940TIP3   OH239378   6.673   2.380   6.371 -0.0365  0.3103 -0.2577
 5940TIP3    H139379   6.582   2.352   6.358 -0.2491  1.0784 -0.4415
 5940TIP3    H239380   6.724   2.326   6.310 -0.3137 -0.3743  0.0960
 5941TIP3   OH239381   0.936   3.329   7.744 -0.4791  0.2094 -0.0690
 5941TIP3    H139382   0.956   3.266   7.813 -0.6534  0.4145  0.1723
 5941TIP3    H239383   0.888   3.279   7.679 -0.4187  0.0414  0.0144
 5942TIP3   OH239384   2.365   5.394   1.093  0.1374  0.3111  0.2135
 5942TIP3    H139385   2.404   5.313   1.059  0.9208  1.0853 -0.7752
 5942TIP3    H239386   2.315   5.429   1.019  1.3248  1.6838  0.0219
 5943TIP3   OH239387   6.653   5.725   0.607 -0.1688 -0.1041 -0.5116
 5943TIP3    H139388   6.611   5.645   0.578 -1.0716  0.0635  0.2666
 5943TIP3    H239389   6.645   5.785   0.533 -0.7346 -0.2953 -0.6099
 5944TIP3   OH239390   3.377   5.241   7.780 -0.5957  0.1929 -0.1160
 5944TIP3    H139391   3.425   5.288   7.712 -0.9381 -1.7601 -1.8360
 5944TIP3    H239392   3.387   5.294   7.858  2.9285  0.7643 -0.7831
 5945TIP3   OH239393   0.133   5.555   7.743 -0.1901 -0.3964  0.4411
 5945TIP3    H139394   0.227   5.561   7.726 -0.4610 -0.7251 -1.4325
 5945TIP3    H239395   0.102   5.489   7.681 -1.7213  0.0102  0.7374
 5946TIP3   OH239396   5.801   2.721   0.733  0.3203 -0.1239  0.3547
 5946TIP3    H139397   5.848   2.786   0.786 -1.3515  1.5570 -0.0819
 5946TIP3    H239398   5.787   2.765   0.649  0.1309 -1.5143 -0.3673
 5947TIP3   OH239399   2.358   0.311   2.118  0.2934 -0.9176  0.0423
 5947TIP3    H139400   2.272   0.301   2.077  0.5427 -1.2542 -0.3998
 5947TIP3    H239401   2.339   0.346   2.205 -0.1594  1.1014 -0.8161
 5948TIP3   OH239402   6.464   4.852   0.884  0.2144 -0.2492 -0.6642
 5948TIP3    H139403   6.442   4.873   0.793 -1.4847  0.9768 -0.0238
 5948TIP3    H239404   6.399   4.899   0.936  0.4023 -1.8793  1.1571
 5949TIP3   OH239405   1.365   2.718   6.163 -0.2722 -0.7562 -0.6639
 5949TIP3    H139406   1.394   2.806   6.189 -1.9281 -0.2955 -0.2733
 5949TIP3    H239407   1.329   2.729   6.075  0.4247 -1.2633 -1.0267
 5950TIP3   OH239408   0.656   6.318   1.868 -0.4054 -0.1922 -0.2411
 5950TIP3    H139409   0.594   6.281   1.805 -1.1634 -0.7477  0.8016
 5950TIP3    H239410   0.647   6.262   1.946  2.3256 -1.0988 -0.4761
 5951TIP3   OH239411   1.386   1.011   6.057 -0.0222 -0.4635  0.4829
 5951TIP3    H139412   1.314   0.951   6.035 -0.3279 -0.6486  1.9070
 5951TIP3    H239413   1.418   0.980   6.141  2.6468 -1.2300 -0.6897
 5952TIP3   OH239414   4.771   1.867   0.606  0.1632  0.3271 -0.1589
 5952TIP3    H139415   4.681   1.857   0.637 -0.0132  0.3343 -0.6652
 5952TIP3    H239416   4.775   1.816   0.525  1.2178 -1.4906  0.9677
 5953TIP3   OH239417   1.830   3.500   7.736  0.3900  0.8137 -0.3296
 5953TIP3    H139418   1.798   3.421   7.780 -0.5407  2.2606  1.7488
 5953TIP3    H239419   1.824   3.479   7.643 -2.1500 -0.7353  0.0884
 5954TIP3   OH239420   1.442   5.254   5.756 -0.0287 -0.2470  0.4292
 5954TIP3    H139421   1.473   5.345   5.758  0.2614 -0.3486  0.6527
 5954TIP3    H239422   1.517   5.204   5.725 -0.0978 -0.4476  0.5877
 5955TIP3   OH239423   1.390   1.584   1.521 -0.0126  0.3911 -0.2094
 5955TIP3    H139424   1.486   1.591   1.514 -0.0601  0.1993 -1.2954
 5955TIP3    H239425   1.372   1.600   1.613  1.0129  1.0867 -0.1031
 5956TIP3   OH239426   6.946   2.449   6.668 -0.6850  0.1782 -0.4162
 5956TIP3    H139427   6.956   2.404   6.752 -0.8520 -0.3054 -0.6459
 5956TIP3    H239428   7.034   2.448   6.630 -0.7060 -0.0565 -0.4645
 5957TIP3   OH239429   0.084   1.720   6.638  0.0477 -0.1495  0.8306
 5957TIP3    H139430   0.157   1.776   6.612 -0.2146 -0.3218 -0.3756
 5957TIP3    H239431   0.078   1.728   6.733 -0.3578  2.3307  0.6449
 5958TIP3   OH239432   0.914   2.389   8.185 -0.0523  0.2174  0.2027
 5958TIP3    H139433   1.004   2.390   8.219 -0.9824  0.7245  2.9029
 5958TIP3    H239434   0.892   2.296   8.180  0.7161  0.0785 -0.8096
 5959TIP3   OH239435   0.618   2.523   1.447  0.0455  0.3992 -0.1251
 5959TIP3    H139436   0.590   2.481   1.529  0.3694 -0.8565 -0.6414
 5959TIP3    H239437   0.708   2.493   1.435 -0.4303 -0.5163 -1.6172
 5960TIP3   OH239438   5.012   4.387   1.899 -0.1478  0.6606  0.2588
 5960TIP3    H139439   5.070   4.438   1.955 -0.6028 -0.2686  1.6240
 5960TIP3    H239440   5.057   4.382   1.815  2.1159 -0.6291  1.4634
 5961TIP3   OH239441   0.749   3.056   1.995 -0.5500 -0.0171 -0.6435
 5961TIP3    H139442   0.841   3.029   2.001 -0.6310 -0.2473 -0.4501
 5961TIP3    H239443   0.754   3.152   1.987 -0.2613 -0.1037 -1.5765
 5962TIP3   OH239444   6.852   6.628   8.252 -0.5660 -0.0152  0.2310
 5962TIP3    H139445   6.843   6.601   8.343  1.1923  0.1666  0.5050
 5962TIP3    H239446   6.837   6.723   8.254  0.7137  0.2010  0.5772
 5963TIP3   OH239447   2.378   0.670   6.004 -0.1646  0.0668 -0.2871
 5963TIP3    H139448   2.290   0.665   6.041 -0.1943 -0.3015 -0.4026
 5963TIP3    H239449   2.395   0.582   5.970 -0.1228  0.3769 -1.1041
 5964TIP3   OH239450   6.272   3.694   6.928 -0.0731  0.0105 -0.0648
 5964TIP3    H139451   6.197   3.693   6.868  0.6978  0.8526 -1.1000
 5964TIP3    H239452   6.274   3.607   6.967 -1.1853 -0.2371 -0.5359
 5965TIP3   OH239453   4.489   4.502   2.070 -0.6219 -0.9664 -0.0457
 5965TIP3    H139454   4.415   4.448   2.043 -0.1781 -1.6801  0.1381
 5965TIP3    H239455   4.450   4.581   2.105 -1.5449 -2.9133  3.7745
 5966TIP3   OH239456   3.850   6.995   0.972 -0.1339 -0.4335  0.6612
 5966TIP3    H139457   3.809   6.926   0.920  0.6818 -0.8996  0.6162
 5966TIP3    H239458   3.914   6.949   1.026  1.7772  0.4644 -0.7323
 5967TIP3   OH239459   1.592   3.101   6.454  0.3958 -0.0197  0.7035
 5967TIP3    H139460   1.618   3.172   6.395  0.0139  1.1076  1.8557
 5967TIP3    H239461   1.673   3.054   6.471  0.8598  0.7787  0.7608
 5968TIP3   OH239462   3.321   0.158   6.600  0.0677 -0.3301 -0.3307
 5968TIP3    H139463   3.382   0.218   6.557 -3.5703  2.8910 -1.6420
 5968TIP3    H239464   3.347   0.158   6.692  1.2373  1.9429 -0.5940
 5969TIP3   OH239465   6.207   1.686   2.164 -0.9480  0.5407  0.3434
 5969TIP3    H139466   6.214   1.759   2.226 -1.0502  0.3992  0.5205
 5969TIP3    H239467   6.296   1.652   2.157 -0.2103  2.5987 -2.0703
 5970TIP3   OH239468   6.479   0.075   1.277 -0.1111  0.4901 -0.4905
 5970TIP3    H139469   6.529  -0.006   1.267 -0.0470  0.2039  1.6538
 5970TIP3    H239470   6.389   0.050   1.257  0.1255  0.2549 -1.2925
 5971TIP3   OH239471   3.033   1.050   7.448 -0.4532 -0.1891  0.6185
 5971TIP3    H139472   3.089   1.121   7.417 -2.0464  0.5198 -0.8350
 5971TIP3    H239473   2.953   1.094   7.478 -1.2336 -1.3177  0.2603
 5972TIP3   OH239474   2.870   0.443   1.518  0.3085  0.8209 -0.0289
 5972TIP3    H139475   2.951   0.392   1.519  0.2132  0.6121  1.7136
 5972TIP3    H239476   2.899   0.533   1.530  0.2756  0.5809  2.4188
 5973TIP3   OH239477   5.370   1.087   8.162 -0.2897 -0.5643 -0.4874
 5973TIP3    H139478   5.308   1.020   8.190  1.0821 -1.2923  0.9354
 5973TIP3    H239479   5.380   1.144   8.238  0.4642 -0.2116 -0.8474
 5974TIP3   OH239480   3.106   4.013   6.606 -0.2287  0.1477  0.5036
 5974TIP3    H139481   3.018   4.050   6.609  0.2086  1.2119  0.7780
 5974TIP3    H239482   3.124   3.988   6.697  0.0662  0.7208  0.6077
 5975TIP3   OH239483   0.591   1.019   7.536  0.5599  0.6504  0.1982
 5975TIP3    H139484   0.644   1.095   7.563  1.2677 -0.3111  1.6446
 5975TIP3    H239485   0.505   1.057   7.514  0.9890  1.9102  0.5704
 5976TIP3   OH239486   3.799   0.493   0.317  0.3399  0.1869 -0.0489
 5976TIP3    H139487   3.819   0.436   0.244  0.7638 -0.1625  0.3358
 5976TIP3    H239488   3.806   0.582   0.282  1.9742  0.0648 -0.0729
 5977TIP3   OH239489   6.335   6.726   1.766  0.2980 -0.3545  0.1114
 5977TIP3    H139490   6.248   6.738   1.729 -1.1003  0.6869  3.3340
 5977TIP3    H239491   6.353   6.633   1.758 -1.1355 -0.5894 -0.5698
 5978TIP3   OH239492   2.396   1.472   0.337 -0.6517  0.3299  0.7305
 5978TIP3    H139493   2.376   1.566   0.330 -0.4869  0.3376  0.2917
 5978TIP3    H239494   2.488   1.470   0.365  0.1698  0.3355 -1.7129
 5979TIP3   OH239495   1.109   4.631   7.289  0.0589  0.1462 -0.6574
 5979TIP3    H139496   1.182   4.601   7.236 -0.6191  1.4661 -2.4931
 5979TIP3    H239497   1.071   4.703   7.237 -1.8278  0.2409  0.7565
 5980TIP3   OH239498   5.110   0.250   8.122 -0.8340 -0.0066 -0.3348
 5980TIP3    H139499   5.170   0.209   8.059 -0.6244 -0.2622  0.0199
 5980TIP3    H239500   5.026   0.208   8.106 -1.0329  0.6866 -1.1474
 5981TIP3   OH239501   2.145   5.356   0.658 -0.3937 -0.2224 -0.0193
 5981TIP3    H139502   2.066   5.408   0.645 -0.1958  0.0521 -0.1297
 5981TIP3    H239503   2.181   5.345   0.570 -0.2274 -0.2220  0.0487
 5982TIP3   OH239504   6.550   4.240   1.425 -0.1540 -0.5159  0.3392
 5982TIP3    H139505   6.608   4.269   1.495 -0.0066  0.1165 -0.0343
 5982TIP3    H239506   6.594   4.164   1.387 -0.6522 -1.3879  1.4723
 5983TIP3   OH239507   3.666   2.446   8.044  0.4286 -0.3172  1.3176
 5983TIP3    H139508   3.717   2.524   8.066  0.6995 -0.3097  0.6845
 5983TIP3    H239509   3.636   2.462   7.955  0.9297 -1.1611  0.9852
 5984TIP3   OH239510   6.580   1.193   7.341 -0.1084 -0.3136  0.5397
 5984TIP3    H139511   6.517   1.179   7.269  0.4021 -1.6141  0.3157
 5984TIP3    H239512   6.526   1.218   7.416 -0.6757  0.8329 -0.2165
 5985TIP3   OH239513   2.805   0.117   7.407  0.2977  0.4805 -0.1642
 5985TIP3    H139514   2.834   0.122   7.316 -0.3595  1.4916 -0.3249
 5985TIP3    H239515   2.746   0.042   7.409 -1.2235  1.6173 -1.0257
 5986TIP3   OH239516   5.993   2.987   7.097 -0.0790 -0.5305  0.0247
 5986TIP3    H139517   6.013   3.069   7.050  1.5542 -0.9609 -0.0680
 5986TIP3    H239518   5.911   3.006   7.143 -0.2034  0.8588 -0.7008
 5987TIP3   OH239519   6.029   1.278   0.048 -0.1443 -0.3002  0.1645
 5987TIP3    H139520   5.937   1.271   0.072 -0.5634  2.8094 -0.1146
 5987TIP3    H239521   6.035   1.362   0.003  2.4240 -1.4779 -1.9420
 5988TIP3   OH239522   5.061   0.831   0.513 -0.3634  0.0728 -0.7460
 5988TIP3    H139523   4.986   0.819   0.454 -0.0642 -0.1169 -1.0938
 5988TIP3    H239524   5.098   0.744   0.523 -1.2757 -0.1591  0.9152
 5989TIP3   OH239525   1.990   6.519   6.902 -0.4023 -0.3522  0.7255
 5989TIP3    H139526   2.018   6.439   6.947  0.3993 -1.1463 -1.0675
 5989TIP3    H239527   2.071   6.561   6.874 -0.8563  0.1822  0.1783
 5990TIP3   OH239528   5.548   2.251   6.690 -0.1532 -0.0763 -0.5839
 5990TIP3    H139529   5.481   2.253   6.758  1.4971  0.1575  1.1007
 5990TIP3    H239530   5.502   2.218   6.612 -2.2856  0.4512  0.3871
 5991TIP3   OH239531   3.076   5.910   0.085  0.1773 -0.3121  0.8475
 5991TIP3    H139532   3.022   5.834   0.106 -0.8948  0.1830  0.0119
 5991TIP3    H239533   3.109   5.893  -0.003  0.8106 -0.2779  1.0708
 5992TIP3   OH239534   6.933   4.008   1.125 -0.2673  0.0439  0.3527
 5992TIP3    H139535   7.000   3.942   1.106 -2.0048 -1.9705  0.8355
 5992TIP3    H239536   6.962   4.047   1.208  1.1153  0.3641 -0.2542
 5993TIP3   OH239537   1.022   6.285   8.196  0.2423  0.2878  0.0180
 5993TIP3    H139538   1.081   6.322   8.262 -1.2843  0.3858  1.3966
 5993TIP3    H239539   1.080   6.240   8.134  1.7981  1.0301  0.8760
 5994TIP3   OH239540   3.796   2.370   1.322  0.0441 -0.2426  0.4313
 5994TIP3    H139541   3.872   2.419   1.355 -1.2902  1.3026  1.3395
 5994TIP3    H239542   3.740   2.436   1.282 -1.7759 -0.9858  1.6137
 5995TIP3   OH239543   5.265   4.070   0.100 -0.2996 -0.6495  0.2087
 5995TIP3    H139544   5.220   3.991   0.129  0.6881 -1.3544 -0.0959
 5995TIP3    H239545   5.234   4.139   0.158 -1.5242 -1.1684  0.1878
 5996TIP3   OH239546   6.163   3.655   8.351  0.0464 -0.1074 -0.1727
 5996TIP3    H139547   6.254   3.663   8.322 -0.4770  0.8531 -1.6512
 5996TIP3    H239548   6.169   3.615   8.438  1.8228 -0.8390 -0.5884
 5997TIP3   OH239549   2.873   3.304   8.011  0.4035  0.1832  0.0896
 5997TIP3    H139550   2.811   3.375   8.027  1.1880  1.1569 -0.9755
 5997TIP3    H239551   2.934   3.340   7.946 -0.2578 -2.0762 -1.9470
 5998TIP3   OH239552   0.122   2.933   6.472 -0.2554 -0.4130 -0.4956
 5998TIP3    H139553   0.152   2.985   6.396  2.3938  0.6414  1.1195
 5998TIP3    H239554   0.045   2.980   6.503  0.7706  1.3377 -0.4158
 5999TIP3   OH239555   0.335   1.639   0.415  0.2459 -0.6789  0.1047
 5999TIP3    H139556   0.385   1.611   0.492  0.3608 -0.1441  0.2293
 5999TIP3    H239557   0.402   1.672   0.355 -0.0634  1.6057  0.9363
 6000TIP3   OH239558   6.611   0.597   1.812  0.1994 -0.2632  0.5044
 6000TIP3    H139559   6.546   0.609   1.882  0.2149 -0.8366  0.6188
 6000TIP3    H239560   6.683   0.656   1.836 -0.1847  0.2204  0.4879
 6001TIP3   OH239561   0.236   5.586   6.073  0.4405 -0.0934 -0.1512
 6001TIP3    H139562   0.147   5.552   6.077  0.7627 -0.8592  0.9789
 6001TIP3    H239563   0.274   5.543   5.996  0.0011 -0.1777 -0.3260
 6002TIP3   OH239564   6.317   4.874   8.024  0.3663  0.4187 -0.4831
 6002TIP3    H139565   6.401   4.914   8.004  0.4476  0.3541 -0.2785
 6002TIP3    H239566   6.285   4.841   7.940  1.5938 -1.5679 -0.2307
 6003TIP3   OH239567   4.330   2.073   1.213 -0.4555  0.0493  0.1571
 6003TIP3    H139568   4.293   2.086   1.126 -2.0445 -3.2007  0.1922
 6003TIP3    H239569   4.258   2.040   1.265  0.9741 -0.1432  2.1204
 6004TIP3   OH239570   5.730   2.671   7.813  0.0208  0.5464 -0.1008
 6004TIP3    H139571   5.762   2.755   7.847 -1.2733  1.1440 -0.2941
 6004TIP3    H239572   5.676   2.695   7.738 -0.7507 -0.4159  0.1292
 6005TIP3   OH239573   0.230   5.664   6.751 -0.4153  0.8113 -0.1949
 6005TIP3    H139574   0.181   5.746   6.756  1.6856  2.1741 -0.7687
 6005TIP3    H239575   0.307   5.678   6.806  0.0570 -0.7484 -0.4082
 6006TIP3   OH239576   5.130   2.419   7.236  0.3694  0.0869 -0.3111
 6006TIP3    H139577   5.058   2.468   7.196 -2.4056 -2.7004  0.7615
 6006TIP3    H239578   5.130   2.446   7.327  1.5571  0.9413 -0.5470
 6007TIP3   OH239579   0.855   1.996   0.565 -0.6852  0.2861 -0.4885
 6007TIP3    H139580   0.914   2.050   0.513 -0.7774  0.4961 -0.3770
 6007TIP3    H239581   0.875   2.021   0.656 -1.8707  1.3379 -0.4853
 6008TIP3   OH239582   1.103   0.092   0.018 -0.0738  0.3843  0.2505
 6008TIP3    H139583   1.178   0.055  -0.028  0.7855  1.0257  1.1111
 6008TIP3    H239584   1.139   0.130   0.098 -1.1505  1.6704  0.1682
 6009TIP3   OH239585   5.468   2.833   0.380 -0.8027 -0.7898 -0.2864
 6009TIP3    H139586   5.528   2.829   0.305 -0.5172  0.5666 -0.1600
 6009TIP3    H239587   5.381   2.838   0.341 -0.5497  3.3378 -0.7790
 6010TIP3   OH239588   2.082   2.369   1.621  0.1696  0.3821  0.3358
 6010TIP3    H139589   2.105   2.355   1.713 -1.7308 -3.1201  0.4442
 6010TIP3    H239590   2.002   2.423   1.625  1.0693  1.7641  0.5618
 6011TIP3   OH239591   5.867   3.728   0.894  0.1645  0.0047 -0.3431
 6011TIP3    H139592   5.812   3.699   0.966  1.3985  0.3091  0.7611
 6011TIP3    H239593   5.842   3.672   0.821 -3.3961  1.7942 -0.7071
 6012TIP3   OH239594   4.307   2.856   8.184 -0.0776  0.0214  0.2978
 6012TIP3    H139595   4.262   2.779   8.221 -1.7245  0.7751 -0.0645
 6012TIP3    H239596   4.380   2.819   8.134  0.2045 -1.1989  1.5415
 6013TIP3   OH239597   0.893   2.772   7.687 -0.2851 -0.7895  0.1925
 6013TIP3    H139598   0.900   2.682   7.655  0.9641 -0.8560  0.5867
 6013TIP3    H239599   0.937   2.825   7.620 -0.2700 -0.5814  0.3665
 6014TIP3   OH239600   2.512   0.057   6.881 -0.1605  0.2212 -0.7028
 6014TIP3    H139601   2.500   0.152   6.882  0.7955  0.3767  1.7608
 6014TIP3    H239602   2.461   0.027   6.806 -0.3259  2.6869 -1.6538
 6015TIP3   OH239603   6.708   5.891   0.882  0.0453 -0.0260 -0.0492
 6015TIP3    H139604   6.683   5.970   0.833 -1.9013 -1.4386 -1.4959
 6015TIP3    H239605   6.748   5.834   0.817  0.7927 -0.5192  0.8278
 6016TIP3   OH239606   1.780   3.566   7.260 -0.3895 -0.3437  0.1171
 6016TIP3    H139607   1.782   3.472   7.240 -2.0360 -0.7037  1.4109
 6016TIP3    H239608   1.770   3.570   7.355  1.5081  1.2055  0.3235
 6017TIP3   OH239609   2.544   1.680   7.565  0.6810  0.3828 -0.1974
 6017TIP3    H139610   2.609   1.733   7.611 -0.4464  0.8245  0.9098
 6017TIP3    H239611   2.479   1.742   7.534  0.8759 -0.0347 -1.4994
 6018TIP3   OH239612   1.189   5.406   6.705 -0.1968 -0.5334 -0.1352
 6018TIP3    H139613   1.191   5.472   6.636 -1.6901 -1.1846 -0.8447
 6018TIP3    H239614   1.226   5.327   6.665 -3.8806 -1.8594 -1.3656
 6019TIP3   OH239615   2.321   1.832   7.820  0.3779  0.5006 -0.5145
 6019TIP3    H139616   2.243   1.882   7.844 -0.1874 -0.2421 -0.7884
 6019TIP3    H239617   2.324   1.837   7.725 -1.4387 -2.5033 -0.8459
 6020TIP3   OH239618   4.865   4.340   7.411  0.4699  0.0574  0.0509
 6020TIP3    H139619   4.916   4.261   7.395  2.5030  1.6456 -1.8584
 6020TIP3    H239620   4.785   4.328   7.361  1.5558 -0.0922 -1.7304
 6021TIP3   OH239621   3.309   3.918   6.250 -0.7970  0.5633  0.3038
 6021TIP3    H139622   3.320   4.011   6.229 -0.9830  0.5580  0.1804
 6021TIP3    H239623   3.307   3.875   6.164  2.4038  0.0664  0.3397
 6022TIP3   OH239624   1.486   4.726   7.825  0.0562 -0.2895  0.2762
 6022TIP3    H139625   1.528   4.647   7.860 -1.0115 -1.8411 -1.6760
 6022TIP3    H239626   1.533   4.745   7.744 -0.7112  0.0957 -0.0924
 6023TIP3   OH239627   5.300   2.541   6.825 -0.4126 -0.1814 -0.3594
 6023TIP3    H139628   5.230   2.556   6.889 -0.5983  0.8644 -0.7874
 6023TIP3    H239629   5.353   2.470   6.863 -1.8448 -1.1815 -0.1595
 6024TIP3   OH239630   0.094   3.638   1.285 -0.0254 -0.3643 -0.2897
 6024TIP3    H139631   0.092   3.624   1.379  3.2291 -1.1875 -0.2357
 6024TIP3    H239632   0.167   3.585   1.254 -0.5206  0.4706 -3.1825
 6025TIP3   OH239633   2.525   0.808   6.187  0.8642  0.0150  0.0906
 6025TIP3    H139634   2.468   0.748   6.138 -1.7858  0.4264  2.4279
 6025TIP3    H239635   2.485   0.894   6.176 -0.1172  0.0787  3.0960
 6026TIP3   OH239636   6.117   6.640   7.724  0.2480  0.1851 -0.0143
 6026TIP3    H139637   6.031   6.622   7.764  0.2292  0.8119  0.2509
 6026TIP3    H239638   6.145   6.556   7.688 -1.1755  0.2845 -1.4774
 6027TIP3   OH239639   1.239   3.564   0.590  0.1521  0.1910 -0.0250
 6027TIP3    H139640   1.144   3.551   0.595  0.2467 -1.0120 -0.9805
 6027TIP3    H239641   1.275   3.510   0.661  0.1367  0.4527  0.1819
 6028TIP3   OH239642   1.980   5.651   2.144 -0.0434 -0.0556 -0.4044
 6028TIP3    H139643   1.967   5.719   2.210  0.9019 -0.1125 -0.1425
 6028TIP3    H239644   2.075   5.635   2.144 -0.2343 -1.3368 -0.4817
 6029TIP3   OH239645   3.094   4.727   0.877  0.1127 -0.0706 -0.3226
 6029TIP3    H139646   3.087   4.739   0.971 -2.5931  0.9267 -0.5509
 6029TIP3    H239647   3.009   4.689   0.852  2.0221 -3.7405 -1.9565
 6030TIP3   OH239648   6.168   0.660   8.032 -0.1801  0.3827  0.3033
 6030TIP3    H139649   6.228   0.634   8.101  0.2119  1.8394  0.5542
 6030TIP3    H239650   6.109   0.586   8.022 -0.0018 -0.0222  1.9286
 6031TIP3   OH239651   1.589   0.408   1.932 -0.3137  0.0665  0.3625
 6031TIP3    H139652   1.681   0.411   1.956 -0.3635 -0.0016  0.5653
 6031TIP3    H239653   1.555   0.494   1.957 -0.3349  0.0449  0.4074
 6032TIP3   OH239654   3.833   3.607   8.186  0.2804  0.0340 -0.3588
 6032TIP3    H139655   3.749   3.636   8.151  0.1274  1.6990  1.2329
 6032TIP3    H239656   3.897   3.634   8.121 -0.3098 -0.2363 -1.0572
 6033TIP3   OH239657   6.588   6.740   1.976 -0.2218  0.2791  0.1833
 6033TIP3    H139658   6.570   6.808   1.912  0.1638 -0.2560 -0.5092
 6033TIP3    H239659   6.652   6.779   2.035 -0.9567  0.9480  0.5535
 6034TIP3   OH239660   1.279   5.554   1.143 -0.0476  0.1382 -0.5537
 6034TIP3    H139661   1.192   5.571   1.178  1.1300  3.7227  1.0940
 6034TIP3    H239662   1.318   5.490   1.203 -1.7323 -2.1836 -1.8137
 6035TIP3   OH239663   6.826   5.049   7.885  0.1228 -0.1658  0.1513
 6035TIP3    H139664   6.891   5.032   7.953 -0.7370  0.3536  1.1321
 6035TIP3    H239665   6.877   5.055   7.804  1.1045 -1.3679  0.6464
 6036TIP3   OH239666   1.580   5.345   0.318 -0.1804  0.4712  0.3681
 6036TIP3    H139667   1.559   5.337   0.225  1.2883 -1.3293  0.1398
 6036TIP3    H239668   1.496   5.338   0.362 -0.9040  1.3444 -0.7838
 6037TIP3   OH239669   4.496   2.203   0.863 -0.1222 -0.6195 -0.0913
 6037TIP3    H139670   4.456   2.288   0.842  0.5928  0.2744  1.9211
 6037TIP3    H239671   4.433   2.161   0.922 -0.1821 -1.2553 -0.5900
 6038TIP3   OH239672   2.733   6.219   7.733 -0.8774  0.1189  0.4291
 6038TIP3    H139673   2.796   6.267   7.787 -1.7115  2.0565 -0.2402
 6038TIP3    H239674   2.788   6.165   7.676  0.1539  0.9604  0.5918
 6039TIP3   OH239675   4.797   1.656   1.322 -0.3723 -0.1754 -0.1867
 6039TIP3    H139676   4.798   1.675   1.416  0.6473  1.9088 -0.5484
 6039TIP3    H239677   4.818   1.563   1.315  0.4472 -0.1577  1.6300
 6040TIP3   OH239678   5.843   5.903   7.847  0.2813 -0.6287 -0.0054
 6040TIP3    H139679   5.906   5.910   7.775 -0.5185 -0.1568 -0.6821
 6040TIP3    H239680   5.758   5.898   7.803 -0.1331 -1.7670  0.8742
 6041TIP3   OH239681   0.496   1.233   6.590  0.2991 -0.1029  0.5863
 6041TIP3    H139682   0.426   1.180   6.627 -0.3850  1.0384  0.9766
 6041TIP3    H239683   0.527   1.287   6.663  0.4076  0.6218  0.0230
 6042TIP3   OH239684   6.942   2.984   1.755  0.0511  0.3811 -0.7350
 6042TIP3    H139685   6.872   2.955   1.814  0.6746 -1.5185 -0.8722
 6042TIP3    H239686   7.008   2.915   1.760  0.6382  0.7203 -2.7834
 6043TIP3   OH239687   2.571   4.088   7.632 -0.4494 -0.0690  0.4462
 6043TIP3    H139688   2.649   4.032   7.631 -1.0383 -0.9976  2.0523
 6043TIP3    H239689   2.603   4.174   7.604  0.9224 -0.6881  0.0271
 6044TIP3   OH239690   1.868   0.267   6.741  0.7061 -0.0796  0.0121
 6044TIP3    H139691   1.895   0.345   6.790  0.0620  0.7841 -0.9585
 6044TIP3    H239692   1.783   0.244   6.779  1.1465 -0.6766  0.6786
 6045TIP3   OH239693   5.161   6.469   1.591  0.0864 -0.2712  0.7010
 6045TIP3    H139694   5.142   6.384   1.630 -1.4700  0.1988  1.0397
 6045TIP3    H239695   5.094   6.481   1.525  0.5047  0.5496  0.4123
 6046TIP3   OH239696   4.802   2.892   7.038 -0.2515  0.3018 -0.2783
 6046TIP3    H139697   4.732   2.843   7.081  0.6731 -0.4971  0.3489
 6046TIP3    H239698   4.841   2.944   7.108  0.4061  0.0132 -0.4280
 6047TIP3   OH239699   4.022   2.395   7.383  0.1227  0.0044  0.1683
 6047TIP3    H139700   3.977   2.365   7.462 -1.5599 -2.6363 -1.6064
 6047TIP3    H239701   4.090   2.328   7.368 -1.9781 -1.7448 -2.4704
 6048TIP3   OH239702   4.231   4.029   7.932 -0.6548  0.2780  0.2485
 6048TIP3    H139703   4.276   4.099   7.884 -0.8024 -0.4502 -0.9828
 6048TIP3    H239704   4.138   4.044   7.916 -0.6549 -0.6327 -0.6579
 6049TIP3   OH239705   2.227   2.830   1.434 -0.3398  0.4930 -0.0354
 6049TIP3    H139706   2.189   2.814   1.520 -1.6845 -1.3060 -0.9019
 6049TIP3    H239707   2.180   2.906   1.401 -1.6123 -0.3351 -0.1757
 6050TIP3   OH239708   4.470   0.016   7.144 -0.1376 -0.5071 -0.7673
 6050TIP3    H139709   4.466   0.074   7.220  0.7828  0.9028 -1.7581
 6050TIP3    H239710   4.403  -0.050   7.161 -0.3495  0.1076  0.9870
 6051TIP3   OH239711   2.288   6.285   0.890 -0.4229 -0.6319  0.1249
 6051TIP3    H139712   2.366   6.270   0.837  1.4261  1.3079  2.1222
 6051TIP3    H239713   2.255   6.370   0.862 -0.3914 -0.3473  0.9147
 6052TIP3   OH239714   5.047   6.174   1.520 -1.1841 -0.3027 -0.2715
 6052TIP3    H139715   5.040   6.129   1.435 -2.5391  0.7828 -0.7736
 6052TIP3    H239716   4.985   6.246   1.514 -0.0690  0.8193  1.0396
 6053TIP3   OH239717   3.021   6.000   7.360 -0.2422 -0.3437 -0.7355
 6053TIP3    H139718   3.045   5.910   7.339 -2.2947 -1.7476  2.2828
 6053TIP3    H239719   2.938   6.015   7.315 -1.2749 -1.0022  0.8666
 6054TIP3   OH239720   0.870   2.129   8.187  0.0576 -0.3264  0.0829
 6054TIP3    H139721   0.925   2.108   8.112 -0.3775  0.2223 -0.3875
 6054TIP3    H239722   0.818   2.050   8.201  1.8923 -1.4139  1.4007
 6055TIP3   OH239723   6.330   3.651   6.145  0.2191 -0.3260  0.8291
 6055TIP3    H139724   6.405   3.710   6.134 -0.1851 -0.0187 -0.3495
 6055TIP3    H239725   6.363   3.565   6.117  0.3773 -0.3679  1.1397
 6056TIP3   OH239726   3.935   2.718   0.551 -0.2134  0.2475  0.0123
 6056TIP3    H139727   3.860   2.778   0.549 -2.4180 -2.3030  0.6169
 6056TIP3    H239728   3.924   2.665   0.472  0.7625 -0.4105  0.3114
 6057TIP3   OH239729   0.552   6.275   2.688 -0.6662  0.4847  0.2681
 6057TIP3    H139730   0.594   6.356   2.660 -1.2094  0.2234 -1.4136
 6057TIP3    H239731   0.599   6.206   2.641 -1.3074 -0.0333  0.3671
 6058TIP3   OH239732   6.413   4.707   8.247  0.5761  0.0299  0.1981
 6058TIP3    H139733   6.350   4.767   8.207  3.3274  3.5268  0.6238
 6058TIP3    H239734   6.385   4.700   8.338 -0.1986  0.0621 -0.0345
 6059TIP3   OH239735   5.880   2.734   0.132 -0.1911 -0.6597 -0.3917
 6059TIP3    H139736   5.918   2.691   0.055  0.3645 -0.0931 -0.4399
 6059TIP3    H239737   5.955   2.749   0.190 -0.6616 -1.4747  0.4631
 6060TIP3   OH239738   4.913   5.954   7.522 -0.2069  0.1541 -0.4978
 6060TIP3    H139739   4.874   5.997   7.446 -0.3724  1.6471  0.3823
 6060TIP3    H239740   4.874   5.867   7.523 -0.8401  0.3996 -1.6418
 6061TIP3   OH239741   5.808   0.697   1.130  0.5918  0.0556  0.0351
 6061TIP3    H139742   5.802   0.709   1.225 -1.5769 -0.1611 -0.0142
 6061TIP3    H239743   5.832   0.783   1.096 -0.5149  0.6466  0.6824
 6062TIP3   OH239744   2.865   1.063   1.487  0.0645 -0.0029  0.4529
 6062TIP3    H139745   2.840   1.125   1.419  0.0513 -0.0853  0.3821
 6062TIP3    H239746   2.781   1.031   1.522  0.0084  1.6579  2.0183
 6063TIP3   OH239747   6.740   0.437   6.275  0.7559 -0.1208  0.5091
 6063TIP3    H139748   6.696   0.354   6.254  0.4093  0.0655  0.4885
 6063TIP3    H239749   6.728   0.446   6.370  0.3664  0.1473  0.4354
 6064TIP3   OH239750   2.809   1.455   8.338  0.7459  0.2101 -0.4616
 6064TIP3    H139751   2.729   1.433   8.291  1.2628  1.5178 -2.0304
 6064TIP3    H239752   2.857   1.373   8.344  0.0858 -0.2296 -1.1081
 6065TIP3   OH239753   4.631   5.791   1.730 -0.2547  0.6275  0.0553
 6065TIP3    H139754   4.611   5.728   1.799 -0.1882  0.1983 -0.3117
 6065TIP3    H239755   4.562   5.857   1.737 -0.9632 -0.0608 -0.2497
 6066TIP3   OH239756   3.642   4.218   0.935  0.1970  0.0635  0.2555
 6066TIP3    H139757   3.616   4.266   1.013  1.3055  0.1816  0.5693
 6066TIP3    H239758   3.672   4.133   0.967  1.9257  0.5829  0.1428
 6067TIP3   OH239759   1.050   6.768   1.389 -0.2233 -0.0162  0.5121
 6067TIP3    H139760   0.973   6.739   1.436 -0.5016  0.9045  0.6340
 6067TIP3    H239761   1.029   6.856   1.359  0.3872 -0.1414 -0.3388
 6068TIP3   OH239762   1.981   4.540   8.065 -0.0085  0.1012  0.2944
 6068TIP3    H139763   1.921   4.493   8.124  0.8683  1.3101  2.2622
 6068TIP3    H239764   1.928   4.609   8.026 -0.1647  0.5460  1.2584
 6069TIP3   OH239765   3.453   0.410   7.098  0.2357 -0.2773 -0.4714
 6069TIP3    H139766   3.501   0.336   7.134  1.5968  1.6423  1.9841
 6069TIP3    H239767   3.404   0.446   7.171  0.1431  1.6190 -1.3938
 6070TIP3   OH239768   2.656   4.338   0.740 -0.0353  0.0643  0.2526
 6070TIP3    H139769   2.605   4.267   0.700 -2.2901  1.3532  0.6322
 6070TIP3    H239770   2.735   4.345   0.686 -0.1028 -2.2143 -0.2207
 6071TIP3   OH239771   2.006   6.957   1.912 -0.8783 -0.8406 -0.2298
 6071TIP3    H139772   2.020   6.888   1.977  1.1683  0.7080  1.1216
 6071TIP3    H239773   1.977   7.032   1.963 -0.7065 -0.0093 -1.3140
 6072TIP3   OH239774   5.713   3.928   0.504 -0.2937  0.7369  0.0129
 6072TIP3    H139775   5.627   3.885   0.498 -0.1347  0.3118  0.6577
 6072TIP3    H239776   5.700   4.014   0.464 -0.7925  0.3385 -0.7045
 6073TIP3   OH239777   2.660   6.282   6.823 -0.1852 -0.6262 -0.3327
 6073TIP3    H139778   2.754   6.288   6.837 -0.2946 -0.1394  0.2255
 6073TIP3    H239779   2.644   6.332   6.743 -0.0143 -0.4324 -0.2446
 6074TIP3   OH239780   2.627   1.069   0.431  0.3994 -0.0355  0.1950
 6074TIP3    H139781   2.601   1.113   0.512  0.2501 -1.7259  1.1187
 6074TIP3    H239782   2.694   1.006   0.458  1.2938  0.2590 -1.2251
 6075TIP3   OH239783   5.156   2.907   7.124  0.0063  0.0229  0.0350
 6075TIP3    H139784   5.165   2.823   7.078  0.6019  0.8553 -1.4232
 6075TIP3    H239785   5.122   2.883   7.211 -0.1556 -1.6870 -0.4647
 6076TIP3   OH239786   5.863   5.961   0.243 -0.2824 -0.0005  0.0595
 6076TIP3    H139787   5.832   6.034   0.296 -0.7889  0.5944 -1.0247
 6076TIP3    H239788   5.935   5.999   0.191 -0.1134 -0.4459 -0.0351
 6077TIP3   OH239789   5.851   0.456   8.300 -0.2043 -0.0973  0.3607
 6077TIP3    H139790   5.866   0.550   8.311  2.9107 -0.5871  1.3649
 6077TIP3    H239791   5.819   0.427   8.384 -0.6390 -0.0163  0.2232
 6078TIP3   OH239792   4.250   1.528   0.962  0.2451 -0.4511 -0.3384
 6078TIP3    H139793   4.343   1.511   0.944  0.3281  0.6652 -1.0060
 6078TIP3    H239794   4.224   1.455   1.018  1.4571 -0.9291 -0.3553
 6079TIP3   OH239795   0.398   2.938   8.063 -0.0313  0.2670 -0.2745
 6079TIP3    H139796   0.310   2.938   8.099 -1.4035  0.8481 -3.2933
 6079TIP3    H239797   0.450   2.888   8.126 -2.6017 -0.5819  1.3376
 6080TIP3   OH239798   0.604   2.446   1.703  0.1898  0.3283 -0.1074
 6080TIP3    H139799   0.657   2.375   1.668  1.2839 -0.0058  2.0938
 6080TIP3    H239800   0.664   2.497   1.757 -1.4233  0.6590  1.4644
 6081TIP3   OH239801   0.644   4.187   6.980 -0.1485 -0.8315  0.7279
 6081TIP3    H139802   0.565   4.139   6.954 -0.8489  0.5140  0.2972
 6081TIP3    H239803   0.716   4.130   6.954 -0.9024 -0.9403 -1.2649
 6082TIP3   OH239804   0.719   6.573   7.720 -0.3190 -0.0548 -0.0515
 6082TIP3    H139805   0.765   6.514   7.781  0.4096  0.6499  0.1101
 6082TIP3    H239806   0.772   6.653   7.721 -1.6459  0.8424  0.2356
 6083TIP3   OH239807   1.610   4.527   7.968 -0.4908 -0.1729  0.3634
 6083TIP3    H139808   1.575   4.438   7.970 -1.2435  0.0880  2.7680
 6083TIP3    H239809   1.695   4.520   8.011 -0.3992  0.2161  0.2513
 6084TIP3   OH239810   2.564   1.751   0.294  0.0432  0.6450  0.0784
 6084TIP3    H139811   2.624   1.780   0.364  0.5757  0.7854 -0.4312
 6084TIP3    H239812   2.610   1.679   0.251 -1.0779 -0.7017  1.0332
 6085TIP3   OH239813   4.427   4.102   6.763 -0.0879 -0.5257  0.2422
 6085TIP3    H139814   4.379   4.038   6.709  0.6118 -1.1647  0.3671
 6085TIP3    H239815   4.518   4.090   6.738 -0.0465  1.3342 -0.6901
 6086TIP3   OH239816   5.677   4.062   0.763 -0.4841  0.1065  0.3825
 6086TIP3    H139817   5.701   3.983   0.715  0.1926  0.0030  0.8754
 6086TIP3    H239818   5.744   4.070   0.831  0.6523  2.2074 -0.8621
 6087TIP3   OH239819   0.252   1.916   7.882 -0.1898 -0.6195  0.2739
 6087TIP3    H139820   0.226   1.942   7.970  0.8842 -0.1120  0.4571
 6087TIP3    H239821   0.322   1.853   7.895 -0.0262 -0.5454 -0.2165
 6088TIP3   OH239822   6.293   6.332   1.693  0.2520 -0.2882  0.4333
 6088TIP3    H139823   6.352   6.334   1.769  1.6161 -0.0380 -0.5925
 6088TIP3    H239824   6.352   6.329   1.617 -1.0071  1.6000 -0.7113
 6089TIP3   OH239825   3.299   0.631   0.616 -0.0728 -0.6172  0.0610
 6089TIP3    H139826   3.369   0.688   0.584 -1.9519  2.5793  1.1181
 6089TIP3    H239827   3.313   0.627   0.710 -1.3234  0.1696  0.3014
 6090TIP3   OH239828   3.987   2.127   0.505 -0.2434  0.3376 -0.3760
 6090TIP3    H139829   3.920   2.172   0.557 -0.6657 -0.2191 -0.4313
 6090TIP3    H239830   3.997   2.042   0.548  0.9645  0.6885  0.0715
 6091TIP3   OH239831   0.697   1.328   1.152 -0.1648  0.3248 -0.9013
 6091TIP3    H139832   0.652   1.275   1.086 -0.9032 -2.2658  1.4964
 6091TIP3    H239833   0.789   1.324   1.126 -0.4283 -0.6815 -1.7433
 6092TIP3   OH239834   5.160   5.387   1.765 -0.3578  0.0428  0.2225
 6092TIP3    H139835   5.078   5.405   1.810 -0.2371  2.7569 -0.4528
 6092TIP3    H239836   5.218   5.354   1.833 -1.2343  0.6031  1.2655
 6093TIP3   OH239837   5.870   6.397   1.305  0.2656  0.1006  0.1181
 6093TIP3    H139838   5.825   6.459   1.363  0.5310  0.8819 -0.4992
 6093TIP3    H239839   5.942   6.448   1.266  0.8821 -0.7723  0.0915
 6094TIP3   OH239840   5.081   0.154   2.453  0.2509  0.1266  0.2607
 6094TIP3    H139841   4.991   0.125   2.463  0.2329  0.0705 -0.0399
 6094TIP3    H239842   5.134   0.083   2.490  0.1900 -0.0992 -0.0738
 6095TIP3   OH239843   5.016   0.127   1.044  0.3558  0.2475 -0.5320
 6095TIP3    H139844   5.082   0.058   1.042  0.0082 -0.2269  1.6682
 6095TIP3    H239845   4.935   0.083   1.015 -0.0963 -0.6300  1.8613
 6096TIP3   OH239846   6.415   1.161   0.511  0.2444  0.3588 -0.0151
 6096TIP3    H139847   6.354   1.114   0.568  1.5194  0.8915  1.8621
 6096TIP3    H239848   6.420   1.249   0.547 -0.4534  1.3642 -2.2063
 6097TIP3   OH239849   0.827   1.097   8.104  0.0857  0.4729  0.4057
 6097TIP3    H139850   0.886   1.076   8.176 -0.1827 -0.2795  0.4119
 6097TIP3    H239851   0.739   1.083   8.139 -0.0848  1.0229  0.2162
 6098TIP3   OH239852   4.683   4.392   2.233 -0.1009  0.5817 -0.3175
 6098TIP3    H139853   4.607   4.431   2.188  0.1418  1.4203 -0.0293
 6098TIP3    H239854   4.756   4.449   2.208  0.3811 -0.0446 -0.3502
 6099TIP3   OH239855   1.108   5.366   2.170 -0.1910  0.8133  0.1107
 6099TIP3    H139856   1.078   5.444   2.124 -0.3614  0.6334 -0.0896
 6099TIP3    H239857   1.032   5.308   2.171  0.1419  0.3545 -0.3933
 6100TIP3   OH239858   0.528   5.642   7.694 -0.0915 -0.3397  0.6764
 6100TIP3    H139859   0.604   5.694   7.717  0.9386 -1.4836 -0.0354
 6100TIP3    H239860   0.459   5.672   7.754 -0.0160  2.8588 -0.6226
 6101TIP3   OH239861   4.741   6.218   1.749 -0.4662 -0.7519 -0.4084
 6101TIP3    H139862   4.751   6.130   1.784 -0.8053 -0.7789 -0.3734
 6101TIP3    H239863   4.651   6.243   1.772 -1.1262 -1.2351 -2.2968
 6102TIP3   OH239864   3.896   6.437   1.063 -0.5494  0.2655 -0.3021
 6102TIP3    H139865   3.951   6.482   1.128  1.4307 -0.8424 -1.1225
 6102TIP3    H239866   3.931   6.466   0.979 -2.3480  0.7935 -0.9098
 6103TIP3   OH239867   1.353   6.943   7.418 -0.2306  0.1052 -0.1642
 6103TIP3    H139868   1.260   6.967   7.420  0.0220  1.0870  0.1688
 6103TIP3    H239869   1.398   7.015   7.462  1.0156  1.1517 -2.9211
 6104TIP3   OH239870   4.019   3.267   5.955  0.3571 -0.1275 -0.5624
 6104TIP3    H139871   4.098   3.321   5.951  0.7091 -0.6930 -3.0030
 6104TIP3    H239872   3.948   3.325   5.927  0.3798 -0.3122 -1.0243
 6105TIP3   OH239873   2.923   0.882   2.336  0.5800  0.1327  0.1939
 6105TIP3    H139874   2.869   0.841   2.268  1.0957 -2.8217  1.4021
 6105TIP3    H239875   3.006   0.835   2.331  1.3859  1.3486  1.4925
 6106TIP3   OH239876   2.766   4.916   2.344 -0.5248  0.7787 -0.6918
 6106TIP3    H139877   2.679   4.930   2.307 -0.7878  0.0769 -0.3447
 6106TIP3    H239878   2.821   4.979   2.298 -0.9753  0.3903 -1.7937
 6107TIP3   OH239879   2.900   3.374   6.035  0.0357  0.1049  0.1665
 6107TIP3    H139880   2.876   3.433   6.106 -0.6001 -1.0890  0.9865
 6107TIP3    H239881   2.938   3.431   5.968  1.2971  1.1953  1.7252
 6108TIP3   OH239882   2.034   2.352   1.296  0.3886  0.5577 -0.1221
 6108TIP3    H139883   2.041   2.393   1.210 -1.3683  1.1175 -0.0244
 6108TIP3    H239884   2.055   2.421   1.358  0.0830  0.5830 -0.0469
 6109TIP3   OH239885   6.305   6.949   8.089 -0.1072 -0.3151 -0.0225
 6109TIP3    H139886   6.339   6.925   8.003  1.1959  0.7949  0.1552
 6109TIP3    H239887   6.229   7.005   8.070 -0.3401 -0.7556 -0.4280
 6110TIP3   OH239888   1.873   6.322   6.432 -0.0909  0.2483 -0.1989
 6110TIP3    H139889   1.941   6.321   6.365  2.2610 -0.5288  2.0390
 6110TIP3    H239890   1.920   6.336   6.514 -2.7775  0.7449  1.3854
 6111TIP3   OH239891   3.933   5.199   1.745  0.3853  1.0695  0.4488
 6111TIP3    H139892   4.016   5.229   1.783  1.9509 -1.6296 -0.5506
 6111TIP3    H239893   3.872   5.197   1.818  1.5072  2.0486  1.4539
 6112TIP3   OH239894   6.927   5.216   2.180  0.1708  0.3257 -0.3828
 6112TIP3    H139895   6.991   5.286   2.170  0.2686  0.7023  2.2916
 6112TIP3    H239896   6.853   5.257   2.224 -0.5968 -0.8041 -0.5817
 6113TIP3   OH239897   1.104   3.112   8.265  0.0813 -0.0562 -0.1971
 6113TIP3    H139898   1.022   3.138   8.306 -0.1718 -0.8659 -0.1612
 6113TIP3    H239899   1.118   3.176   8.195 -1.8570 -1.2751 -1.8232
 6114TIP3   OH239900   5.776   2.511   8.118 -0.3802 -0.1124  0.2472
 6114TIP3    H139901   5.728   2.587   8.150 -0.4797 -0.7027  1.5854
 6114TIP3    H239902   5.731   2.485   8.038 -0.1383  1.4127 -0.4138
 6115TIP3   OH239903   4.442   6.899   0.818 -0.0086  0.2639  0.4187
 6115TIP3    H139904   4.388   6.902   0.740 -1.2144 -0.1542  1.2165
 6115TIP3    H239905   4.402   6.832   0.873  0.1241  1.3406  1.8894
 6116TIP3   OH239906   6.752   2.783   0.202  0.2157 -0.3083 -0.3470
 6116TIP3    H139907   6.703   2.859   0.233  0.3787 -0.7050  0.9800
 6116TIP3    H239908   6.687   2.730   0.155 -1.1222 -1.5082  2.5591
 6117TIP3   OH239909   1.388   1.499   6.768 -0.0784  0.7982 -1.0703
 6117TIP3    H139910   1.400   1.527   6.677  1.3466  2.3012 -0.4648
 6117TIP3    H239911   1.458   1.435   6.782 -0.5207  0.2936 -1.1043
 6118TIP3   OH239912   0.720   2.159   7.521 -0.4473  0.4762  0.0774
 6118TIP3    H139913   0.685   2.073   7.497 -0.1757  0.5150 -0.4571
 6118TIP3    H239914   0.769   2.143   7.602 -1.3209  0.3380  0.5969
 6119TIP3   OH239915   6.613   2.042   7.512 -0.0998  0.1724 -0.0389
 6119TIP3    H139916   6.526   2.004   7.514 -0.3213  0.6958  0.8701
 6119TIP3    H239917   6.610   2.114   7.576  1.1475 -0.1505  0.4217
 6120TIP3   OH239918   1.543   5.260   7.125  0.4938 -0.1271  0.6598
 6120TIP3    H139919   1.554   5.192   7.058 -0.5483  0.1405  0.2006
 6120TIP3    H239920   1.560   5.215   7.207  0.4798 -0.7793  0.3130
 6121TIP3   OH239921   0.588   1.897   7.942 -0.5457  0.1215 -0.5727
 6121TIP3    H139922   0.657   1.880   8.007 -1.6236 -1.1405  0.3084
 6121TIP3    H239923   0.557   1.985   7.963 -1.5126 -0.6051  1.3114
 6122TIP3   OH239924   2.630   5.282   7.874  0.1099 -0.3984  0.1223
 6122TIP3    H139925   2.643   5.356   7.815  1.7715  1.1286  2.2513
 6122TIP3    H239926   2.614   5.322   7.960 -0.8534 -2.5300  1.0214
 6123TIP3   OH239927   2.609   2.705   0.176 -0.4603 -0.1197 -0.1434
 6123TIP3    H139928   2.682   2.759   0.143 -0.8789  1.0029  0.7069
 6123TIP3    H239929   2.531   2.754   0.152 -0.8175  0.1185  1.3928
 6124TIP3   OH239930   4.197   0.424   7.634 -0.1789 -0.2729 -0.4025
 6124TIP3    H139931   4.137   0.423   7.559 -0.1775 -2.1294 -0.4299
 6124TIP3    H239932   4.139   0.431   7.711 -0.1548  2.1348 -0.5340
 6125TIP3   OH239933   1.639   4.264   1.586  0.5498  0.2992 -0.1878
 6125TIP3    H139934   1.592   4.345   1.565 -1.6118 -0.3203  1.8593
 6125TIP3    H239935   1.681   4.280   1.670 -1.8284 -1.2915  1.4546
 6126TIP3   OH239936   3.462   3.552   1.680  0.0507  0.2915 -0.0270
 6126TIP3    H139937   3.464   3.529   1.773  0.9958 -0.2753 -0.1677
 6126TIP3    H239938   3.544   3.516   1.645 -0.1924  0.6820 -1.0352
 6127TIP3   OH239939   2.308   2.189   1.497 -0.5694  0.8245 -0.6760
 6127TIP3    H139940   2.354   2.159   1.575  1.2345  0.7882 -1.6968
 6127TIP3    H239941   2.222   2.215   1.528 -0.0864  0.2860  1.2211
 6128TIP3   OH239942   6.436   3.899   7.624 -0.2246  0.4254 -0.5580
 6128TIP3    H139943   6.520   3.853   7.632  0.2131  0.9498 -1.8060
 6128TIP3    H239944   6.372   3.837   7.659  0.5083 -0.5822 -0.9205
 6129TIP3   OH239945   1.873   5.520   7.505 -0.4309  0.3474 -0.1782
 6129TIP3    H139946   1.943   5.465   7.470 -0.6709  0.7469 -1.3169
 6129TIP3    H239947   1.862   5.490   7.596  1.3877  0.4488  0.1163
 6130TIP3   OH239948   2.419   3.864   7.685 -0.0458 -0.3175 -0.1551
 6130TIP3    H139949   2.464   3.945   7.662  2.2673 -0.9068  1.9073
 6130TIP3    H239950   2.413   3.817   7.602 -0.8205  1.6267 -1.2667
 6131TIP3   OH239951   4.014   1.617   1.499  0.1069 -0.9471 -0.1214
 6131TIP3    H139952   4.092   1.654   1.540  0.0212 -0.6576 -0.2171
 6131TIP3    H239953   3.974   1.691   1.454 -1.0111 -0.7604  1.1298
 6132TIP3   OH239954   0.001   3.151   2.032  0.2558  0.1260  0.1322
 6132TIP3    H139955   0.074   3.106   2.073 -0.3495 -0.4700  0.5845
 6132TIP3    H239956  -0.057   3.174   2.105 -0.0791  0.4532 -0.2298
 6133TIP3   OH239957   3.060   6.753   0.703 -0.1395  0.0802 -0.3897
 6133TIP3    H139958   3.087   6.675   0.751 -1.4918 -0.1285  0.0860
 6133TIP3    H239959   2.978   6.728   0.660  0.1099  0.8278 -1.3427
 6134TIP3   OH239960   3.712   2.791   6.566 -0.1970  0.2968  0.0595
 6134TIP3    H139961   3.654   2.730   6.520 -0.6621 -0.6035  1.7479
 6134TIP3    H239962   3.750   2.845   6.497 -1.4955 -0.4334 -1.2749
 6135TIP3   OH239963   0.283   0.522   1.288 -0.6849 -0.3114  0.0965
 6135TIP3    H139964   0.190   0.520   1.264 -0.6182 -1.0273 -0.1409
 6135TIP3    H239965   0.291   0.457   1.358 -0.3783 -0.1905  0.1736
 6136TIP3   OH239966   5.453   1.466   8.202  0.7153  0.1885  0.1535
 6136TIP3    H139967   5.477   1.553   8.232 -1.1779  0.3171  1.4908
 6136TIP3    H239968   5.357   1.469   8.193  0.6162 -1.6898  0.0988
 6137TIP3   OH239969   6.610   3.945   1.541 -0.3152 -0.1858 -0.1790
 6137TIP3    H139970   6.666   4.019   1.564  0.2537 -0.2626 -1.2732
 6137TIP3    H239971   6.546   3.940   1.612 -0.3279  1.3236 -0.0633
 6138TIP3   OH239972   4.881   3.331   0.458  0.2383  0.2369  0.0474
 6138TIP3    H139973   4.843   3.362   0.540  1.2015 -0.2214  0.6799
 6138TIP3    H239974   4.947   3.267   0.484  0.7417  0.2717 -1.0712
 6139TIP3   OH239975   4.572   2.877   1.214  0.1466  0.6402  0.3483
 6139TIP3    H139976   4.646   2.890   1.274  1.4758 -0.2410 -1.0254
 6139TIP3    H239977   4.523   2.804   1.251 -0.4126  1.6013  1.5815
 6140TIP3   OH239978   2.238   4.197   0.776  0.2664 -0.3605 -0.0846
 6140TIP3    H139979   2.318   4.161   0.737  0.7293  0.4427  0.0972
 6140TIP3    H239980   2.263   4.217   0.867 -0.4415 -1.0535  0.2762
 6141TIP3   OH239981   3.987   3.365   6.420  0.1357 -0.4703  0.2336
 6141TIP3    H139982   3.958   3.456   6.412 -1.3072 -0.9803 -0.7332
 6141TIP3    H239983   4.062   3.369   6.479 -0.7525  1.1640  1.3232
 6142TIP3   OH239984   3.822   1.692   0.934 -0.1440 -0.5411 -0.3562
 6142TIP3    H139985   3.849   1.635   0.862  0.3373  1.8947 -2.2459
 6142TIP3    H239986   3.789   1.771   0.890 -0.6116  0.7179  2.1065
 6143TIP3   OH239987   1.991   2.514   6.180 -0.5292 -0.3849  0.4647
 6143TIP3    H139988   2.075   2.554   6.160 -0.5816 -0.1225  0.7575
 6143TIP3    H239989   1.997   2.425   6.145 -0.5805  0.0138 -0.6164
 6144TIP3   OH239990   5.435   2.910   7.916  0.2788  0.2687  0.0183
 6144TIP3    H139991   5.492   2.947   7.848  1.3179  0.8255  1.1410
 6144TIP3    H239992   5.418   2.984   7.975 -1.4484  0.0487 -0.1659
 6145TIP3   OH239993   3.277   3.063   0.744  0.7524  0.1663 -0.0002
 6145TIP3    H139994   3.333   2.986   0.737 -1.9636 -1.9731  0.1139
 6145TIP3    H239995   3.313   3.113   0.817  2.7405 -0.8117 -0.2453
 6146TIP3   OH239996   2.783   4.163   1.183 -0.1110  0.3232  0.2603
 6146TIP3    H139997   2.775   4.198   1.272  0.3755 -1.1539  0.9159
 6146TIP3    H239998   2.756   4.071   1.191  3.0261 -0.7604 -0.4429
 6147TIP3   OH239999   1.951   1.354   1.072 -0.3294 -0.6608  0.1934
 6147TIP3    H140000   2.017   1.285   1.068  0.6353  0.3223 -1.7520
 6147TIP3    H240001   1.994   1.426   1.117  0.4157  0.4009 -2.0760
 6148TIP3   OH240002   1.878   3.105   6.769  0.1726 -0.1958 -0.2200
 6148TIP3    H140003   1.846   3.093   6.680 -0.2361 -1.7264  0.0993
 6148TIP3    H240004   1.801   3.094   6.824  0.5494  0.0171  0.3618
 6149TIP3   OH240005   0.961   6.255   1.812 -0.6581  0.0499 -0.0102
 6149TIP3    H140006   0.869   6.232   1.819 -0.6868  0.6243  2.1443
 6149TIP3    H240007   1.003   6.208   1.884  0.6474  0.2522 -0.6025
 6150TIP3   OH240008   1.850   6.934   0.918  0.5830  0.2449 -0.1320
 6150TIP3    H140009   1.762   6.970   0.929 -0.0307 -1.4926  0.9180
 6150TIP3    H240010   1.907   6.997   0.962  0.0005  1.7495 -1.4234
 6151TIP3   OH240011   2.497   0.716   0.418 -0.6099  0.7967 -0.2157
 6151TIP3    H140012   2.543   0.731   0.335 -0.3076 -0.6820 -0.3558
 6151TIP3    H240013   2.470   0.803   0.447  0.9011  1.5507 -0.9328
 6152TIP3   OH240014   0.986   6.983   7.959 -0.1164 -0.6499 -0.0250
 6152TIP3    H140015   0.933   6.910   7.992 -0.9531  0.0604  0.2462
 6152TIP3    H240016   0.926   7.032   7.902  0.5212 -0.3423 -0.4365
 6153TIP3   OH240017   3.475   2.772   1.406 -0.2076 -0.5743  0.4531
 6153TIP3    H140018   3.486   2.846   1.466 -0.1326 -0.2258  0.0064
 6153TIP3    H240019   3.404   2.720   1.445 -0.8871  0.2134  0.2848
 6154TIP3   OH240020   1.959   0.916   1.323 -0.3015 -0.3506  0.0396
 6154TIP3    H140021   2.028   0.852   1.308 -0.2027 -0.1110 -0.5652
 6154TIP3    H240022   1.971   0.944   1.414 -1.1893 -2.1798  0.7593
 6155TIP3   OH240023   0.367   1.960   7.401 -0.2329 -0.1526 -0.6747
 6155TIP3    H140024   0.323   2.022   7.343 -0.0273  2.0299  1.3519
 6155TIP3    H240025   0.348   1.992   7.489  3.3750 -0.4835  0.3952
 6156TIP3   OH240026   1.049   0.076   6.605  0.2610 -0.3726  0.2474
 6156TIP3    H140027   1.097   0.155   6.627 -0.8050  0.6525 -0.9248
 6156TIP3    H240028   1.106   0.029   6.544 -0.1352  0.7689 -1.0392
 6157TIP3   OH240029   5.782   0.443   7.273 -0.2489  0.0271 -0.1565
 6157TIP3    H140030   5.699   0.486   7.252 -0.8672 -0.5566  0.9594
 6157TIP3    H240031   5.779   0.434   7.369  1.9308  1.6550  0.1380
 6158TIP3   OH240032   6.905   0.495   7.667  0.0830  0.3962 -0.2565
 6158TIP3    H140033   6.838   0.484   7.735  0.4195  0.0104  0.0228
 6158TIP3    H240034   6.966   0.423   7.682  1.4297  1.6393  0.5115
 6159TIP3   OH240035   6.890   5.524   5.415  0.0846 -0.0877 -0.4307
 6159TIP3    H140036   6.942   5.598   5.382  1.6087 -0.2758  1.3995
 6159TIP3    H240037   6.954   5.455   5.430 -1.1111 -1.2616 -0.6147
 6160TIP3   OH240038   2.713   1.044   2.464 -0.3757 -0.2203  0.5590
 6160TIP3    H140039   2.659   1.091   2.400 -0.7183 -0.0751  0.9486
 6160TIP3    H240040   2.787   1.011   2.413 -0.1519  0.7058  0.2619
 6161TIP3   OH240041   0.866   2.308   0.598 -0.2611 -0.1599 -0.0963
 6161TIP3    H140042   0.842   2.307   0.505 -4.3989  1.2747  0.7473
 6161TIP3    H240043   0.833   2.226   0.633  0.2302 -0.1819  0.3313
 6162TIP3   OH240044   6.495   1.486   0.223 -0.4357 -0.1557  0.1395
 6162TIP3    H140045   6.450   1.540   0.159 -1.4407  1.0389  1.7694
 6162TIP3    H240046   6.432   1.416   0.244 -0.7374  0.3382  0.9204
 6163TIP3   OH240047   6.773   6.815   6.819  0.6349  0.1812  0.1907
 6163TIP3    H140048   6.793   6.742   6.761  1.7321  0.5727  0.0476
 6163TIP3    H240049   6.688   6.848   6.788 -0.3105 -1.5333  0.8027
 6164TIP3   OH240050   0.351   2.018   0.689  0.0434  0.0138  0.4313
 6164TIP3    H140051   0.356   1.974   0.775 -0.5022  0.0619  0.4870
 6164TIP3    H240052   0.433   1.994   0.646 -0.2372 -1.0658  0.4617
 6165TIP3   OH240053   2.050   2.924   6.689 -0.2813  0.0821  0.1250
 6165TIP3    H140054   2.022   2.838   6.720 -0.9676  0.1615 -0.2593
 6165TIP3    H240055   1.993   2.986   6.736 -0.1181  0.2961  0.0408
 6166TIP3   OH240056   5.545   6.967   7.338 -0.1594 -0.6540 -0.0009
 6166TIP3    H140057   5.597   6.940   7.262  0.5273  0.3328  0.1009
 6166TIP3    H240058   5.510   7.052   7.314 -2.5913 -1.6964 -0.4543
 6167TIP3   OH240059   1.206   0.930   1.607 -0.4327 -0.3196  0.3752
 6167TIP3    H140060   1.213   0.873   1.531  0.8302 -0.0954  0.3110
 6167TIP3    H240061   1.259   0.888   1.675 -1.4960 -0.4903  1.1494
 6168TIP3   OH240062   6.347   2.480   7.669 -0.2189 -0.2527 -0.1356
 6168TIP3    H140063   6.375   2.448   7.583  0.0319  2.1923 -1.0337
 6168TIP3    H240064   6.262   2.438   7.682  0.2583 -1.5913 -0.9916
 6169TIP3   OH240065   6.235   0.587   7.403  0.7834 -0.6949 -0.3962
 6169TIP3    H140066   6.283   0.576   7.485  2.0553 -1.4072 -1.1992
 6169TIP3    H240067   6.160   0.529   7.411  0.9481 -0.8316  0.2190
 6170TIP3   OH240068   5.156   1.397   0.650 -0.5827 -0.3142  0.1923
 6170TIP3    H140069   5.204   1.326   0.693  1.3865  1.2888  0.7656
 6170TIP3    H240070   5.133   1.361   0.564  1.4434 -1.2729 -0.0100
 6171TIP3   OH240071   5.829   1.013   7.180  0.4100 -0.4246 -0.6203
 6171TIP3    H140072   5.830   1.066   7.260  2.5382 -0.2028 -0.7511
 6171TIP3    H240073   5.737   0.990   7.168 -0.1540  0.7607  1.0797
 6172TIP3   OH240074   4.260   3.156   0.850 -0.0304 -0.0710  0.1748
 6172TIP3    H140075   4.236   3.231   0.904  0.3452 -0.2163  0.5471
 6172TIP3    H240076   4.313   3.101   0.908 -0.3517 -0.6496 -0.0750
 6173TIP3   OH240077   3.114   0.645   1.264  0.4697 -0.2297  0.1149
 6173TIP3    H140078   3.064   0.727   1.271 -0.6576 -0.9870  1.2184
 6173TIP3    H240079   3.185   0.655   1.328  1.0979  0.3858 -0.6554
 6174TIP3   OH240080   6.166   3.734   6.641  0.2404 -0.5892  0.0545
 6174TIP3    H140081   6.164   3.774   6.554  2.1867  0.1188  0.3026
 6174TIP3    H240082   6.244   3.679   6.641  1.7067  1.2984  2.1083
 6175TIP3   OH240083   2.711   0.457   1.013 -0.7459 -0.6317  0.7983
 6175TIP3    H140084   2.735   0.391   1.078 -0.1484 -0.2116  1.0144
 6175TIP3    H240085   2.745   0.539   1.048 -1.6972 -0.1620  0.6432
 6176TIP3   OH240086   3.858   5.249   1.013 -0.9551  0.3049 -0.2196
 6176TIP3    H140087   3.854   5.156   0.991  0.4948  0.4276 -1.1543
 6176TIP3    H240088   3.835   5.294   0.931  0.8225  0.7499 -0.5231
 6177TIP3   OH240089   6.825   5.387   1.569 -0.8138  0.4086 -0.5771
 6177TIP3    H140090   6.757   5.343   1.619 -2.0464  0.6406 -1.9746
 6177TIP3    H240091   6.798   5.376   1.477  1.2583  0.1333 -1.2176
 6178TIP3   OH240092   4.357   2.463   1.707 -0.1110 -0.0097  0.0336
 6178TIP3    H140093   4.435   2.503   1.669  0.0727  0.3719  0.7965
 6178TIP3    H240094   4.384   2.434   1.794 -0.6547 -0.4332  0.0655
 6179TIP3   OH240095   2.441   6.195   7.132  0.3024 -0.0829  0.0766
 6179TIP3    H140096   2.532   6.221   7.146  0.0790  0.2132  1.1036
 6179TIP3    H240097   2.390   6.254   7.188 -0.4047 -1.1624  0.6089
 6180TIP3   OH240098   2.884   0.924   7.234 -0.0002 -0.3077  0.0967
 6180TIP3    H140099   2.923   0.967   7.310  0.2160  0.2212 -0.3074
 6180TIP3    H240100   2.957   0.912   7.173 -0.2019 -0.5873 -0.0914
 6181TIP3   OH240101   0.498   5.569   6.833  0.1963  0.3230  0.2607
 6181TIP3    H140102   0.470   5.485   6.867  0.5703  0.6565  1.4764
 6181TIP3    H240103   0.516   5.554   6.741 -2.7559 -0.1713 -0.3076
 6182TIP3   OH240104   6.561   1.954   5.980  0.4171  0.1649  0.2752
 6182TIP3    H140105   6.519   2.033   6.015  1.2290  0.5417  0.4230
 6182TIP3    H240106   6.655   1.972   5.986  0.6006 -0.4915 -0.4346
 6183TIP3   OH240107   4.087   1.346   1.496  0.2963  0.1021  0.0548
 6183TIP3    H140108   4.046   1.432   1.491 -1.3347 -0.5217  1.3921
 6183TIP3    H240109   4.180   1.363   1.508  0.1301  1.6416 -0.6729
 6184TIP3   OH240110   1.505   6.459   6.649  0.2899 -0.3069  0.5968
 6184TIP3    H140111   1.461   6.476   6.565 -0.9828 -0.0138  1.3022
 6184TIP3    H240112   1.577   6.401   6.626  0.1885  0.0652 -0.7614
 6185TIP3   OH240113   3.489   4.549   7.590 -0.0436  0.3938 -0.2384
 6185TIP3    H140114   3.537   4.468   7.604  2.3642  1.6403 -0.8978
 6185TIP3    H240115   3.526   4.611   7.653 -1.4702  1.1650 -0.0992
 6186TIP3   OH240116   3.627   0.960   7.213 -0.1953  0.1607  0.3386
 6186TIP3    H140117   3.584   0.889   7.261  1.0475 -1.6416 -1.0583
 6186TIP3    H240118   3.670   0.916   7.139  1.2616  2.2792 -0.1681
 6187TIP3   OH240119   4.934   6.306   0.959 -0.2156 -0.3696 -0.2984
 6187TIP3    H140120   4.960   6.363   1.032 -3.1547  0.6009  0.1188
 6187TIP3    H240121   4.893   6.365   0.896  0.1742 -1.5285 -1.6773
 6188TIP3   OH240122   0.157   1.712   7.701  0.0872  0.2528  0.1108
 6188TIP3    H140123   0.157   1.801   7.735  1.3496  0.7984 -1.2152
 6188TIP3    H240124   0.106   1.718   7.620  0.3494 -0.1910 -0.0887
 6189TIP3   OH240125   0.250   5.334   1.826  0.2086 -0.4278 -0.0879
 6189TIP3    H140126   0.166   5.310   1.787  0.6290 -0.8966 -0.7320
 6189TIP3    H240127   0.294   5.250   1.840  0.4609 -0.2013  0.4969
 6190TIP3   OH240128   1.210   2.373   8.239 -0.2275  0.4005 -0.0483
 6190TIP3    H140129   1.247   2.285   8.246 -2.1238 -0.3236  1.6995
 6190TIP3    H240130   1.156   2.383   8.317 -0.3418  3.0051 -0.3759
 6191TIP3   OH240131   6.599   5.166   7.455  0.3942  0.2423 -0.0929
 6191TIP3    H140132   6.626   5.079   7.485  0.8237 -0.3109 -1.9619
 6191TIP3    H240133   6.560   5.207   7.533 -1.3523 -2.2030  0.4324
 6192TIP3   OH240134   0.160   2.069   7.250  0.0696  0.0731  0.3302
 6192TIP3    H140135   0.143   2.065   7.156 -0.3220 -0.5924  0.4250
 6192TIP3    H240136   0.074   2.057   7.291  0.1651  0.8046  0.7752
 6193TIP3   OH240137   0.385   3.961   8.248  0.1542 -0.3968 -0.0398
 6193TIP3    H140138   0.470   3.993   8.279  0.1538 -1.4475  1.1198
 6193TIP3    H240139   0.372   4.006   8.165  1.8357 -0.1853 -0.2342
 6194TIP3   OH240140   6.829   6.600   1.844  0.0632  0.6723  0.7089
 6194TIP3    H140141   6.746   6.646   1.851 -1.7511 -2.4837  2.5279
 6194TIP3    H240142   6.887   6.643   1.907 -0.0328  3.0145 -0.6982
 6195TIP3   OH240143   3.739   5.955   0.010  0.2380  0.2569  0.2227
 6195TIP3    H140144   3.754   5.935  -0.082 -0.9795 -0.0569  0.0669
 6195TIP3    H240145   3.747   6.050   0.016 -3.2300  0.7642 -1.0061
 6196TIP3   OH240146   5.256   6.969   1.480 -0.3519  0.0442  0.2596
 6196TIP3    H140147   5.181   7.024   1.461 -0.4321 -0.5531 -1.2789
 6196TIP3    H240148   5.233   6.883   1.445  0.6950 -0.3834  0.5675
 6197TIP3   OH240149   5.838   6.161   8.001 -0.1520 -0.4003 -0.3382
 6197TIP3    H140150   5.927   6.159   8.035 -0.0114 -0.8547 -0.7289
 6197TIP3    H240151   5.828   6.078   7.954 -1.0989 -0.7981  0.5200
 6198TIP3   OH240152   2.092   2.902   8.210 -0.5076  0.4202  0.4251
 6198TIP3    H140153   2.184   2.876   8.210 -0.3779  0.8515 -0.3226
 6198TIP3    H240154   2.087   2.971   8.277 -0.3071  0.3252  0.5385
 6199TIP3   OH240155   6.433   3.742   2.236 -0.3460 -0.1792 -0.3043
 6199TIP3    H140156   6.508   3.691   2.207 -1.0535 -0.9795 -0.7569
 6199TIP3    H240157   6.373   3.678   2.275 -0.5357  0.5304  0.6056
 6200TIP3   OH240158   0.225   1.069   1.189 -0.4678 -0.8860 -0.0722
 6200TIP3    H140159   0.264   1.153   1.214 -0.6544 -0.4746 -1.1002
 6200TIP3    H240160   0.139   1.068   1.231 -1.1141  0.1532 -1.3287
 6201TIP3   OH240161   6.416   1.996   1.600  0.2251  0.3183  0.2903
 6201TIP3    H140162   6.347   2.055   1.631 -0.8771 -1.0479  0.5301
 6201TIP3    H240163   6.496   2.029   1.642 -0.4055  1.4353  0.6697
 6202TIP3   OH240164   4.259   2.746   0.275  0.6216 -0.2496 -0.1752
 6202TIP3    H140165   4.205   2.812   0.232  0.7921 -0.8585 -1.3514
 6202TIP3    H240166   4.328   2.796   0.319  0.3087  0.3959 -0.4073
 6203TIP3   OH240167   2.225   1.123   0.692 -0.4040  0.1719 -0.0335
 6203TIP3    H140168   2.174   1.203   0.678  0.2642  0.5432 -0.3530
 6203TIP3    H240169   2.167   1.067   0.745 -0.6458  1.0941  0.7011
 6204TIP3   OH240170   5.485   1.869   1.862 -0.4013 -0.4022  0.1758
 6204TIP3    H140171   5.424   1.926   1.817  0.1459 -0.8634 -1.1998
 6204TIP3    H240172   5.572   1.903   1.840 -0.0779 -1.5129 -0.3844
 6205TIP3   OH240173   4.953   1.410   1.424  0.1623 -0.4172  0.7009
 6205TIP3    H140174   4.880   1.353   1.402  0.6600 -0.7537 -0.1099
 6205TIP3    H240175   4.945   1.423   1.519 -2.8613  2.2532  0.2320
 6206TIP3   OH240176   4.383   0.858   1.293 -0.0493 -0.3135 -0.7836
 6206TIP3    H140177   4.440   0.860   1.216  1.6037  0.4906  0.4014
 6206TIP3    H240178   4.403   0.938   1.341 -1.8088 -0.2659 -0.0183
 6207TIP3   OH240179   2.066   5.619   7.114 -0.1022  0.5022 -0.4544
 6207TIP3    H140180   2.152   5.656   7.129 -0.4906  0.4355  2.6623
 6207TIP3    H240181   2.072   5.530   7.148 -1.4293  0.5770  0.0523
 6208TIP3   OH240182   1.080   5.892   2.011 -0.0972  0.6916 -0.6842
 6208TIP3    H140183   1.155   5.856   2.058  0.8730  0.2330 -2.4755
 6208TIP3    H240184   1.088   5.987   2.021  0.9482  0.6690 -1.1373
 6209TIP3   OH240185   3.881   1.891   0.197 -0.4368 -0.0127  0.2599
 6209TIP3    H140186   3.923   1.842   0.126 -0.5000 -1.1911  0.9997
 6209TIP3    H240187   3.855   1.824   0.260 -3.2494  0.6470 -0.0310
 6210TIP3   OH240188   4.419   2.975   7.786 -0.3212 -0.1978  0.0333
 6210TIP3    H140189   4.443   2.906   7.848 -2.7040 -2.1832 -1.0895
 6210TIP3    H240190   4.349   2.936   7.733  0.3318  2.0591 -2.6843
 6211TIP3   OH240191   3.749   2.898   6.301 -0.4363  0.2211 -0.1222
 6211TIP3    H140192   3.675   2.837   6.301 -0.1459 -0.1380 -0.4320
 6211TIP3    H240193   3.761   2.921   6.208  0.4009 -0.4177 -0.1735
 6212TIP3   OH240194   0.766   5.761   8.282 -0.0902  0.1674  0.7680
 6212TIP3    H140195   0.726   5.766   8.369  1.2961  1.3878  1.3795
 6212TIP3    H240196   0.732   5.837   8.236 -0.5339 -0.2715  0.3726
 6213TIP3   OH240197   2.095   4.673   1.123 -0.0572 -0.2157 -0.1260
 6213TIP3    H140198   2.073   4.754   1.079 -1.8313 -0.6450 -0.0798
 6213TIP3    H240199   2.025   4.660   1.187  0.9027 -1.1106  0.7845
 6214TIP3   OH240200   4.260   6.331   1.502 -0.1200  0.0497 -0.4876
 6214TIP3    H140201   4.165   6.317   1.491  0.1993 -2.8577 -0.2967
 6214TIP3    H240202   4.296   6.318   1.414  0.1538  0.4587 -0.4344
 6215TIP3   OH240203   1.545   3.486   0.026  0.0054  0.1806  0.0905
 6215TIP3    H140204   1.500   3.492   0.111  0.5074  0.9932  0.3131
 6215TIP3    H240205   1.632   3.452   0.048 -0.1460 -0.4180 -0.2125
 6216TIP3   OH240206   5.166   3.844   1.448 -0.0107 -0.0638 -0.0143
 6216TIP3    H140207   5.235   3.847   1.514  0.1126 -0.1289 -0.1411
 6216TIP3    H240208   5.154   3.935   1.422  0.4556 -0.1241 -0.4400
 6217TIP3   OH240209   6.430   5.381   1.414  0.0108  0.4320 -0.1758
 6217TIP3    H140210   6.465   5.456   1.366  1.1688  0.9472  1.4121
 6217TIP3    H240211   6.392   5.418   1.493 -0.5181 -0.5482  0.0479
 6218TIP3   OH240212   6.431   5.199   6.758 -0.6224  0.6432 -0.0196
 6218TIP3    H140213   6.438   5.135   6.829  0.5632  2.1234  1.2841
 6218TIP3    H240214   6.422   5.147   6.679  2.1921 -1.2244  0.7591
 6219TIP3   OH240215   4.468   6.298   7.892  0.4328 -0.0811  0.9995
 6219TIP3    H140216   4.486   6.252   7.811 -0.2338  0.6170  0.4489
 6219TIP3    H240217   4.501   6.387   7.877 -1.8231  0.7504  0.5877
 6220TIP3   OH240218   2.527   4.551   7.801  0.3787  0.5119 -0.2628
 6220TIP3    H140219   2.506   4.627   7.745  0.9962 -0.4667 -1.9035
 6220TIP3    H240220   2.532   4.478   7.740 -0.0284 -0.8464  1.2669
 6221TIP3   OH240221   6.483   4.983   0.081 -0.3447  0.1309  0.0064
 6221TIP3    H140222   6.494   4.990  -0.014 -0.1984  0.3704  0.0410
 6221TIP3    H240223   6.391   5.000   0.097 -0.2605  0.6221 -0.0387
 6222TIP3   OH240224   2.860   3.251   0.659  0.3777  0.1559 -0.1029
 6222TIP3    H140225   2.934   3.216   0.610  0.5193 -0.7353  0.7019
 6222TIP3    H240226   2.810   3.301   0.595  0.4208 -1.1615 -1.2130
 6223TIP3   OH240227   2.880   6.407   6.405  0.0963  0.1717  0.3391
 6223TIP3    H140228   2.818   6.447   6.345  1.7659  2.0905 -0.2492
 6223TIP3    H240229   2.872   6.459   6.485 -0.2580 -0.6689  0.8532
 6224TIP3   OH240230   0.776   6.696   0.516 -0.6641 -0.1301 -0.0545
 6224TIP3    H140231   0.689   6.709   0.555 -1.9126 -1.9125 -1.9935
 6224TIP3    H240232   0.813   6.622   0.564 -2.4782 -2.7697 -2.3838
 6225TIP3   OH240233   0.853   1.957   6.636  0.1846 -0.4095 -0.6165
 6225TIP3    H140234   0.878   1.885   6.579 -0.1540  0.6428 -2.1507
 6225TIP3    H240235   0.776   1.996   6.594  0.4470  0.9420  0.0824
 6226TIP3   OH240236   1.132   3.276   1.239 -0.2579 -0.2132 -0.6170
 6226TIP3    H140237   1.082   3.357   1.230 -0.0891 -0.1372 -0.8928
 6226TIP3    H240238   1.206   3.286   1.178  0.1664 -0.2689 -0.1243
 6227TIP3   OH240239   3.748   2.803   6.006 -0.0002 -0.5074  0.0362
 6227TIP3    H140240   3.829   2.833   5.965  1.0959 -1.0504  1.6758
 6227TIP3    H240241   3.714   2.735   5.948  1.5389 -1.3103  0.0348
 6228TIP3   OH240242   6.074   5.245   7.586  0.4287 -0.1444  0.2167
 6228TIP3    H140243   6.099   5.308   7.654 -0.6659  1.4274 -0.7720
 6228TIP3    H240244   6.142   5.253   7.519 -0.2759  0.8175 -0.4050
 6229TIP3   OH240245   4.142   0.704   7.999  0.6610  0.6138 -0.0086
 6229TIP3    H140246   4.112   0.667   7.916  1.2903  2.0254 -0.9102
 6229TIP3    H240247   4.189   0.633   8.042 -0.4942 -0.4231 -0.4106
 6230TIP3   OH240248   1.115   0.230   6.914 -0.2363  0.4573  0.3807
 6230TIP3    H140249   1.027   0.196   6.931 -1.1168  2.5550  0.3918
 6230TIP3    H240250   1.132   0.289   6.988  1.6786 -0.7581  0.9711
 6231TIP3   OH240251   3.111   5.523   7.713  0.0483 -0.3706 -0.6215
 6231TIP3    H140252   3.166   5.592   7.751 -0.0595 -0.5277 -0.1779
 6231TIP3    H240253   3.155   5.499   7.632  0.9114 -0.8484 -0.0237
 6232TIP3   OH240254   2.271   3.164   2.289 -0.0138  0.2154  0.3316
 6232TIP3    H140255   2.279   3.086   2.344 -4.9877  1.0706  2.8618
 6232TIP3    H240256   2.224   3.135   2.212  1.0730  0.2100 -0.3506
 6233TIP3   OH240257   3.587   6.828   1.295  0.2016 -0.1026 -0.3950
 6233TIP3    H140258   3.630   6.748   1.265 -1.3938 -0.5233 -1.6539
 6233TIP3    H240259   3.527   6.799   1.363 -0.5189 -0.0118 -0.9856
 6234TIP3   OH240260   4.711   1.335   8.038  0.0586 -0.1385  0.4281
 6234TIP3    H140261   4.621   1.366   8.050 -0.5155 -1.1482 -1.0048
 6234TIP3    H240262   4.704   1.239   8.041  0.8502 -0.2694 -1.0281
 6235TIP3   OH240263   6.318   4.091   0.406 -0.1592  0.5826 -0.0563
 6235TIP3    H140264   6.240   4.037   0.397  0.4658 -0.3211 -0.1987
 6235TIP3    H240265   6.300   4.169   0.352 -0.2305 -0.4521 -1.5933
 6236TIP3   OH240266   5.082   5.075   7.420 -0.1149 -0.5648 -0.2545
 6236TIP3    H140267   5.068   5.116   7.334  1.7119 -0.1743 -0.4067
 6236TIP3    H240268   5.126   5.143   7.471 -1.2300 -0.7696  1.0550
 6237TIP3   OH240269   1.797   2.517   6.389  0.2500  0.1598  0.0762
 6237TIP3    H140270   1.862   2.521   6.319  0.1531  1.2946  0.0353
 6237TIP3    H240271   1.833   2.454   6.451  0.6627 -0.3453 -0.6623
 6238TIP3   OH240272   4.491   0.974   1.933 -0.2707  0.0619 -0.0381
 6238TIP3    H140273   4.563   0.922   1.969 -1.4283 -0.4660  1.6455
 6238TIP3    H240274   4.480   1.045   1.996 -1.9640 -0.5274  0.3641
 6239TIP3   OH240275   5.096   2.342   0.369  0.3618  0.3408  0.2360
 6239TIP3    H140276   5.175   2.344   0.315 -0.2753  1.6323 -0.7069
 6239TIP3    H240277   5.049   2.264   0.342 -0.0652  1.0971 -1.2816
 6240TIP3   OH240278   5.477   1.856   0.305 -0.6319  0.6197 -0.1766
 6240TIP3    H140279   5.421   1.891   0.235 -0.3465  0.6049 -0.4183
 6240TIP3    H240280   5.566   1.866   0.270 -0.5970 -1.7022 -0.9097
 6241TIP3   OH240281   0.302   1.238   0.933  0.0293  0.1186  0.1453
 6241TIP3    H140282   0.207   1.225   0.924 -0.0779  0.5797  0.5677
 6241TIP3    H240283   0.331   1.160   0.981 -0.1412 -0.0148  0.0353
 6242TIP3   OH240284   1.088   0.318   1.127 -0.2796  0.1292  0.2995
 6242TIP3    H140285   1.024   0.279   1.067  2.1073 -0.9093 -1.7709
 6242TIP3    H240286   1.039   0.333   1.208 -2.6234 -2.4737 -0.4610
 6243TIP3   OH240287   3.947   2.202   7.845  0.2151  0.5613  0.4581
 6243TIP3    H140288   3.960   2.266   7.915 -0.2816 -0.5923  1.6523
 6243TIP3    H240289   4.033   2.194   7.804  1.2022 -0.5250  2.5597
 6244TIP3   OH240290   6.609   6.275   7.595 -0.3552 -0.2229 -0.4263
 6244TIP3    H140291   6.672   6.318   7.536  0.0917 -2.2395 -1.4989
 6244TIP3    H240292   6.555   6.221   7.537 -1.2268 -0.7020  0.8041
 6245TIP3   OH240293   5.154   6.617   7.274  0.1118  0.0460  0.4938
 6245TIP3    H140294   5.239   6.656   7.296  1.3616 -1.5883 -1.1698
 6245TIP3    H240295   5.135   6.559   7.347 -0.3573  1.4892  1.5842
 6246TIP3   OH240296   5.527   0.803   8.089  0.0707 -0.6456 -0.1107
 6246TIP3    H140297   5.601   0.863   8.097  0.4519 -1.2757  1.5679
 6246TIP3    H240298   5.504   0.805   7.996  3.5388 -2.0165 -1.1546
 6247TIP3   OH240299   6.536   4.614   0.984  0.2344 -0.2854 -0.5919
 6247TIP3    H140300   6.515   4.565   0.905 -1.6580  0.1559 -0.4007
 6247TIP3    H240301   6.511   4.704   0.965  0.8454  0.0530  0.1202
 6248TIP3   OH240302   3.764   6.735   1.583  0.3948  0.0874 -0.1975
 6248TIP3    H140303   3.824   6.809   1.574 -0.4354  0.7330 -0.5626
 6248TIP3    H240304   3.818   6.664   1.617  1.2390  0.8142  0.0064
 6249TIP3   OH240305   3.161   6.622   6.605  0.4200 -0.3239 -0.9862
 6249TIP3    H140306   3.143   6.713   6.630  3.8427  0.5130 -1.0619
 6249TIP3    H240307   3.209   6.629   6.522  0.8843 -2.1700 -0.9210
 6250TIP3   OH240308   3.147   4.797   1.141  0.1747  0.5624 -0.1695
 6250TIP3    H140309   3.233   4.837   1.128  0.1015  1.0532  0.7749
 6250TIP3    H240310   3.094   4.867   1.180 -0.0435 -0.3681  1.2429
 6251TIP3   OH240311   3.936   2.026   0.979 -0.3122  0.3892 -0.0542
 6251TIP3    H140312   3.842   2.045   0.972 -0.3385 -0.0295 -0.8868
 6251TIP3    H240313   3.952   1.956   0.916  0.0952 -1.2900  1.8237
 6252TIP3   OH240314   4.023   6.067   0.007 -0.5670  0.5677  0.1259
 6252TIP3    H140315   4.055   6.103  -0.076 -0.0956  0.6502  0.3437
 6252TIP3    H240316   4.034   6.138   0.070 -1.1984  0.6045  0.1977
 6253TIP3   OH240317   5.212   0.693   0.068 -0.2206 -0.4280 -0.5417
 6253TIP3    H140318   5.129   0.713   0.110 -0.9736 -1.7299 -1.3449
 6253TIP3    H240319   5.278   0.719   0.133 -1.1892  1.3361 -0.2058
 6254TIP3   OH240320   0.939   3.623   7.644 -0.3976 -0.6899 -0.5775
 6254TIP3    H140321   0.854   3.596   7.607 -0.8118 -1.0366  0.5773
 6254TIP3    H240322   0.962   3.553   7.704 -0.1989  0.2658  0.5040
 6255TIP3   OH240323   4.153   1.212   2.123  0.6198  0.4252  0.2944
 6255TIP3    H140324   4.131   1.151   2.053  3.3514  0.3336 -0.5839
 6255TIP3    H240325   4.116   1.296   2.093 -1.8413 -0.3896  0.8105
 6256TIP3   OH240326   3.234   3.025   6.700 -0.8146  0.5267  0.1213
 6256TIP3    H140327   3.267   2.936   6.708 -0.8296  0.4936 -0.1567
 6256TIP3    H240328   3.168   3.033   6.768  0.8825  1.1101  1.7807
 6257TIP3   OH240329   6.272   6.858   8.354 -0.3659 -0.4616 -0.0295
 6257TIP3    H140330   6.339   6.908   8.401 -0.3492 -0.0268 -0.5070
 6257TIP3    H240331   6.278   6.889   8.263 -0.9309 -0.7246 -0.1625
 6258TIP3   OH240332   2.631   2.102   6.967  0.3054 -0.3490 -0.8095
 6258TIP3    H140333   2.582   2.031   7.009  0.2101  0.5075  0.6102
 6258TIP3    H240334   2.580   2.124   6.889 -0.2920 -1.0631 -0.6319
 6259TIP3   OH240335   0.540   4.182   1.499  0.4201  0.6802 -0.0032
 6259TIP3    H140336   0.450   4.171   1.529  0.5186  0.7815  0.3290
 6259TIP3    H240337   0.532   4.192   1.404  0.0406  1.1455  0.0722
 6260TIP3   OH240338   5.894   1.446   0.281 -0.1693  0.3919  0.3924
 6260TIP3    H140339   5.879   1.526   0.331 -0.8756 -0.9740  2.4772
 6260TIP3    H240340   5.970   1.405   0.324 -1.4203 -1.3198  1.0726
 6261TIP3   OH240341   2.860   4.319   8.104 -0.0168 -0.6732  0.1629
 6261TIP3    H140342   2.794   4.263   8.062 -1.9453 -0.8770  3.1561
 6261TIP3    H240343   2.811   4.393   8.138  1.3625 -0.5847  2.1046
 6262TIP3   OH240344   0.197   6.746   1.319  0.2091  0.5827 -0.2391
 6262TIP3    H140345   0.176   6.817   1.380  0.8602  1.0429 -0.5275
 6262TIP3    H240346   0.118   6.692   1.315 -0.3032  1.3066 -0.0255
 6263TIP3   OH240347   6.289   1.652   1.112 -0.2601  0.3840 -0.5851
 6263TIP3    H140348   6.227   1.634   1.182 -2.1690 -0.8662 -2.4660
 6263TIP3    H240349   6.259   1.734   1.073  0.4797  0.8025 -0.3095
 6264TIP3   OH240350   4.077   2.190   8.351 -0.4599 -0.1703  0.8120
 6264TIP3    H140351   4.087   2.162   8.441  0.1611 -2.3138  0.1359
 6264TIP3    H240352   4.000   2.144   8.319 -0.2118 -0.0655  0.0268
 6265TIP3   OH240353   2.133   0.596   8.270 -0.1880 -0.4839 -0.2350
 6265TIP3    H140354   2.166   0.603   8.359 -3.2920  2.3285  0.9221
 6265TIP3    H240355   2.198   0.642   8.216  0.5379 -0.0389  0.9814
 6266TIP3   OH240356   0.315   4.349   8.283  0.6939 -0.1077  0.2024
 6266TIP3    H140357   0.247   4.407   8.317 -1.1980 -0.4757 -2.5523
 6266TIP3    H240358   0.391   4.365   8.339 -1.3901  0.8779  2.9891
 6267TIP3   OH240359   3.641   0.483   1.614 -0.0133 -0.2207  0.2028
 6267TIP3    H140360   3.631   0.432   1.694  2.2003  0.7620  1.1737
 6267TIP3    H240361   3.625   0.573   1.641  1.2823  0.1839 -0.3268
 6268TIP3   OH240362   6.155   6.485   0.445  0.6530 -0.2652  0.0014
 6268TIP3    H140363   6.136   6.434   0.524  1.5048  0.7340  0.8825
 6268TIP3    H240364   6.081   6.467   0.387  0.9509 -2.5687  0.2082
 6269TIP3   OH240365   6.709   5.303   2.304 -0.0151 -0.4478  0.6778
 6269TIP3    H140366   6.620   5.321   2.274 -0.2551 -1.4239  0.7564
 6269TIP3    H240367   6.728   5.372   2.368 -1.1236 -0.8355  1.4513
 6270TIP3   OH240368   3.099   4.909   8.131  0.2737 -0.0989  0.2291
 6270TIP3    H140369   3.052   4.967   8.071 -0.9115 -0.7271  0.5254
 6270TIP3    H240370   3.177   4.883   8.083 -1.4786 -1.9973 -1.8263
 6271TIP3   OH240371   5.678   2.178   6.317  0.1925 -0.3071  0.1213
 6271TIP3    H140372   5.726   2.140   6.391  1.2971 -1.1625 -0.9917
 6271TIP3    H240373   5.589   2.145   6.326  0.2781 -0.2819  1.1401
 6272TIP3   OH240374   1.331   3.008   6.868 -0.0451 -0.4926 -0.0291
 6272TIP3    H140375   1.236   2.998   6.874 -0.0303 -0.6968 -0.1382
 6272TIP3    H240376   1.353   3.068   6.939 -0.2351 -0.5680  0.0953
 6273TIP3   OH240377   2.821   0.321   0.809  0.2050  0.5247  0.0578
 6273TIP3    H140378   2.777   0.369   0.880 -1.1341  0.0606 -0.4324
 6273TIP3    H240379   2.868   0.389   0.761  2.3311  0.6804  2.1708
 6274TIP3   OH240380   4.278   0.457   8.133  0.1090 -0.1119  0.3378
 6274TIP3    H140381   4.374   0.464   8.137  0.2396 -1.8659  1.6650
 6274TIP3    H240382   4.259   0.371   8.171 -1.8820 -0.6517 -1.6511
 6275TIP3   OH240383   4.131   6.185   6.432  0.0333 -0.1435 -0.0675
 6275TIP3    H140384   4.199   6.205   6.367  0.0420  0.9782  0.2808
 6275TIP3    H240385   4.131   6.089   6.436  0.4696 -0.2203 -1.2601
 6276TIP3   OH240386   2.520   6.810   8.067  0.2682 -0.9589 -0.2188
 6276TIP3    H140387   2.567   6.879   8.019 -3.5226 -0.4579 -3.7019
 6276TIP3    H240388   2.458   6.858   8.123  1.0697 -1.6208  1.2980
 6277TIP3   OH240389   3.393   0.714   0.975 -0.4385 -0.2521 -0.6530
 6277TIP3    H140390   3.337   0.789   0.993  0.5523  0.5233 -0.6799
 6277TIP3    H240391   3.468   0.751   0.927  0.4566 -1.1104  0.0340
 6278TIP3   OH240392   1.172   6.644   7.766  0.1550  0.2521  0.1797
 6278TIP3    H140393   1.120   6.567   7.743  2.3895 -0.6930 -2.1075
 6278TIP3    H240394   1.245   6.609   7.818  0.4901  1.0293  0.2498
 6279TIP3   OH240395   4.833   3.722   0.444 -0.4032  0.2913  0.3093
 6279TIP3    H140396   4.803   3.674   0.521 -2.5155  1.6451  0.4267
 6279TIP3    H240397   4.834   3.813   0.471 -0.1687  0.6861 -0.9570
 6280TIP3   OH240398   6.317   3.960   7.147  0.0810 -0.3973  0.0232
 6280TIP3    H140399   6.271   3.948   7.065 -1.0255  0.1749  0.5363
 6280TIP3    H240400   6.248   3.956   7.214  0.8192  0.1423  0.8370
 6281TIP3   OH240401   0.241   4.357   1.660 -0.6964  0.2541  0.1325
 6281TIP3    H140402   0.305   4.428   1.659  0.3236 -0.4879  3.1574
 6281TIP3    H240403   0.173   4.387   1.720 -1.1667 -0.5955  0.0435
 6282TIP3   OH240404   6.101   6.472   1.531 -0.0553  0.2644 -0.4621
 6282TIP3    H140405   6.173   6.410   1.525  0.6842  1.0493  0.0533
 6282TIP3    H240406   6.092   6.508   1.443  0.9650  1.0051 -0.2804
 6283TIP3   OH240407   2.756   5.317   1.313  0.3614  0.0484 -0.3572
 6283TIP3    H140408   2.766   5.298   1.220 -0.1027  0.5024 -0.5071
 6283TIP3    H240409   2.742   5.232   1.354 -0.5630 -0.0576 -0.8587
 6284TIP3   OH240410   5.944   4.275   6.357 -0.0872  0.4996 -0.0986
 6284TIP3    H140411   6.024   4.223   6.348 -1.7346 -2.1133 -0.9458
 6284TIP3    H240412   5.944   4.332   6.280  2.0870  2.3631  1.1805
 6285TIP3   OH240413   4.456   5.106   0.246 -0.5092 -0.0793  0.5999
 6285TIP3    H140414   4.411   5.185   0.217  1.1962  0.3973 -0.8987
 6285TIP3    H240415   4.448   5.045   0.173  0.2320 -0.4268  0.7974
 6286TIP3   OH240416   6.127   0.397   0.185 -0.1106 -0.0479  0.2508
 6286TIP3    H140417   6.222   0.381   0.179  0.3398  2.4317 -0.2725
 6286TIP3    H240418   6.093   0.369   0.100  0.5048  0.8609 -0.3229
 6287TIP3   OH240419   5.747   0.916   7.967 -0.0225  0.1475 -1.2207
 6287TIP3    H140420   5.770   0.922   7.874  1.6943  1.0540 -0.7884
 6287TIP3    H240421   5.806   0.849   8.001 -0.2553  0.2172 -0.6820
 6288TIP3   OH240422   3.840   6.901   0.628  0.8877 -0.6690  0.1605
 6288TIP3    H140423   3.851   6.993   0.650  2.7964 -0.3768 -1.6535
 6288TIP3    H240424   3.790   6.901   0.546  1.5240 -1.1725 -0.2450
 6289TIP3   OH240425   4.760   1.385   6.339  0.5668  0.0149 -0.4680
 6289TIP3    H140426   4.699   1.339   6.282 -1.2252 -1.2607  2.2403
 6289TIP3    H240427   4.737   1.478   6.330 -0.6587 -0.3011 -0.7560
 6290TIP3   OH240428   0.897   2.504   6.702  0.5861  0.1710  0.6387
 6290TIP3    H140429   0.930   2.416   6.724 -1.3368 -0.7192  0.1508
 6290TIP3    H240430   0.815   2.488   6.656  1.4157  2.1773 -1.7629
 6291TIP3   OH240431   5.170   4.710   0.398 -0.3745 -0.1454 -0.7251
 6291TIP3    H140432   5.108   4.638   0.403 -0.1821 -0.2736 -0.1402
 6291TIP3    H240433   5.247   4.673   0.354 -0.3942 -0.2194 -0.6980
 6292TIP3   OH240434   3.944   4.996   8.314  0.2184 -0.4081 -0.1837
 6292TIP3    H140435   3.954   5.017   8.407  0.9792 -0.6972 -0.1945
 6292TIP3    H240436   3.850   4.999   8.299  0.1524  0.7614  0.3306
 6293TIP3   OH240437   1.730   1.072   1.176 -0.9834 -0.2154  0.2521
 6293TIP3    H140438   1.802   1.056   1.237 -1.0633  0.9864  0.6866
 6293TIP3    H240439   1.651   1.065   1.230 -1.0063  1.9033  0.5547
 6294TIP3   OH240440   4.326   3.334   2.687  0.1751 -0.0471  0.6900
 6294TIP3    H140441   4.245   3.379   2.712 -1.0981 -1.2634 -1.0623
 6294TIP3    H240442   4.379   3.401   2.643 -1.2038  0.0701 -0.8626
 6295TIP3   OH240443   0.979   4.533   6.724 -0.1831  0.0358 -0.0284
 6295TIP3    H140444   0.895   4.505   6.759  0.6585 -1.9955  0.5039
 6295TIP3    H240445   1.001   4.467   6.657  0.8506  0.6706 -0.3458
 6296TIP3   OH240446   2.567   5.730   0.462  0.0833 -0.4839  0.7938
 6296TIP3    H140447   2.554   5.648   0.414  2.5724 -1.1137  1.0339
 6296TIP3    H240448   2.492   5.784   0.438 -1.7359 -2.8748  0.7585
 6297TIP3   OH240449   1.026   2.033   0.819  0.5644  0.3801 -0.5530
 6297TIP3    H140450   1.044   1.975   0.894  0.1593  0.6855 -0.2133
 6297TIP3    H240451   1.113   2.061   0.790  0.9075 -1.8958 -1.9558
 6298TIP3   OH240452   2.646   3.113   0.246  0.4061 -0.7889  0.3494
 6298TIP3    H140453   2.597   3.063   0.312  3.2728 -2.5468  1.3297
 6298TIP3    H240454   2.729   3.134   0.289  1.2042  0.6777 -1.7397
 6299TIP3   OH240455   6.805   2.644   6.408 -0.1337  0.9432 -0.0895
 6299TIP3    H140456   6.901   2.637   6.415  0.0226 -3.0303 -2.6853
 6299TIP3    H240457   6.791   2.681   6.321 -0.9915  1.4743  0.2654
 6300TIP3   OH240458   0.323   6.383   6.259 -0.8491  0.3685  0.6192
 6300TIP3    H140459   0.310   6.291   6.234 -0.7129  0.4534  0.2174
 6300TIP3    H240460   0.410   6.385   6.298  0.4937  0.8470 -2.1686
 6301TIP3   OH240461   6.656   6.981   0.376  0.2586 -0.2499  0.3529
 6301TIP3    H140462   6.635   6.899   0.332  0.5433 -0.7955  1.2089
 6301TIP3    H240463   6.745   6.968   0.410  1.0297  1.0904 -1.0587
 6302TIP3   OH240464   5.720   6.202   0.327  0.7664  0.3136 -0.1639
 6302TIP3    H140465   5.678   6.151   0.396  0.3526 -1.2432 -1.4891
 6302TIP3    H240466   5.646   6.237   0.275  1.0692 -0.0899 -0.8808
 6303TIP3   OH240467   4.174   3.279   0.262 -0.1637  0.1539  0.1563
 6303TIP3    H140468   4.118   3.246   0.191  1.8741 -0.4044 -1.2816
 6303TIP3    H240469   4.243   3.213   0.270  1.3725  1.7456  0.5331
 6304TIP3   OH240470   6.735   0.629   8.334 -0.1345 -0.4318  0.0284
 6304TIP3    H140471   6.776   0.635   8.248 -0.3662  0.1925 -0.0476
 6304TIP3    H240472   6.700   0.540   8.338  3.4182 -1.9344  1.1373
 6305TIP3   OH240473   1.014   1.245   2.200 -0.6029  0.0550  0.0197
 6305TIP3    H140474   1.073   1.174   2.175 -2.1158 -1.2424 -0.0280
 6305TIP3    H240475   0.996   1.291   2.119 -0.1680  0.0715 -0.0709
 6306TIP3   OH240476   3.958   4.480   7.725 -0.2223  0.0040 -0.1715
 6306TIP3    H140477   4.023   4.548   7.747  0.5352 -0.6064 -0.4740
 6306TIP3    H240478   3.888   4.493   7.789 -0.2267  1.2559 -0.4121
 6307TIP3   OH240479   3.515   2.979   1.550  0.2769 -0.2955  0.6004
 6307TIP3    H140480   3.477   3.028   1.622  1.5645 -1.1621  1.9423
 6307TIP3    H240481   3.608   3.004   1.550  0.6543 -1.5771  0.3869
 6308TIP3   OH240482   1.664   1.289   1.026  0.1369 -0.3789 -0.0954
 6308TIP3    H140483   1.685   1.223   1.092  0.7099  0.4150  0.5330
 6308TIP3    H240484   1.746   1.337   1.013 -0.2330  0.1208 -0.6365
 6309TIP3   OH240485   6.678   1.212   0.707  0.4099  0.5463 -0.3951
 6309TIP3    H140486   6.618   1.159   0.759  0.2448  1.2231  0.1278
 6309TIP3    H240487   6.657   1.302   0.732  0.3533  0.8840 -1.6231
 6310TIP3   OH240488   3.628   1.997   0.539  0.0153  0.5814  0.2155
 6310TIP3    H140489   3.652   2.086   0.565  0.3817  0.8047 -0.8489
 6310TIP3    H240490   3.560   2.009   0.472 -0.3033  0.0422  0.4339
 6311TIP3   OH240491   2.945   2.779   6.973 -0.1760 -0.1384  0.1527
 6311TIP3    H140492   2.915   2.857   6.926  0.7632  0.3615  0.3399
 6311TIP3    H240493   3.040   2.790   6.977  0.2124 -2.1920 -1.4210
 6312TIP3   OH240494   1.487   6.757   0.456  0.2734 -0.5377  0.5332
 6312TIP3    H140495   1.480   6.764   0.361  0.4365 -0.0758  0.5514
 6312TIP3    H240496   1.423   6.821   0.489  1.1640  0.2825  0.7214
 6313TIP3   OH240497   4.295   4.553   0.507 -0.0190 -0.5599  0.6475
 6313TIP3    H140498   4.376   4.545   0.559 -0.3699 -0.2331  1.2575
 6313TIP3    H240499   4.281   4.647   0.500 -0.3488 -0.6183  0.5437
 6314TIP3   OH240500   6.218   4.596   0.878 -0.0807  0.4676  0.8035
 6314TIP3    H140501   6.310   4.582   0.853  0.2376  0.7523  1.7778
 6314TIP3    H240502   6.176   4.626   0.798  0.2135 -1.6053 -0.2145
 6315TIP3   OH240503   1.668   2.128   0.522 -0.1697  0.0062  0.7420
 6315TIP3    H140504   1.658   2.167   0.608  0.7544 -3.2946  2.5017
 6315TIP3    H240505   1.731   2.185   0.477  0.6508  0.8723  2.8901
 6316TIP3   OH240506   3.063   0.481   0.793 -0.6917  0.0122 -0.4665
 6316TIP3    H140507   3.135   0.430   0.830 -2.3171 -0.5178  2.2195
 6316TIP3    H240508   3.068   0.566   0.837 -0.9906  0.4084 -1.1794
 6317TIP3   OH240509   5.668   0.544   0.965  0.0232  0.1727  0.6169
 6317TIP3    H140510   5.586   0.558   1.012  0.0509 -0.2122  0.7800
 6317TIP3    H240511   5.732   0.597   1.013 -0.1655  0.6369  0.3686
 6318TIP3   OH240512   6.110   4.563   7.761  0.4879  0.7190 -0.2520
 6318TIP3    H140513   6.103   4.503   7.835  0.1122  0.7639 -0.2495
 6318TIP3    H240514   6.173   4.520   7.702  3.0104  2.0128  1.3411
 6319TIP3   OH240515   3.271   5.976   0.461 -0.1575  0.1094 -0.1653
 6319TIP3    H140516   3.226   5.894   0.482  0.2157  0.0194  0.2868
 6319TIP3    H240517   3.311   5.959   0.375 -0.1407 -0.1554 -0.1071
 6320TIP3   OH240518   6.269   4.357   1.674  0.1953  0.1370 -0.1413
 6320TIP3    H140519   6.198   4.417   1.696 -0.5319 -0.9704  0.6503
 6320TIP3    H240520   6.276   4.362   1.579 -0.2711  0.9879 -0.1434
 6321TIP3   OH240521   0.122   2.450   0.097 -0.0203 -0.3803  0.1443
 6321TIP3    H140522   0.064   2.416   0.029 -1.2992  0.6587  0.6760
 6321TIP3    H240523   0.204   2.401   0.086 -0.6551 -1.1653 -1.2675
 6322TIP3   OH240524   3.638   6.237   8.101 -0.0054 -0.1364  0.4236
 6322TIP3    H140525   3.702   6.221   8.032  1.7906  1.2782  1.6475
 6322TIP3    H240526   3.651   6.164   8.163 -0.3819 -0.4512  0.1377
 6323TIP3   OH240527   3.891   0.788   0.571 -0.2003  0.8213  0.1191
 6323TIP3    H140528   3.960   0.799   0.506 -0.3524 -0.9485 -0.3834
 6323TIP3    H240529   3.924   0.719   0.629 -0.7639  1.2616  0.9917
 6324TIP3   OH240530   4.372   1.292   1.683 -0.0813  0.3444 -0.5280
 6324TIP3    H140531   4.339   1.332   1.763  2.5918  0.0139  0.8529
 6324TIP3    H240532   4.351   1.199   1.692  0.2832  0.2948 -0.1484
 6325TIP3   OH240533   5.562   5.272   0.327 -0.2309 -0.1592 -0.4660
 6325TIP3    H140534   5.581   5.333   0.399  1.2194  3.3351 -3.5194
 6325TIP3    H240535   5.490   5.313   0.279 -0.7584 -2.0913 -1.4230
 6326TIP3   OH240536   5.230   2.835   1.805  0.0994 -0.2695  0.2991
 6326TIP3    H140537   5.263   2.884   1.880 -1.4992 -1.2292  1.7251
 6326TIP3    H240538   5.160   2.890   1.769  1.1769  0.4062 -0.8359
 6327TIP3   OH240539   2.853   6.651   2.091 -0.0628  0.3936  0.2147
 6327TIP3    H140540   2.889   6.591   2.155  0.9837  0.7141 -0.0544
 6327TIP3    H240541   2.789   6.599   2.042 -0.7609  0.1120  1.4021
 6328TIP3   OH240542   6.713   4.910   6.684  0.0646  0.1216  0.3797
 6328TIP3    H140543   6.806   4.909   6.709 -0.0021 -0.2949  0.6102
 6328TIP3    H240544   6.666   4.913   6.767 -0.1397 -0.1692  0.2742
 6329TIP3   OH240545   3.726   1.344   6.903  0.4176  0.1244  0.0423
 6329TIP3    H140546   3.660   1.412   6.894 -0.3269 -0.5314  0.3968
 6329TIP3    H240547   3.690   1.284   6.969  0.7431 -0.9508 -0.7261
 6330TIP3   OH240548   1.297   6.801   6.718 -0.3638  0.1722 -0.2305
 6330TIP3    H140549   1.312   6.890   6.748 -0.2390 -0.6704  2.4983
 6330TIP3    H240550   1.384   6.760   6.717 -0.6944 -0.6300  1.2064
 6331TIP3   OH240551   5.301   3.729   0.372 -0.7114  0.1937 -0.0613
 6331TIP3    H140552   5.359   3.718   0.447  0.3241  1.0567 -0.6996
 6331TIP3    H240553   5.237   3.794   0.400 -1.0702 -0.3769  0.4718
 6332TIP3   OH240554   6.213   2.894   8.289  0.2482  0.0451 -0.2640
 6332TIP3    H140555   6.121   2.912   8.266  0.4069 -1.3755 -2.2002
 6332TIP3    H240556   6.226   2.942   8.371 -1.7299  1.6688 -0.8002
 6333TIP3   OH240557   3.798   3.097   1.540  0.1856  0.0830  0.2908
 6333TIP3    H140558   3.850   3.039   1.484  3.0953  2.1444  0.6827
 6333TIP3    H240559   3.773   3.170   1.484 -0.3022  0.2681  0.7313
 6334TIP3   OH240560   6.613   5.950   0.441  0.2434  0.2333  0.0144
 6334TIP3    H140561   6.603   5.976   0.350 -2.7002 -0.2332  0.1142
 6334TIP3    H240562   6.554   6.008   0.490  0.3683 -0.7232  1.3665
 6335TIP3   OH240563   3.426   4.225   0.708 -0.4331 -0.4164  0.1869
 6335TIP3    H140564   3.457   4.135   0.693 -0.0824 -0.2979  0.1878
 6335TIP3    H240565   3.364   4.217   0.780 -1.2556 -0.8258 -0.5454
 6336TIP3   OH240566   2.229   3.275   7.250 -0.9804  0.0399 -0.7562
 6336TIP3    H140567   2.250   3.188   7.217  0.8096 -1.0379  2.6838
 6336TIP3    H240568   2.280   3.335   7.195  0.9101 -1.4854 -0.7716
 6337TIP3   OH240569   3.829   1.504   0.730 -0.4508 -0.3251 -0.0010
 6337TIP3    H140570   3.772   1.460   0.666 -2.4349  1.2227  0.5730
 6337TIP3    H240571   3.916   1.471   0.711 -1.3766 -2.0650 -1.6304
 6338TIP3   OH240572   5.869   3.635   7.991  0.6466  0.7205  0.1892
 6338TIP3    H140573   5.888   3.680   8.073  3.1275 -0.6070  0.4274
 6338TIP3    H240574   5.823   3.555   8.017  0.7593  0.6666  0.2233
 6339TIP3   OH240575   6.333   5.982   0.217 -0.6412 -0.1050  0.2470
 6339TIP3    H140576   6.381   5.899   0.214 -1.8327 -0.7852 -0.7755
 6339TIP3    H240577   6.318   5.998   0.311  1.3372  0.0225  0.5773
 6340TIP3   OH240578   4.799   4.995   6.832  0.0646 -0.9550  0.0368
 6340TIP3    H140579   4.736   4.982   6.761  1.1849 -1.8775 -0.8073
 6340TIP3    H240580   4.744   5.016   6.908 -1.1310  0.6851 -1.1966
 6341TIP3   OH240581   2.303   2.889   0.337  0.0628  0.4444  0.2138
 6341TIP3    H140582   2.262   2.967   0.297  1.1050  0.7590 -0.2797
 6341TIP3    H240583   2.382   2.923   0.379 -0.2679 -0.1270  1.3327
 6342TIP3   OH240584   6.944   0.966   1.934  0.2739 -0.4642  0.6308
 6342TIP3    H140585   7.035   0.969   1.964  0.3733 -1.1502  0.4121
 6342TIP3    H240586   6.911   0.881   1.965  0.4627 -1.3388 -1.3953
 6343TIP3   OH240587   3.505   4.054   7.957 -0.0670 -0.2094 -0.9856
 6343TIP3    H140588   3.518   4.031   7.866 -1.5357 -1.9458 -0.8023
 6343TIP3    H240589   3.431   4.000   7.986 -0.9002  1.6749  0.7049
 6344TIP3   OH240590   6.240   1.401   1.325  0.0538  0.1368  0.0650
 6344TIP3    H140591   6.206   1.474   1.377 -0.8402 -0.9913  1.1247
 6344TIP3    H240592   6.167   1.376   1.268  0.2023 -0.2037  0.0199
 6345TIP3   OH240593   1.638   5.445   7.863 -0.2536 -0.2099 -0.0335
 6345TIP3    H140594   1.716   5.407   7.822 -0.3559 -0.1247 -0.3123
 6345TIP3    H240595   1.566   5.415   7.808 -0.3574  0.2070 -0.1252
 6346TIP3   OH240596   5.108   0.528   8.147 -0.4622 -0.4817 -0.1506
 6346TIP3    H140597   5.076   0.438   8.135 -2.8569  0.0519  1.4646
 6346TIP3    H240598   5.202   0.523   8.129 -0.6299 -3.1645 -0.7060
 6347TIP3   OH240599   0.306   0.416   0.425 -0.2959 -0.6095  0.2907
 6347TIP3    H140600   0.343   0.483   0.482 -1.1406  0.3473 -0.2434
 6347TIP3    H240601   0.324   0.448   0.336 -0.5801 -1.1636  0.0301
 6348TIP3   OH240602   1.454   3.039   1.439 -0.1435 -0.4018  0.3075
 6348TIP3    H140603   1.372   3.065   1.480  0.8900  0.3351  2.0288
 6348TIP3    H240604   1.495   2.981   1.504  0.8693 -0.4373 -0.3468
 6349TIP3   OH240605   3.481   0.448   2.069  0.5242 -0.2086  0.0911
 6349TIP3    H140606   3.414   0.510   2.041  0.9018  0.0410 -0.2855
 6349TIP3    H240607   3.533   0.433   1.990 -0.0071 -1.5865 -0.0133
 6350TIP3   OH240608   4.664   4.026   6.712  0.0694  0.0670  0.1001
 6350TIP3    H140609   4.728   3.956   6.696 -1.7354 -2.2548  2.1638
 6350TIP3    H240610   4.717   4.101   6.740  2.0320 -0.7268 -1.2312
 6351TIP3   OH240611   6.465   4.880   1.298  0.5378  0.3298 -0.0798
 6351TIP3    H140612   6.477   4.974   1.290 -2.3183  1.0055  1.8772
 6351TIP3    H240613   6.370   4.868   1.295  0.8266 -2.7322 -1.8948
 6352TIP3   OH240614   2.504   6.093   0.062  0.6531 -0.3763  0.1355
 6352TIP3    H140615   2.494   6.175   0.014  2.7229 -0.1331  0.0453
 6352TIP3    H240616   2.435   6.096   0.129  0.1181  0.9945 -0.4482
 6353TIP3   OH240617   1.502   5.309   1.101  0.1983  0.3461 -0.0248
 6353TIP3    H140618   1.538   5.398   1.096  1.7758 -0.2646 -0.1485
 6353TIP3    H240619   1.447   5.310   1.179  0.5812  1.3015  0.2556
 6354TIP3   OH240620   6.597   1.425   6.875  0.2658 -0.0326 -0.3720
 6354TIP3    H140621   6.611   1.493   6.809  3.0770 -0.7699 -0.6311
 6354TIP3    H240622   6.625   1.465   6.957 -2.2740  0.5339  0.3096
 6355TIP3   OH240623   3.755   6.392   7.265 -0.6757  0.3215  0.2058
 6355TIP3    H140624   3.738   6.395   7.171 -0.5079  0.0467  0.1640
 6355TIP3    H240625   3.697   6.324   7.298  0.5534 -0.8848  0.0051
 6356TIP3   OH240626   4.360   2.364   7.355  0.0215  0.2775  0.1804
 6356TIP3    H140627   4.425   2.390   7.290  0.5387 -0.5442  0.3428
 6356TIP3    H240628   4.327   2.446   7.391  0.7285  0.7200 -0.1538
 6357TIP3   OH240629   0.077   5.612   7.376 -0.0109  0.3430 -0.2891
 6357TIP3    H140630   0.122   5.677   7.431 -0.0728 -0.7399  1.0847
 6357TIP3    H240631   0.043   5.548   7.437 -1.6569  0.0220 -1.4744
 6358TIP3   OH240632   6.677   6.429   8.062 -0.1221  0.0134 -0.1551
 6358TIP3    H140633   6.701   6.453   8.151  1.4483 -2.9086  0.3364
 6358TIP3    H240634   6.747   6.464   8.007  0.0642 -0.0537  0.0403
 6359TIP3   OH240635   3.487   3.870   7.143 -0.2337 -0.5973  0.3008
 6359TIP3    H140636   3.514   3.781   7.119 -1.2992 -0.4009 -1.8732
 6359TIP3    H240637   3.409   3.857   7.197  2.1282 -1.0471  3.9064
 6360TIP3   OH240638   1.838   0.261   8.162  0.0203  0.3508  0.1782
 6360TIP3    H140639   1.895   0.335   8.141 -0.8671  0.6897 -1.1566
 6360TIP3    H240640   1.783   0.251   8.084  0.1640 -1.7566  0.3029
 6361TIP3   OH240641   1.425   0.215   1.115  0.6324 -0.0929 -0.1686
 6361TIP3    H140642   1.413   0.308   1.100 -0.1096 -0.3040 -0.9751
 6361TIP3    H240643   1.347   0.174   1.077  0.0237 -0.9020  1.8262
 6362TIP3   OH240644   0.448   0.381   7.933  0.3822 -0.0339 -0.0102
 6362TIP3    H140645   0.507   0.356   7.862  0.6809 -0.8671  0.5179
 6362TIP3    H240646   0.389   0.307   7.943  0.5005 -0.0296  0.7730
 6363TIP3   OH240647   1.316   4.550   8.317  0.0623 -0.8484 -0.2515
 6363TIP3    H140648   1.301   4.462   8.350 -0.0543  0.6684  4.4357
 6363TIP3    H240649   1.229   4.586   8.301  0.0300 -0.9240 -0.2438
 6364TIP3   OH240650   6.492   4.687   0.364 -0.6821 -0.1055 -0.2716
 6364TIP3    H140651   6.551   4.692   0.440 -0.3682  1.3965 -0.5855
 6364TIP3    H240652   6.500   4.597   0.334 -0.0230 -0.4516  0.8603
 6365TIP3   OH240653   2.340   3.212   7.761 -0.3102 -0.3233 -0.0473
 6365TIP3    H140654   2.408   3.171   7.706 -1.6870 -2.7687 -0.0968
 6365TIP3    H240655   2.290   3.266   7.700 -0.4224 -1.1846 -0.7406
 6366TIP3   OH240656   4.180   4.822   2.331 -0.8432 -0.1796  0.4270
 6366TIP3    H140657   4.107   4.782   2.379 -1.4341 -1.4100 -1.4083
 6366TIP3    H240658   4.145   4.841   2.244  0.1031  2.3406  0.5166
 6367TIP3   OH240659   0.412   1.716   6.808  0.5487 -0.0025 -0.1025
 6367TIP3    H140660   0.328   1.755   6.834 -0.4752 -0.6055 -2.3203
 6367TIP3    H240661   0.415   1.633   6.855  0.4617  0.5085  0.8474
 6368TIP3   OH240662   3.901   0.867   7.624 -0.0574 -0.2466 -0.2818
 6368TIP3    H140663   3.940   0.952   7.603  0.2338  0.3404  2.3149
 6368TIP3    H240664   3.970   0.819   7.668 -0.2105 -1.9255 -1.7395
 6369TIP3   OH240665   5.079   2.205   7.006  0.1870 -0.0173  0.2315
 6369TIP3    H140666   5.153   2.245   6.961  1.1322 -1.1224  0.7406
 6369TIP3    H240667   5.028   2.279   7.038  0.6202  0.7679 -0.8484
 6370TIP3   OH240668   6.647   1.435   1.481  0.6614 -0.1456 -0.3078
 6370TIP3    H140669   6.715   1.437   1.549 -1.2064 -0.2149  1.6823
 6370TIP3    H240670   6.570   1.474   1.523 -1.2472 -2.2541 -1.6179
 6371TIP3   OH240671   3.470   0.024   0.811 -0.2236 -0.0361  0.2765
 6371TIP3    H140672   3.531   0.091   0.840  1.2412 -1.3429  0.3515
 6371TIP3    H240673   3.422  -0.002   0.890 -0.9573  1.0436  0.2030
 6372TIP3   OH240674   1.550   4.418   0.818  0.8273  0.1944  0.0094
 6372TIP3    H140675   1.503   4.348   0.774 -0.7600  0.2731  1.4956
 6372TIP3    H240676   1.502   4.497   0.795  0.9417  0.4380  0.6015
 6373TIP3   OH240677   5.249   0.302   0.443  0.0423 -0.1591 -0.1646
 6373TIP3    H140678   5.336   0.339   0.457 -0.6536  1.0861  1.0916
 6373TIP3    H240679   5.248   0.222   0.494  0.8807 -0.9150 -1.2780
 6374TIP3   OH240680   6.669   4.297   0.981 -0.6930  0.1529 -0.1203
 6374TIP3    H140681   6.728   4.249   0.922 -0.9724 -0.1753 -0.1369
 6374TIP3    H240682   6.721   4.371   1.012 -1.0434  1.2499 -2.0178
 6375TIP3   OH240683   2.281   4.304   6.397 -0.4464  0.1396 -0.1962
 6375TIP3    H140684   2.366   4.266   6.377 -0.6238 -0.0138 -0.6690
 6375TIP3    H240685   2.265   4.366   6.326 -0.3501  0.7935  0.3441
 6376TIP3   OH240686   0.857   3.188   7.344  0.5348 -0.1704  0.3266
 6376TIP3    H140687   0.837   3.221   7.256 -0.0782  0.8524  0.8342
 6376TIP3    H240688   0.772   3.170   7.383  0.8317 -1.4470  0.4200
 6377TIP3   OH240689   0.533   2.174   1.007 -0.1801  0.4705  0.2717
 6377TIP3    H140690   0.592   2.249   1.019  0.7794 -0.1316 -0.4812
 6377TIP3    H240691   0.549   2.118   1.083 -0.6847  0.8706  0.6850
 6378TIP3   OH240692   1.442   4.465   1.601 -0.0413  0.7429  0.4098
 6378TIP3    H140693   1.392   4.386   1.583 -0.1384  0.4077  2.0146
 6378TIP3    H240694   1.421   4.524   1.529 -3.7984  1.1359  1.6215
 6379TIP3   OH240695   3.525   5.923   1.656  0.2261 -0.0187 -0.1197
 6379TIP3    H140696   3.590   5.923   1.726 -0.0470 -0.2209  0.1344
 6379TIP3    H240697   3.467   5.850   1.676 -0.7789  0.8651  0.3165
 6380TIP3   OH240698   4.941   0.797   6.713  0.2279  0.1992  0.5577
 6380TIP3    H140699   4.944   0.725   6.649  1.6548  1.3963 -0.8161
 6380TIP3    H240700   5.033   0.815   6.732 -0.1470  1.0885  1.5550
 6381TIP3   OH240701   2.132   6.702   1.676 -0.2440  0.2207 -0.3615
 6381TIP3    H140702   2.151   6.694   1.769 -1.7402  1.7195  0.1327
 6381TIP3    H240703   2.165   6.621   1.638  1.4068  0.0578  1.2795
 6382TIP3   OH240704   3.898   3.761   6.953 -0.3010 -0.2086 -0.3307
 6382TIP3    H140705   3.933   3.843   6.917  1.2934 -1.2455 -1.2546
 6382TIP3    H240706   3.854   3.788   7.034  0.1184  1.5681 -0.6434
 6383TIP3   OH240707   1.583   6.028   8.327  0.1336 -0.0382 -0.1404
 6383TIP3    H140708   1.514   6.081   8.366 -1.2950 -1.6428 -0.3621
 6383TIP3    H240709   1.654   6.028   8.392 -1.4104 -1.0714  1.6268
 6384TIP3   OH240710   3.996   0.700   0.848  0.7740 -0.7795 -0.1513
 6384TIP3    H140711   3.962   0.784   0.879 -0.5740 -1.1480 -0.5370
 6384TIP3    H240712   4.088   0.716   0.829  0.2187  1.0259 -1.6040
 6385TIP3   OH240713   4.294   4.236   8.287 -0.1212  0.3040  0.2595
 6385TIP3    H140714   4.353   4.295   8.239  0.3580 -0.3618  0.0195
 6385TIP3    H240715   4.324   4.148   8.264 -1.9570 -0.0836 -0.8084
 6386TIP3   OH240716   5.420   1.747   1.003  0.1946  0.0940 -0.0186
 6386TIP3    H140717   5.500   1.795   0.980  0.3171 -0.1532 -0.1105
 6386TIP3    H240718   5.350   1.797   0.963  0.4593 -0.7221 -1.5720
 6387TIP3   OH240719   2.168   4.869   0.907  0.1464  0.5407 -0.5773
 6387TIP3    H140720   2.090   4.918   0.882  0.5517  0.9357 -1.0787
 6387TIP3    H240721   2.240   4.929   0.890  0.7738 -0.6444 -2.4359
 6388TIP3   OH240722   6.563   1.162   6.806 -0.1072  0.4054 -0.0142
 6388TIP3    H140723   6.643   1.152   6.754  0.9444  0.4566  1.5214
 6388TIP3    H240724   6.579   1.240   6.858 -0.3541 -0.6168  1.6559
 6389TIP3   OH240725   2.872   4.061   7.300  0.7313  0.7031 -0.5799
 6389TIP3    H140726   2.844   3.978   7.338 -0.5787  0.8757 -1.1006
 6389TIP3    H240727   2.962   4.073   7.331  0.8290 -0.7444 -0.2462
 6390TIP3   OH240728   2.109   4.773   6.357 -0.0136  0.3391 -0.6193
 6390TIP3    H140729   2.178   4.784   6.291  0.9131  0.5793  0.3714
 6390TIP3    H240730   2.147   4.716   6.422 -0.2052  1.6379  0.6831
 6391TIP3   OH240731   6.938   5.063   0.354 -0.5088 -0.4037 -0.0280
 6391TIP3    H140732   6.907   5.138   0.303 -1.3421  0.2711  1.4032
 6391TIP3    H240733   6.883   4.991   0.325 -2.6594  0.5004  1.5537
 6392TIP3   OH240734   4.657   2.247   8.004 -0.4683  0.6030 -0.2566
 6392TIP3    H140735   4.611   2.172   8.043  0.0776 -0.5730 -1.7705
 6392TIP3    H240736   4.597   2.277   7.936 -0.1463  0.7625 -0.4653
 6393TIP3   OH240737   2.344   2.223   0.438  0.2508  0.0328 -0.1196
 6393TIP3    H140738   2.372   2.132   0.453 -0.0607 -0.1771 -0.7928
 6393TIP3    H240739   2.252   2.216   0.413  0.6932  0.3591 -1.9902
 6394TIP3   OH240740   0.167   6.185   0.773 -0.2112 -0.2696  0.6363
 6394TIP3    H140741   0.215   6.136   0.839 -1.0216 -2.1007 -0.0745
 6394TIP3    H240742   0.104   6.123   0.737 -1.2275  1.2768 -0.3891
 6395TIP3   OH240743   2.576   4.819   7.450  0.2169  0.3830 -0.2721
 6395TIP3    H140744   2.635   4.755   7.410 -0.4208 -0.5213  0.1720
 6395TIP3    H240745   2.633   4.886   7.486  0.8391  1.0402 -2.3154
 6396TIP3   OH240746   3.098   4.940   0.466  0.3375  0.4390 -0.1328
 6396TIP3    H140747   3.103   4.844   0.473 -1.6355  0.3139 -0.0231
 6396TIP3    H240748   3.050   4.956   0.385  0.8547  1.3581 -0.2721
 6397TIP3   OH240749   4.213   1.305   1.166 -0.4023 -0.0262 -0.5057
 6397TIP3    H140750   4.156   1.379   1.185 -1.1757 -0.6377 -0.4070
 6397TIP3    H240751   4.167   1.229   1.202  0.5684 -0.5071 -0.2485
 6398TIP3   OH240752   2.067   5.686   0.584 -0.6007  0.9368 -0.7103
 6398TIP3    H140753   2.079   5.610   0.527 -2.6121  0.1991 -0.2374
 6398TIP3    H240754   2.015   5.747   0.532 -1.6631  0.6421 -0.0359
 6399TIP3   OH240755   1.168   2.992   0.311  0.6455 -0.1860 -0.2194
 6399TIP3    H140756   1.231   3.015   0.380  1.8790  1.0040 -1.6807
 6399TIP3    H240757   1.193   2.903   0.285  0.9247 -0.1903  0.0516
 6400TIP3   OH240758   4.526   4.233   7.663  0.0241 -0.2265 -0.5884
 6400TIP3    H140759   4.557   4.321   7.641  0.5065 -0.3419 -0.3837
 6400TIP3    H240760   4.440   4.247   7.704  0.5854  0.2376  0.4470
 6401TIP3   OH240761   1.401   6.059   6.949  0.0966  0.1804 -0.9737
 6401TIP3    H140762   1.440   6.070   7.036 -0.1879  0.6725 -0.9066
 6401TIP3    H240763   1.382   6.148   6.920 -3.4714 -0.0866  0.1382
 6402TIP3   OH240764   2.430   4.541   8.358  0.3298  0.4936  0.5218
 6402TIP3    H140765   2.348   4.533   8.311  0.0838  0.8062  0.8907
 6402TIP3    H240766   2.498   4.529   8.292  0.0314 -2.3246  0.5889
 6403TIP3   OH240767   0.528   3.333   8.105  0.4025  0.4198  0.1901
 6403TIP3    H140768   0.581   3.407   8.076 -1.3885  0.3662 -3.7897
 6403TIP3    H240769   0.439   3.368   8.111 -0.2994 -1.1367 -0.6761
 6404TIP3   OH240770   3.520   1.720   7.710 -0.0583  0.0203 -0.0444
 6404TIP3    H140771   3.525   1.741   7.803 -0.5020 -0.1479  0.0217
 6404TIP3    H240772   3.507   1.625   7.707  0.0697  0.0085 -0.2824
 6405TIP3   OH240773   3.415   2.749   6.568  0.3240  0.2811  0.2282
 6405TIP3    H140774   3.391   2.819   6.508  0.7746 -0.1906 -0.5247
 6405TIP3    H240775   3.477   2.695   6.518  1.0283  0.1022  1.2600
 6406TIP3   OH240776   5.082   2.664   6.956 -0.0972 -0.2135 -0.4181
 6406TIP3    H140777   5.034   2.657   7.039 -0.5078 -0.8423 -0.6988
 6406TIP3    H240778   5.035   2.606   6.897  1.2833 -1.2122 -0.5777
 6407TIP3   OH240779   0.487   1.551   2.334 -0.0931 -0.0920 -0.2336
 6407TIP3    H140780   0.492   1.609   2.259  1.5770 -0.9253 -0.8261
 6407TIP3    H240781   0.563   1.493   2.325 -1.5089 -2.1983  0.4747
 6408TIP3   OH240782   0.328   5.485   6.318 -0.6572 -0.1549 -0.8407
 6408TIP3    H140783   0.415   5.458   6.287 -0.6030  0.1573 -0.9597
 6408TIP3    H240784   0.287   5.526   6.242  1.0225  4.4770  0.4288
 6409TIP3   OH240785   5.062   3.800   1.157  0.0857  0.1596  0.0949
 6409TIP3    H140786   5.098   3.874   1.108  0.4310 -0.1655 -0.1600
 6409TIP3    H240787   4.970   3.822   1.171  0.7124  1.7018  2.0942
 6410TIP3   OH240788   1.636   4.679   7.138 -0.6913  0.1703  0.2216
 6410TIP3    H140789   1.706   4.656   7.199  0.3122  0.3792 -0.8191
 6410TIP3    H240790   1.603   4.594   7.107 -1.4404  0.0562  1.2882
 6411TIP3   OH240791   5.978   0.880   0.942 -0.2971 -0.2980  0.0443
 6411TIP3    H140792   5.997   0.807   0.882  0.8736  0.0746 -0.0690
 6411TIP3    H240793   6.051   0.880   1.004  0.0112  1.0963 -0.2783
 6412TIP3   OH240794   2.665   3.174   2.270  0.4224  0.0044  0.2522
 6412TIP3    H140795   2.735   3.213   2.323  0.5446  1.7203 -1.0844
 6412TIP3    H240796   2.711   3.129   2.199  0.2032  0.5450 -0.2401
 6413TIP3   OH240797   1.131   1.406   8.054 -0.2554  0.1598 -0.0326
 6413TIP3    H140798   1.119   1.344   7.982 -1.0520  0.0532  0.1801
 6413TIP3    H240799   1.167   1.485   8.012 -0.2317 -0.0770 -0.4660
 6414TIP3   OH240800   0.600   6.735   6.570  0.3230 -0.1416  0.5103
 6414TIP3    H140801   0.546   6.713   6.646 -2.3084  1.9632 -0.5691
 6414TIP3    H240802   0.668   6.793   6.605 -0.7584  0.6800  1.3188
 6415TIP3   OH240803   3.051   6.854   7.279 -0.1815 -0.2244 -0.4716
 6415TIP3    H140804   3.074   6.933   7.231  1.4632 -1.1761 -1.3440
 6415TIP3    H240805   2.988   6.809   7.222  0.6758 -0.6529 -1.1083
 6416TIP3   OH240806   5.046   3.793   7.217  0.0908 -0.0861  0.1468
 6416TIP3    H140807   5.101   3.853   7.166  2.9952  0.0594  3.0842
 6416TIP3    H240808   5.101   3.716   7.230 -1.3047 -0.9292  1.3670
 6417TIP3   OH240809   4.208   1.661   0.154  0.2307 -0.3867 -0.5094
 6417TIP3    H140810   4.230   1.737   0.208 -0.3317  0.9009 -2.0195
 6417TIP3    H240811   4.162   1.602   0.213  0.4299  0.5576  0.6325
 6418TIP3   OH240812   1.718   0.112   0.681 -0.3210 -0.7180 -0.6584
 6418TIP3    H140813   1.795   0.133   0.734 -0.5821 -2.2754  0.3952
 6418TIP3    H240814   1.731   0.021   0.655 -2.2262 -1.3220  0.3348
 6419TIP3   OH240815   2.037   5.277   7.488 -0.0205 -0.5322 -0.1085
 6419TIP3    H140816   2.087   5.244   7.563  0.0524 -0.7657 -0.2580
 6419TIP3    H240817   2.102   5.289   7.419 -0.1930 -0.9868 -0.3510
 6420TIP3   OH240818   5.117   4.862   1.701  0.2827  0.1949  0.0220
 6420TIP3    H140819   5.169   4.923   1.650 -0.5183  2.3546  1.6059
 6420TIP3    H240820   5.035   4.853   1.652  1.5625 -2.2096 -1.8242
 6421TIP3   OH240821   4.418   1.541   0.338 -0.4678  1.0659 -0.1293
 6421TIP3    H140822   4.451   1.540   0.428  0.8836  0.6329 -0.6042
 6421TIP3    H240823   4.410   1.634   0.316  1.6737  1.2366 -0.3980
 6422TIP3   OH240824   0.004   1.053   8.158 -0.1090 -0.0479  0.4644
 6422TIP3    H140825   0.071   1.117   8.135  0.6549 -1.1385 -0.4703
 6422TIP3    H240826  -0.045   1.094   8.229  1.7437  0.6583  1.3959
 6423TIP3   OH240827   4.416   0.575   7.502 -0.1062  0.1880 -0.3123
 6423TIP3    H140828   4.333   0.551   7.543  0.6067 -0.5945  0.7046
 6423TIP3    H240829   4.399   0.661   7.463 -1.2268  0.2895  0.3526
 6424TIP3   OH240830   1.491   3.008   2.356 -0.1330  0.4039  0.5619
 6424TIP3    H140831   1.574   2.986   2.313 -1.1289 -1.7128 -0.3868
 6424TIP3    H240832   1.430   2.941   2.327 -1.3241 -0.1782  3.9726
 6425TIP3   OH240833   4.251   5.106   0.463 -0.4138 -0.3105  0.3128
 6425TIP3    H140834   4.222   5.091   0.553  0.3549 -3.2611  0.1661
 6425TIP3    H240835   4.344   5.127   0.471 -0.8508  1.9064  0.2918
 6426TIP3   OH240836   6.897   0.769   1.678 -0.0191 -0.1990 -0.6874
 6426TIP3    H140837   6.972   0.745   1.732  0.0230 -0.3864 -0.8275
 6426TIP3    H240838   6.866   0.686   1.640 -0.4754 -0.1615 -0.4056
 6427TIP3   OH240839   1.212   2.916   6.023 -0.1865  0.2230 -0.2513
 6427TIP3    H140840   1.231   2.980   6.092 -1.2325  1.9273 -1.4601
 6427TIP3    H240841   1.133   2.950   5.981  0.7654 -0.3932 -2.6887
 6428TIP3   OH240842   5.400   0.488   8.039  0.2279  0.4426 -0.6766
 6428TIP3    H140843   5.437   0.439   7.966 -0.2109 -0.9146 -0.0223
 6428TIP3    H240844   5.438   0.576   8.031  0.7570  0.1144 -2.0879
 6429TIP3   OH240845   2.381   4.907   0.086 -0.0927 -0.1838  0.2207
 6429TIP3    H140846   2.450   4.932   0.025  0.8858  2.8240  2.3331
 6429TIP3    H240847   2.302   4.948   0.052  0.4055  1.3125  0.8210
 6430TIP3   OH240848   5.973   2.730   8.059 -0.8521  0.0543  0.1867
 6430TIP3    H140849   5.915   2.801   8.031  0.8554  1.3216 -0.3361
 6430TIP3    H240850   5.946   2.655   8.007 -1.1216  0.9800 -1.0599
 6431TIP3   OH240851   6.430   2.043   6.293 -0.5451  0.2081  0.4309
 6431TIP3    H140852   6.400   1.960   6.258  2.2790 -0.7559 -0.0106
 6431TIP3    H240853   6.422   2.105   6.220 -1.5468  0.0580  0.4028
 6432TIP3   OH240854   6.202   4.582   1.885  0.9787 -0.5213 -0.2890
 6432TIP3    H140855   6.255   4.578   1.965 -0.1717  0.7923  0.5835
 6432TIP3    H240856   6.195   4.676   1.867  0.4149 -0.7647 -1.3919
 6433TIP3   OH240857   2.989   3.448   0.198  0.3291 -0.5418  0.0353
 6433TIP3    H140858   2.919   3.382   0.199  0.1006 -0.2957  0.2391
 6433TIP3    H240859   2.997   3.472   0.105  1.3104 -1.8040 -0.2356
 6434TIP3   OH240860   2.911   3.583   1.961  0.6416 -0.6056  0.4628
 6434TIP3    H140861   2.948   3.665   1.928  1.7464 -0.8201  1.1124
 6434TIP3    H240862   2.824   3.607   1.992  1.4690  0.6721  1.9725
 6435TIP3   OH240863   0.797   3.153   6.906 -0.4167 -0.2943 -0.6316
 6435TIP3    H140864   0.875   3.175   6.856 -0.5211  1.4334 -0.0957
 6435TIP3    H240865   0.750   3.091   6.851  0.9984 -0.8710 -1.2435
 6436TIP3   OH240866   0.788   1.456   7.863 -0.3274 -0.1404  0.1060
 6436TIP3    H140867   0.743   1.498   7.789 -0.1024  1.6148  0.8976
 6436TIP3    H240868   0.872   1.502   7.869  0.7177 -1.9454 -0.0414
 6437TIP3   OH240869   2.988   6.122   7.967  0.5493 -0.2723 -0.5011
 6437TIP3    H140870   3.017   6.120   8.059  1.0162 -1.7501 -0.6452
 6437TIP3    H240871   3.019   6.038   7.931 -2.8935 -1.4986 -0.9714
 6438TIP3   OH240872   3.679   3.475   1.085  0.3523 -0.0089 -0.1701
 6438TIP3    H140873   3.617   3.403   1.078 -0.9613  1.1219 -0.6226
 6438TIP3    H240874   3.693   3.487   1.179 -0.0680 -0.3133 -0.0715
 6439TIP3   OH240875   0.271   3.425   7.919 -0.2825  0.1107  0.5161
 6439TIP3    H140876   0.249   3.443   8.011  1.6337  0.1474  1.0068
 6439TIP3    H240877   0.302   3.509   7.885 -0.2641 -0.0840  0.0406
 6440TIP3   OH240878   1.581   3.168   2.574 -0.2344 -0.4251  0.1538
 6440TIP3    H140879   1.536   3.101   2.523 -0.6181 -0.9184  1.1082
 6440TIP3    H240880   1.528   3.247   2.562  0.4482 -0.1561 -1.3095
 6441TIP3   OH240881   0.539   2.783   7.744 -0.4487  0.7978 -0.6279
 6441TIP3    H140882   0.563   2.698   7.708 -0.5793  1.5387 -2.5551
 6441TIP3    H240883   0.465   2.812   7.690 -0.5224  2.0596  0.1119
 6442TIP3   OH240884   1.534   4.476   0.162 -0.1267 -0.1414  0.0940
 6442TIP3    H140885   1.483   4.557   0.167 -0.2229 -0.2250  0.5035
 6442TIP3    H240886   1.618   4.498   0.202  0.0414 -0.0961 -0.2814
 6443TIP3   OH240887   6.330   4.932   0.349 -0.5296  0.4527 -0.6136
 6443TIP3    H140888   6.400   4.868   0.365 -0.6920  0.0326 -1.4795
 6443TIP3    H240889   6.336   4.950   0.255 -2.2401 -0.3861 -0.9187
 6444TIP3   OH240890   5.089   4.390   6.666 -0.4890 -0.1456 -0.0450
 6444TIP3    H140891   5.022   4.455   6.685 -0.9782 -0.1165 -1.6901
 6444TIP3    H240892   5.044   4.322   6.616  0.4286 -0.7928 -0.0302
 6445TIP3   OH240893   2.965   0.157   0.121  0.6186 -0.3915  0.4569
 6445TIP3    H140894   2.967   0.147   0.026 -2.7370 -0.6356  0.2979
 6445TIP3    H240895   3.050   0.195   0.143  0.6625  1.8431 -2.8776
 6446TIP3   OH240896   4.515   2.165   0.555 -0.2487  0.3783  0.5581
 6446TIP3    H140897   4.549   2.113   0.483 -1.8907 -2.3589  1.6116
 6446TIP3    H240898   4.464   2.234   0.512 -1.0744 -1.0903 -0.9502
 6447TIP3   OH240899   0.102   6.412   1.381 -0.4027 -0.5127  0.3751
 6447TIP3    H140900   0.069   6.466   1.453 -1.2658 -1.5004  0.7508
 6447TIP3    H240901   0.073   6.456   1.302  0.2351  0.3858  0.6310
 6448TIP3   OH240902   3.227   6.809   5.776  0.1318 -0.1865  0.0676
 6448TIP3    H140903   3.254   6.875   5.839  0.5401  0.4162 -0.7260
 6448TIP3    H240904   3.262   6.727   5.810  0.0106  0.0730  0.8220
 6449TIP3   OH240905   5.192   1.102   7.030  0.3739 -0.5275  0.2251
 6449TIP3    H140906   5.225   1.061   7.110  1.1635 -2.4659 -1.0432
 6449TIP3    H240907   5.136   1.036   6.990 -0.6088  0.6924 -0.4754
 6450TIP3   OH240908   6.435   6.448   0.906  0.4602 -0.0999 -0.1418
 6450TIP3    H140909   6.439   6.535   0.946  0.4636  0.6906 -1.7602
 6450TIP3    H240910   6.462   6.388   0.975  0.0052  1.1371  1.1528
 6451TIP3   OH240911   3.089   3.699   7.110 -0.2372 -0.3772  0.8615
 6451TIP3    H140912   3.026   3.661   7.171 -1.6566  0.9041  0.2733
 6451TIP3    H240913   3.152   3.744   7.166 -1.2503  0.3889  1.4324
 6452TIP3   OH240914   2.637   6.670   1.233  0.3363  0.0001  0.3643
 6452TIP3    H140915   2.711   6.610   1.220 -0.0355 -1.1153  2.8005
 6452TIP3    H240916   2.559   6.617   1.215  0.0411  0.8958 -1.2122
 6453TIP3   OH240917   4.945   6.515   1.773  0.5343  0.2692  0.4776
 6453TIP3    H140918   5.014   6.547   1.715  0.7347 -1.8425 -0.5496
 6453TIP3    H240919   4.992   6.475   1.846  0.3565  0.0535  0.4733
 6454TIP3   OH240920   4.547   4.868   6.335 -0.1676 -0.3445 -0.1328
 6454TIP3    H140921   4.641   4.865   6.353 -0.2974  0.4622  0.7449
 6454TIP3    H240922   4.533   4.796   6.274  0.8929 -0.9558  0.3044
 6455TIP3   OH240923   4.043   0.941   7.241  0.5339  0.1489 -0.0569
 6455TIP3    H140924   4.104   1.003   7.281  1.0372  0.1994 -0.8946
 6455TIP3    H240925   4.088   0.856   7.246  0.0000 -0.1040  0.7520
 6456TIP3   OH240926   4.593   3.478   1.459 -0.9327 -0.0565 -0.1968
 6456TIP3    H140927   4.599   3.516   1.547 -0.4524  2.3404 -1.1803
 6456TIP3    H240928   4.679   3.438   1.444 -0.8290  0.0029  0.2282
 6457TIP3   OH240929   4.892   4.733   6.173 -0.1688  0.1793 -0.2231
 6457TIP3    H140930   4.936   4.748   6.089  0.9222  0.8031  0.4383
 6457TIP3    H240931   4.949   4.672   6.219 -0.1975  0.6835  0.4891
 6458TIP3   OH240932   3.011   5.882   0.946  0.6695  0.1331 -0.2911
 6458TIP3    H140933   3.010   5.939   1.023 -0.2820  0.7626 -0.7504
 6458TIP3    H240934   3.054   5.801   0.976  2.4908  1.2493  0.2364
 6459TIP3   OH240935   0.312   6.002   1.185  0.2039  0.3644  0.5275
 6459TIP3    H140936   0.373   6.074   1.169 -0.2835  0.9909  1.3844
 6459TIP3    H240937   0.225   6.040   1.172 -0.0330 -0.4451 -0.3865
 6460TIP3   OH240938   3.919   0.875   1.139  0.0373 -0.0200 -0.0474
 6460TIP3    H140939   3.926   0.927   1.059  1.8706  1.8390  1.2137
 6460TIP3    H240940   3.827   0.850   1.144 -0.3910  1.0121 -1.9954
 6461TIP3   OH240941   5.178   1.688   6.786  0.2095 -0.9969  0.0116
 6461TIP3    H140942   5.266   1.651   6.782  0.0761 -1.4723  1.0874
 6461TIP3    H240943   5.136   1.659   6.705  0.8152 -1.3451 -0.1853
 6462TIP3   OH240944   6.492   4.094   8.326  0.9620 -0.0257 -0.2501
 6462TIP3    H140945   6.514   4.186   8.340 -0.2700  0.6742 -2.4556
 6462TIP3    H240946   6.576   4.052   8.306  1.5130  0.6283  0.6207
 6463TIP3   OH240947   0.019   2.727   0.121  0.0862 -0.1389 -0.4172
 6463TIP3    H140948   0.052   2.637   0.118 -1.1619 -0.7346  1.4004
 6463TIP3    H240949  -0.073   2.717   0.146 -0.2987  1.6221 -1.0189
 6464TIP3   OH240950   3.401   3.244   6.664  0.3367 -0.5593  0.1977
 6464TIP3    H140951   3.335   3.313   6.652  0.8322 -0.2890 -1.0926
 6464TIP3    H240952   3.351   3.168   6.694 -0.4328 -0.0952  0.1229
 6465TIP3   OH240953   6.448   6.267   0.079 -0.5123 -0.7525  0.2874
 6465TIP3    H140954   6.482   6.329   0.015 -2.3376  0.5211  0.4663
 6465TIP3    H240955   6.418   6.322   0.151 -2.0161 -1.8546  0.5464
 6466TIP3   OH240956   2.090   2.735   6.441  0.0825  0.3391  0.4364
 6466TIP3    H140957   2.138   2.658   6.411  1.0678  0.6221  1.2221
 6466TIP3    H240958   2.066   2.782   6.361 -0.1751 -0.5661 -0.0270
 6467TIP3   OH240959   2.571   4.490   1.637  0.1741 -0.0972 -0.4099
 6467TIP3    H140960   2.488   4.499   1.684  1.0119 -1.1554  1.3646
 6467TIP3    H240961   2.634   4.465   1.704  1.3088 -2.3819 -2.1891
 6468TIP3   OH240962   1.311   5.335   1.303  0.0649 -0.5045 -0.5160
 6468TIP3    H140963   1.330   5.266   1.367  0.3483 -0.8956 -1.0076
 6468TIP3    H240964   1.242   5.297   1.248 -1.0123  0.2785  0.2579
 6469TIP3   OH240965   5.427   6.947   0.710 -0.6042 -0.8564 -0.4279
 6469TIP3    H140966   5.486   6.872   0.719  0.7044  0.2446  0.7245
 6469TIP3    H240967   5.477   7.021   0.746 -2.5237  0.2338  0.1412
 6470TIP3   OH240968   2.691   4.891   0.586 -0.2130 -0.6712  0.1691
 6470TIP3    H140969   2.713   4.808   0.543  0.7546 -0.9074  1.0738
 6470TIP3    H240970   2.631   4.934   0.525 -1.0019 -2.1753 -0.1730
 6471TIP3   OH240971   5.180   4.837   7.198  0.0257  0.6531  0.1530
 6471TIP3    H140972   5.163   4.908   7.137  1.3778  0.0083 -1.0317
 6471TIP3    H240973   5.275   4.831   7.204 -0.0005 -1.6816 -0.5890
 6472TIP3   OH240974   6.167   6.383   7.643  0.0233 -0.1780 -0.1892
 6472TIP3    H140975   6.216   6.302   7.655 -1.4190 -1.1932 -0.8092
 6472TIP3    H240976   6.194   6.414   7.556  1.3196  0.5792  0.4535
 6473TIP3   OH240977   1.781   4.735   6.853  0.0890  0.1721  0.6281
 6473TIP3    H140978   1.713   4.730   6.920 -0.4293  0.3182  0.1120
 6473TIP3    H240979   1.735   4.757   6.772  0.6073 -0.7454  0.0575
 6474TIP3   OH240980   6.000   0.845   0.452  0.3422  0.0769  0.3230
 6474TIP3    H140981   5.975   0.859   0.544  1.3315 -1.0979  0.7956
 6474TIP3    H240982   6.094   0.864   0.449  0.4514 -0.5126 -0.3024
 6475TIP3   OH240983   0.235   6.769   5.912  0.1384  0.3578 -0.1332
 6475TIP3    H140984   0.281   6.691   5.942 -1.9596 -0.9492 -0.0879
 6475TIP3    H240985   0.164   6.781   5.975 -2.4478 -0.5838 -2.6215
 6476TIP3   OH240986   4.165   4.066   0.519  0.1488 -0.2598  0.7985
 6476TIP3    H140987   4.092   4.016   0.554 -0.2024 -0.8638 -0.6927
 6476TIP3    H240988   4.243   4.018   0.548 -0.0925 -0.3179  1.3537
 6477TIP3   OH240989   6.291   0.490   1.596  0.2970 -0.8968 -0.0578
 6477TIP3    H140990   6.245   0.425   1.649  0.3214 -1.1403 -0.3314
 6477TIP3    H240991   6.342   0.541   1.659 -0.8935 -0.1536  0.3456
 6478TIP3   OH240992   1.935   0.056   7.770  0.5868  0.6797  0.5723
 6478TIP3    H140993   1.932  -0.039   7.758  1.4334  0.8618 -1.3586
 6478TIP3    H240994   1.977   0.069   7.855 -0.2588 -0.6632  1.2236
 6479TIP3   OH240995   1.135   0.934   0.356  0.1998  0.1031  0.0806
 6479TIP3    H140996   1.087   0.878   0.416 -0.2839 -1.3330 -1.5512
 6479TIP3    H240997   1.068   0.989   0.315  0.2839 -0.1396 -0.3859
 6480TIP3   OH240998   5.854   6.261   6.732 -0.5605 -0.2735 -0.6917
 6480TIP3    H140999   5.779   6.319   6.741  0.7599  1.4954 -0.6179
 6480TIP3    H241000   5.911   6.283   6.805  0.7655 -0.4172 -1.6432
 6481TIP3   OH241001   4.032   0.610   1.227 -0.2032  0.4080 -0.0609
 6481TIP3    H141002   3.968   0.606   1.156  1.3465  0.9084 -1.5632
 6481TIP3    H241003   4.076   0.525   1.225 -0.1463  0.4270  0.2850
 6482TIP3   OH241004   6.859   6.539   6.798 -0.0630  0.3914 -0.9623
 6482TIP3    H141005   6.859   6.476   6.869 -1.6482  0.0047 -1.2727
 6482TIP3    H241006   6.950   6.568   6.792  0.4095 -0.7642  0.1453
 6483TIP3   OH241007   2.740   5.753   1.526  0.0987 -0.2216  0.0698
 6483TIP3    H141008   2.663   5.803   1.499  0.6357  0.1646 -0.8125
 6483TIP3    H241009   2.774   5.801   1.601  0.5118  0.6873 -0.6598
 6484TIP3   OH241010   4.596   1.904   0.020 -0.4033  0.1865 -0.0045
 6484TIP3    H141011   4.585   1.940   0.108  1.1343  1.6414 -0.3541
 6484TIP3    H241012   4.574   1.812   0.029 -1.7358  0.6084  1.5628
 6485TIP3   OH241013   2.606   5.770   6.227 -0.3036 -0.1149 -0.1368
 6485TIP3    H141014   2.574   5.716   6.154  1.0033 -1.4863  0.2559
 6485TIP3    H241015   2.628   5.707   6.295  0.6186  0.9870  0.6099
 6486TIP3   OH241016   0.035   0.840   7.047  0.4092 -0.3166 -0.1024
 6486TIP3    H141017   0.000   0.903   7.111 -0.9767 -0.1305 -0.9851
 6486TIP3    H241018   0.004   0.755   7.078  2.3028 -0.6344  1.1038
 6487TIP3   OH241019   0.340   1.847   1.562 -0.3473  0.1376  0.0534
 6487TIP3    H141020   0.301   1.806   1.485  0.8101 -1.0567  0.0571
 6487TIP3    H241021   0.275   1.835   1.631  0.1051 -2.1780  0.1612
 6488TIP3   OH241022   1.904   0.568   7.657  0.0749  1.1384 -0.7258
 6488TIP3    H141023   1.934   0.611   7.738  0.2809 -0.0561 -0.1417
 6488TIP3    H241024   1.962   0.492   7.648 -3.3392 -1.9544  1.0887
 6489TIP3   OH241025   5.519   6.693   6.669  0.4078 -0.3215 -0.1472
 6489TIP3    H141026   5.502   6.602   6.647 -1.3050 -0.3176  0.9468
 6489TIP3    H241027   5.471   6.743   6.602  2.2066 -0.1616 -1.3820
 6490TIP3   OH241028   3.041   1.774   0.922  0.4563 -0.5159  0.0547
 6490TIP3    H141029   2.946   1.773   0.910  0.5223 -2.5150 -0.7878
 6490TIP3    H241030   3.069   1.856   0.882 -0.9920  0.7020  1.3912
 6491TIP3   OH241031   1.736   6.839   0.599  0.1452  0.2304  0.4966
 6491TIP3    H141032   1.652   6.813   0.562 -0.8960  0.9658  2.2487
 6491TIP3    H241033   1.776   6.757   0.627 -0.1217 -0.0953 -0.0592
 6492TIP3   OH241034   0.653   5.294   0.613 -0.0445  0.1039  0.3747
 6492TIP3    H141035   0.570   5.247   0.598  0.5140 -0.7523 -0.1627
 6492TIP3    H241036   0.701   5.238   0.674 -0.7596  1.7278  2.5344
 6493TIP3   OH241037   5.863   6.409   7.093 -0.3235  0.0039  0.1320
 6493TIP3    H141038   5.938   6.363   7.054 -0.4992 -0.6824  0.5852
 6493TIP3    H241039   5.825   6.458   7.020 -0.1157 -0.5530 -0.3636
 6494TIP3   OH241040   2.877   4.888   6.045  0.4484 -0.3241  0.1329
 6494TIP3    H141041   2.918   4.890   5.958 -1.2186  0.5415 -0.6856
 6494TIP3    H241042   2.933   4.944   6.099  0.9215  0.0030 -0.6708
 6495TIP3   OH241043   1.067   1.589   7.756 -0.2624 -0.6012  0.1505
 6495TIP3    H141044   1.119   1.630   7.826  1.2642 -0.5822 -0.9467
 6495TIP3    H241045   1.104   1.502   7.746  0.4070 -0.1774 -1.4524
 6496TIP3   OH241046   1.057   5.171   7.811 -0.2229  0.3685  0.0307
 6496TIP3    H141047   0.992   5.227   7.855 -0.3568  0.0328  0.2699
 6496TIP3    H241048   1.013   5.086   7.803 -0.4405  0.5972 -1.3532
 6497TIP3   OH241049   2.970   0.547   7.728  0.2234  0.3737 -1.2826
 6497TIP3    H141050   2.946   0.469   7.678 -0.5031  1.5767 -2.8971
 6497TIP3    H241051   3.003   0.608   7.662 -1.1033  2.1605 -0.3694
 6498TIP3   OH241052   3.909   5.270   0.484 -0.5182  0.0343  0.2684
 6498TIP3    H141053   3.839   5.293   0.545 -1.1910  0.9061 -0.7991
 6498TIP3    H241054   3.972   5.222   0.538 -1.0516  0.8215  1.6711
 6499TIP3   OH241055   5.916   4.434   0.407  0.1978  0.5771  0.1506
 6499TIP3    H141056   5.830   4.425   0.448 -0.2540 -0.1986 -0.9055
 6499TIP3    H241057   5.918   4.365   0.341  1.2911  1.1407 -0.4360
 6500TIP3   OH241058   0.781   2.182   6.863  0.1726 -0.1588  0.3379
 6500TIP3    H141059   0.716   2.252   6.860  1.2581  0.8542 -1.1190
 6500TIP3    H241060   0.730   2.102   6.853 -0.9113  0.5836 -0.3465
 6501TIP3   OH241061   3.332   5.278   0.155 -0.6260 -0.1264  0.3131
 6501TIP3    H141062   3.302   5.369   0.150  1.3730  0.5132 -1.4678
 6501TIP3    H241063   3.298   5.237   0.076 -0.6126 -0.6239  0.5632
 6502TIP3   OH241064   3.579   3.854   0.222  0.4549  0.6299  0.3687
 6502TIP3    H141065   3.561   3.783   0.283 -2.3073 -0.7849 -1.8496
 6502TIP3    H241066   3.606   3.811   0.141 -0.1842  2.1248 -0.6976
 6503TIP3   OH241067   6.308   2.542   0.833 -0.0957 -0.1816 -0.5090
 6503TIP3    H141068   6.273   2.605   0.896  1.4250  2.1968 -1.8858
 6503TIP3    H241069   6.302   2.457   0.877 -2.0227  0.9315  1.5287
 6504TIP3   OH241070   3.269   4.227   0.947 -0.0043 -0.7533 -0.0518
 6504TIP3    H141071   3.304   4.138   0.940 -0.3732 -0.8371 -0.9347
 6504TIP3    H241072   3.219   4.226   1.029 -0.0500 -1.3786 -0.0760
 6505TIP3   OH241073   2.858   0.979   1.124  0.3685 -0.0236 -0.2002
 6505TIP3    H141074   2.902   1.025   1.053  0.2891 -0.0464 -0.2647
 6505TIP3    H241075   2.791   1.040   1.155 -0.0836 -0.2947 -0.6345
 6506TIP3   OH241076   3.608   5.056   0.783  0.4720 -0.1175  0.8519
 6506TIP3    H141077   3.623   5.124   0.718 -0.2656 -0.3803  0.3947
 6506TIP3    H241078   3.519   5.071   0.814 -1.2978 -3.1438 -2.1009
 6507TIP3   OH241079   4.514   6.891   7.845  0.4919  0.6766 -0.1117
 6507TIP3    H141080   4.490   6.824   7.782  0.7588  0.6159 -0.1486
 6507TIP3    H241081   4.526   6.970   7.793  0.8712  0.5890 -0.1578
 6508TIP3   OH241082   6.885   5.624   6.361  0.6046  0.1981 -0.4125
 6508TIP3    H141083   6.846   5.604   6.276 -0.7193 -0.2248  0.2698
 6508TIP3    H241084   6.815   5.665   6.411  1.6425  1.3244  0.1728
 6509TIP3   OH241085   0.928   1.737   7.579  0.4655  0.2031 -0.8699
 6509TIP3    H141086   0.853   1.694   7.539  0.5148 -0.3350 -0.4019
 6509TIP3    H241087   0.975   1.666   7.624  0.8310  0.6598 -0.5186
 6510TIP3   OH241088   2.599   4.586   7.193  0.0458  0.1925 -0.8002
 6510TIP3    H141089   2.680   4.539   7.215 -0.4829 -0.6434 -0.5622
 6510TIP3    H241090   2.628   4.668   7.154  1.0094 -0.3864 -1.3347
 6511TIP3   OH241091   0.697   4.299   7.452 -0.3651 -0.3313  0.2395
 6511TIP3    H141092   0.632   4.275   7.385 -0.0871  0.0020 -0.1579
 6511TIP3    H241093   0.721   4.389   7.431 -0.4397 -0.1432  0.9335
 6512TIP3   OH241094   2.074   3.349   0.206  0.7638  0.2060 -0.3644
 6512TIP3    H141095   1.979   3.364   0.202  0.8790  0.8661 -0.7394
 6512TIP3    H241096   2.084   3.256   0.187  0.3334  0.5581 -2.5116
 6513TIP3   OH241097   6.318   3.262   8.155  0.4659  0.1403 -0.3494
 6513TIP3    H141098   6.261   3.337   8.138 -1.8181 -1.1170  1.1248
 6513TIP3    H241099   6.381   3.262   8.083 -1.4809  1.5870 -2.1752
 6514TIP3   OH241100   2.179   4.289   7.699  0.7589 -0.7402 -0.3784
 6514TIP3    H141101   2.257   4.333   7.666  1.3846 -0.0278  1.8422
 6514TIP3    H241102   2.207   4.251   7.783 -1.7047  1.2173  1.4921
 6515TIP3   OH241103   1.729   2.926   8.174  0.2299  0.2715  0.0048
 6515TIP3    H141104   1.658   2.955   8.118 -0.8716 -2.9169 -0.4908
 6515TIP3    H241105   1.777   2.862   8.121  1.5752  0.0428  1.3966
 6516TIP3   OH241106   2.461   4.192   0.919  0.3109 -0.1781  0.2988
 6516TIP3    H141107   2.545   4.163   0.884 -0.7020 -0.5976 -1.9242
 6516TIP3    H241108   2.464   4.166   1.011  2.2118 -1.0715  0.0386
 6517TIP3   OH241109   6.935   0.546   8.014  0.1245 -0.4178 -0.1247
 6517TIP3    H141110   6.916   0.625   8.065  0.9641  0.0073 -0.4585
 6517TIP3    H241111   6.886   0.476   8.059 -1.9210  0.5322 -0.7359
 6518TIP3   OH241112   4.660   5.411   7.389 -0.3523 -0.5728 -0.3045
 6518TIP3    H141113   4.690   5.342   7.448  0.6292  0.4004  0.3727
 6518TIP3    H241114   4.730   5.476   7.390  0.0448 -0.8077 -3.0794
 6519TIP3   OH241115   0.448   3.456   0.601  0.0648 -0.4979 -0.5071
 6519TIP3    H141116   0.432   3.436   0.508 -0.8872  1.0015 -0.7178
 6519TIP3    H241117   0.456   3.552   0.603 -0.6496 -0.4459  1.0529
 6520TIP3   OH241118   1.898   4.968   0.186  0.6916  0.3476  0.5539
 6520TIP3    H141119   1.930   4.921   0.263 -0.5934 -0.7203  0.4632
 6520TIP3    H241120   1.871   5.054   0.220  1.5543  0.4586  0.9986
 6521TIP3   OH241121   5.754   1.031   1.259 -0.2024  0.2241  0.2130
 6521TIP3    H141122   5.748   1.111   1.311  2.7078 -0.4618  1.8020
 6521TIP3    H241123   5.789   1.059   1.175  0.1462  0.7182  0.5203
 6522TIP3   OH241124   3.938   4.569   8.185 -0.7268 -0.0141  0.2210
 6522TIP3    H141125   3.929   4.558   8.280 -1.7394  0.4195  0.1864
 6522TIP3    H241126   3.952   4.481   8.152  2.1329  0.0435  0.9912
 6523TIP3   OH241127   2.352   3.882   6.973 -0.3731  0.5249 -0.2852
 6523TIP3    H141128   2.332   3.846   7.060 -0.6817  1.6574  0.1259
 6523TIP3    H241129   2.323   3.814   6.912  0.6448 -0.6627  0.5017
 6524TIP3   OH241130   6.586   1.009   1.275  0.7678 -0.5157  0.2300
 6524TIP3    H141131   6.641   1.079   1.241  0.5536 -0.5053 -0.1050
 6524TIP3    H241132   6.546   1.046   1.353 -0.0489  0.0589 -0.4420
 6525TIP3   OH241133   6.404   1.244   7.163  0.1354 -0.5072  0.3366
 6525TIP3    H141134   6.385   1.187   7.089 -1.4431 -0.4438  0.6575
 6525TIP3    H241135   6.404   1.332   7.126 -0.8533 -0.4588  0.4272
 6526TIP3   OH241136   6.056   1.983   0.654  0.4289  0.2943 -0.3944
 6526TIP3    H141137   6.023   2.069   0.678 -1.2697 -0.2316 -0.7213
 6526TIP3    H241138   6.147   1.998   0.628  0.9780  1.5769  1.9611
 6527TIP3   OH241139   0.900   0.235   1.408 -0.1391 -0.4411 -0.4790
 6527TIP3    H141140   0.934   0.297   1.473 -1.8564  1.9065 -1.6548
 6527TIP3    H241141   0.911   0.149   1.448  3.6160  0.4180  0.7056
 6528TIP3   OH241142   4.863   3.366   1.124  0.3678 -0.1854 -0.1227
 6528TIP3    H141143   4.845   3.373   1.218  1.4591 -2.0609  0.2620
 6528TIP3    H241144   4.856   3.273   1.104  1.2717  0.0361 -1.6607
 6529TIP3   OH241145   0.978   4.251   1.345  0.8623  0.0266  0.4313
 6529TIP3    H141146   1.020   4.308   1.282 -1.0978  0.4438 -0.5818
 6529TIP3    H241147   1.020   4.166   1.333  2.1571  0.6708  0.2791
 6530TIP3   OH241148   3.126   1.862   2.161 -0.1294  0.6276 -0.7302
 6530TIP3    H141149   3.157   1.804   2.231  0.3776  2.0640  0.2723
 6530TIP3    H241150   3.032   1.871   2.178 -0.0385  0.8345 -0.3206
 6531TIP3   OH241151   4.078   4.186   0.079  0.0752 -0.1004 -0.0618
 6531TIP3    H141152   3.997   4.215   0.036  0.1664  0.0044 -0.1622
 6531TIP3    H241153   4.139   4.170   0.008 -0.2630 -1.4653 -0.0731
 6532TIP3   OH241154   6.897   3.482   1.681  0.0017 -0.3770  0.3892
 6532TIP3    H141155   6.923   3.397   1.716  1.5481 -0.4039 -0.7386
 6532TIP3    H241156   6.901   3.471   1.586  0.9804  1.1591  0.2178
 6533TIP3   OH241157   5.121   5.669   6.563  0.9107  0.1221  0.6047
 6533TIP3    H141158   5.116   5.736   6.495  0.1532  0.2819  0.8015
 6533TIP3    H241159   5.051   5.692   6.624  0.6351 -0.8444  0.6775
 6534TIP3   OH241160   3.443   2.823   0.728 -0.3540  0.1479  0.4948
 6534TIP3    H141161   3.447   2.795   0.636 -0.1559  1.4018  0.1102
 6534TIP3    H241162   3.514   2.886   0.737 -2.6330  2.8868  0.4846
 6535TIP3   OH241163   5.771   0.495   0.704  0.3356 -0.3510  0.5219
 6535TIP3    H141164   5.710   0.509   0.776 -0.5056 -0.3633 -0.1799
 6535TIP3    H241165   5.726   0.529   0.626  1.4776  0.2324  0.0886
 6536TIP3   OH241166   1.601   6.298   6.981 -0.3944 -0.6213 -0.4059
 6536TIP3    H141167   1.693   6.280   6.963 -0.0311  0.9276 -0.2226
 6536TIP3    H241168   1.589   6.268   7.071  0.4025  0.6988  0.1713
 6537TIP3   OH241169   4.705   0.973   1.597  0.0460 -0.1386 -0.6272
 6537TIP3    H141170   4.713   1.060   1.636 -1.3800 -0.5308  0.6144
 6537TIP3    H241171   4.757   0.916   1.654  0.7941 -0.1717 -1.3130
 6538TIP3   OH241172   2.040   3.072   7.955 -0.2147  0.6515  0.2286
 6538TIP3    H141173   2.053   3.032   8.040  0.3993  2.7408  1.1809
 6538TIP3    H241174   2.109   3.034   7.900 -1.6611 -1.9945  0.1083
 6539TIP3   OH241175   0.176   1.384   1.635 -0.7345  0.6584  0.5068
 6539TIP3    H141176   0.141   1.463   1.677 -0.6616  0.6970  0.4956
 6539TIP3    H241177   0.099   1.330   1.619 -0.8556  0.9696  0.0048
 6540TIP3   OH241178   2.791   6.603   7.385  0.0291  0.1555  0.0732
 6540TIP3    H141179   2.863   6.614   7.323 -0.3675  2.0601 -0.1057
 6540TIP3    H241180   2.826   6.545   7.453  1.8425  1.2520  0.1376
 6541TIP3   OH241181   5.170   5.510   0.023  0.2717 -0.1963 -0.2600
 6541TIP3    H141182   5.145   5.589   0.070 -2.5561 -1.4211  0.5319
 6541TIP3    H241183   5.179   5.537  -0.069 -0.3357  1.0703  0.0413
 6542TIP3   OH241184   6.385   1.771   0.546  0.3578 -0.3772  0.3900
 6542TIP3    H141185   6.321   1.751   0.478  1.5476 -0.4801 -0.7375
 6542TIP3    H241186   6.366   1.862   0.570 -0.0553 -0.3254 -0.1162
 6543TIP3   OH241187   5.657   6.866   0.948 -0.2992 -0.1483  0.3759
 6543TIP3    H141188   5.642   6.772   0.949 -3.2616  0.2164  0.1464
 6543TIP3    H241189   5.711   6.882   0.870 -1.6174 -1.4675 -0.8576
 6544TIP3   OH241190   6.500   5.841   6.989 -0.3114 -0.4188 -0.1744
 6544TIP3    H141191   6.559   5.769   6.970 -0.5363 -0.9505  1.0447
 6544TIP3    H241192   6.417   5.816   6.949 -0.3256 -0.7420  0.0537
 6545TIP3   OH241193   1.448   4.764   0.458 -0.1649  0.9780 -0.2486
 6545TIP3    H141194   1.410   4.747   0.372 -2.1352  0.7968  0.5995
 6545TIP3    H241195   1.474   4.677   0.491 -1.4559  0.7499  0.2147
 6546TIP3   OH241196   2.672   4.646   0.429 -0.0230 -0.2847 -0.2235
 6546TIP3    H141197   2.750   4.602   0.394 -0.5429  0.7975 -2.9186
 6546TIP3    H241198   2.613   4.575   0.453  2.0493 -1.1874  2.8621
 6547TIP3   OH241199   0.493   0.652   8.008 -0.1497 -0.0782  0.0532
 6547TIP3    H141200   0.471   0.567   7.971 -0.3678 -0.3364  0.7555
 6547TIP3    H241201   0.438   0.714   7.960 -0.7760 -0.4587  0.2634
 6548TIP3   OH241202   6.295   6.160   7.838 -0.7474 -0.1446  0.0623
 6548TIP3    H141203   6.331   6.133   7.922  1.2668 -0.4618 -0.8445
 6548TIP3    H241204   6.277   6.254   7.849  1.2646  0.2573  0.3211
 6549TIP3   OH241205   6.983   3.692   6.043 -0.3086 -0.1298 -0.1998
 6549TIP3    H141206   6.958   3.748   6.116 -1.6194 -0.2109 -0.5609
 6549TIP3    H241207   6.900   3.660   6.007  0.3323 -0.6040 -1.3268
 6550TIP3   OH241208   2.691   5.173   6.543 -0.0257 -0.2707 -0.3326
 6550TIP3    H141209   2.683   5.079   6.524 -0.3578 -0.5933  1.2492
 6550TIP3    H241210   2.648   5.216   6.470 -1.5117 -1.4345 -0.1943
 6551TIP3   OH241211   1.927   2.716   8.075  0.3430  0.5617 -0.4012
 6551TIP3    H141212   1.993   2.773   8.115  0.8594  0.0939 -0.5599
 6551TIP3    H241213   1.891   2.665   8.148 -0.7928  1.7360 -0.1183
 6552TIP3   OH241214   4.397   5.167   8.276 -0.0336 -0.5626  0.0921
 6552TIP3    H141215   4.312   5.205   8.296  0.8800  1.3645  0.5960
 6552TIP3    H241216   4.389   5.075   8.299 -2.1301 -0.5417 -0.4227
 6553TIP3   OH241217   3.998   4.025   6.561  0.3328 -0.0557 -0.0673
 6553TIP3    H141218   4.042   4.058   6.482 -0.8877  1.8469 -0.0024
 6553TIP3    H241219   4.012   3.930   6.557  2.0733  0.1851 -1.4639
 6554TIP3   OH241220   0.400   1.428   0.142 -0.4191  0.3480  0.3149
 6554TIP3    H141221   0.410   1.443   0.048  3.7034  0.8136  0.6394
 6554TIP3    H241222   0.367   1.511   0.176  0.7404  1.1576 -0.4581
 6555TIP3   OH241223   6.985   1.467   6.127 -0.1948 -0.2629  0.0126
 6555TIP3    H141224   6.932   1.485   6.050 -0.1478 -1.8049 -0.4093
 6555TIP3    H241225   6.928   1.417   6.185  0.3284 -0.6471  0.2041
 6556TIP3   OH241226   4.240   1.381   7.392 -0.2021 -0.2488 -0.5133
 6556TIP3    H141227   4.154   1.398   7.354 -0.9094  0.4844  1.2650
 6556TIP3    H241228   4.302   1.415   7.328 -1.2357 -0.7398 -1.8065
 6557TIP3   OH241229   4.789   3.816   7.144 -0.0697 -0.1111 -0.2296
 6557TIP3    H141230   4.874   3.804   7.187 -0.1736 -1.1493 -0.2861
 6557TIP3    H241231   4.759   3.727   7.126 -0.8181  0.2703 -0.9087
 6558TIP3   OH241232   4.508   0.828   1.062 -0.1328 -0.0030 -0.3889
 6558TIP3    H141233   4.567   0.888   1.017 -0.5829  3.4896  3.0806
 6558TIP3    H241234   4.564   0.760   1.099  1.2267  1.2158 -0.1539
 6559TIP3   OH241235   1.614   0.073   0.968  0.1565 -0.6013 -0.2851
 6559TIP3    H141236   1.545   0.110   1.023  0.7667 -0.7832  0.6274
 6559TIP3    H241237   1.570   0.045   0.889 -0.6516  0.2181 -0.1381
 6560TIP3   OH241238   3.961   3.640   7.872 -0.1703 -0.2249  0.0742
 6560TIP3    H141239   3.883   3.604   7.828 -0.9188  0.9259  0.4071
 6560TIP3    H241240   3.992   3.569   7.928 -1.0484 -0.6679  0.0189
 6561TIP3   OH241241   5.610   6.987   7.057  0.3081  0.0562  0.7369
 6561TIP3    H141242   5.567   6.915   7.011  0.5304  0.0484  0.5419
 6561TIP3    H241243   5.579   7.066   7.013  0.6748  0.0384  0.4448
 6562TIP3   OH241244   3.793   3.372   7.713  0.2834 -0.4964  0.1046
 6562TIP3    H141245   3.822   3.322   7.790  1.7764 -1.0315 -0.7593
 6562TIP3    H241246   3.710   3.332   7.688  1.7789 -3.1741 -1.0076
 6563TIP3   OH241247   6.531   2.584   7.827  0.0231 -0.5519  0.0406
 6563TIP3    H141248   6.452   2.547   7.787 -2.2926  2.9821  0.9483
 6563TIP3    H241249   6.583   2.614   7.752 -0.7623 -0.5452 -0.5173
 6564TIP3   OH241250   2.421   4.168   1.194 -0.0803 -0.5519 -0.1633
 6564TIP3    H141251   2.399   4.118   1.272 -1.1333 -0.9961 -0.7270
 6564TIP3    H241252   2.444   4.255   1.227  0.8623 -1.1271  0.7499
 6565TIP3   OH241253   6.823   5.402   5.188 -0.2482  0.0438  0.4814
 6565TIP3    H141254   6.778   5.322   5.215 -1.9428  0.9422  0.4213
 6565TIP3    H241255   6.805   5.465   5.257  0.8706  0.4643  0.4097
 6566TIP3   OH241256   6.540   2.615   6.501  0.1202  0.0724 -0.0715
 6566TIP3    H141257   6.600   2.666   6.447  1.7640 -1.3120  0.3527
 6566TIP3    H241258   6.457   2.617   6.454  0.1452  2.8982 -0.1774
 6567TIP3   OH241259   3.974   0.994   0.875 -0.3334  0.3409  0.0203
 6567TIP3    H141260   4.032   1.063   0.907  0.1991 -0.7522  1.5673
 6567TIP3    H241261   3.995   0.985   0.783  3.0826 -0.9798  0.7752
 6568TIP3   OH241262   6.903   0.829   7.316  0.1249  0.1568 -1.1758
 6568TIP3    H141263   6.914   0.734   7.323 -1.1004  0.0807  0.1071
 6568TIP3    H241264   6.954   0.864   7.389 -0.3469  0.4013 -0.9598
 6569TIP3   OH241265   2.472   3.591   1.014  0.0299 -0.2077  0.0120
 6569TIP3    H141266   2.393   3.606   0.961 -0.2664 -1.6367  0.0069
 6569TIP3    H241267   2.501   3.678   1.040 -2.2996  0.3173  1.0957
 6570TIP3   OH241268   2.736   2.498   1.406  0.1749  0.0969 -0.0516
 6570TIP3    H141269   2.829   2.474   1.399 -0.0374 -1.1926  0.9155
 6570TIP3    H241270   2.692   2.442   1.342  0.0150  0.3923 -0.2011
 6571TIP3   OH241271   1.549   2.521   1.723 -0.2212 -0.1790  0.4343
 6571TIP3    H141272   1.460   2.513   1.690 -0.2664 -0.9784  0.7325
 6571TIP3    H241273   1.547   2.600   1.778 -0.2494  0.9138 -1.0926
 6572TIP3   OH241274   6.812   3.007   1.040 -0.5056  0.0291  0.1591
 6572TIP3    H141275   6.781   3.006   1.130 -1.3092 -0.3120 -0.1083
 6572TIP3    H241276   6.883   3.071   1.039 -0.2621 -0.2138  1.1010
 6573TIP3   OH241277   0.869   0.684   8.331 -0.1076 -0.1609 -0.2822
 6573TIP3    H141278   0.858   0.648   8.243 -0.5608 -0.6748 -0.0195
 6573TIP3    H241279   0.908   0.613   8.381  0.8577  0.3750 -0.2391
 6574TIP3   OH241280   6.906   5.020   1.197 -0.4184 -0.6177 -0.2485
 6574TIP3    H141281   6.941   5.029   1.285 -0.0097 -0.8668 -0.3820
 6574TIP3    H241282   6.812   5.034   1.206 -0.5065 -1.5855  0.3667
 6575TIP3   OH241283   0.523   3.930   7.982  0.5294  0.3143  0.1770
 6575TIP3    H141284   0.486   3.905   7.898  0.1290 -1.5497  0.8674
 6575TIP3    H241285   0.466   4.000   8.014  0.3286  0.6093 -0.7932
 6576TIP3   OH241286   6.066   6.195   1.735  0.1625  0.5475  0.4583
 6576TIP3    H141287   5.985   6.241   1.714  0.4762  1.1224  0.4822
 6576TIP3    H241288   6.135   6.256   1.711  0.5592  1.0675  2.6880
 6577TIP3   OH241289   3.863   5.897   7.875  0.0005 -0.0049 -0.6004
 6577TIP3    H141290   3.843   5.990   7.868  0.2897  0.0250 -1.0279
 6577TIP3    H241291   3.952   5.894   7.911  0.6781 -0.0818 -2.2023
 6578TIP3   OH241292   5.937   3.546   7.440  0.2280  0.2914  0.2817
 6578TIP3    H141293   5.843   3.562   7.433  0.5440  1.9925 -0.3323
 6578TIP3    H241294   5.943   3.471   7.500 -1.5971 -1.2765 -1.3627
 6579TIP3   OH241295   5.399   1.602   7.853 -0.9410  0.1404 -0.0459
 6579TIP3    H141296   5.312   1.614   7.891 -0.3508 -0.4234  1.5558
 6579TIP3    H241297   5.414   1.508   7.855 -1.1145  0.0187 -2.2964
 6580TIP3   OH241298   5.598   4.676   1.969 -0.1666 -0.1276 -0.7220
 6580TIP3    H141299   5.666   4.641   2.027 -0.9683  1.1515  1.0765
 6580TIP3    H241300   5.555   4.744   2.021 -3.3621 -1.4070 -1.4220
 6581TIP3   OH241301   6.571   6.414   1.628 -0.4611 -0.6147  0.1397
 6581TIP3    H141302   6.614   6.492   1.595 -1.4055 -1.3975 -3.2792
 6581TIP3    H241303   6.642   6.358   1.658  0.5661 -0.0565 -1.1750
 6582TIP3   OH241304   5.957   2.983   8.237 -0.2611  0.2148 -0.3844
 6582TIP3    H141305   5.902   2.907   8.219 -1.4447  0.8337  0.4952
 6582TIP3    H241306   5.896   3.056   8.244  0.6932  0.9698  0.3780
 6583TIP3   OH241307   4.461   2.022   6.177 -0.3783 -0.3924  0.5145
 6583TIP3    H141308   4.430   2.111   6.194 -0.9466 -0.3243 -0.7832
 6583TIP3    H241309   4.556   2.027   6.185 -0.3151  0.5844 -0.6344
 6584TIP3   OH241310   3.236   5.241   8.254  0.0181 -0.2309 -0.6115
 6584TIP3    H141311   3.141   5.237   8.246 -0.0721  1.0005 -0.4215
 6584TIP3    H241312   3.266   5.272   8.168  0.0578  1.3779 -0.0435
 6585TIP3   OH241313   1.297   6.961   7.067 -0.9231  0.2370  0.1886
 6585TIP3    H141314   1.296   7.044   7.116  2.5468 -0.3811  1.5996
 6585TIP3    H241315   1.292   6.893   7.134 -1.3003 -0.6788 -0.7464
 6586TIP3   OH241316   3.795   4.047   0.133 -0.1351 -0.2863  0.2912
 6586TIP3    H141317   3.879   4.064   0.175  0.1767 -1.8520  0.3423
 6586TIP3    H241318   3.795   4.105   0.056  0.9099 -0.1395  0.3824
 6587TIP3   OH241319   0.896   0.836   7.829 -0.1838  0.2426  0.0174
 6587TIP3    H141320   0.981   0.798   7.850  0.8858  2.8258  0.7516
 6587TIP3    H241321   0.834   0.786   7.881  0.7951 -1.8519 -0.7122
 6588TIP3   OH241322   5.598   0.269   1.607  0.1721 -0.2893  0.5032
 6588TIP3    H141323   5.532   0.291   1.542  1.0274  0.3260 -0.1901
 6588TIP3    H241324   5.654   0.205   1.564  0.9012  0.3227  0.5200
 6589TIP3   OH241325   1.357   1.677   0.462 -0.0551  0.2272 -0.4365
 6589TIP3    H141326   1.354   1.582   0.466  0.1881  0.2665  0.9765
 6589TIP3    H241327   1.447   1.700   0.484  0.6166  0.7125 -3.2878
 6590TIP3   OH241328   2.283   5.489   1.360  0.1641  0.0129  0.0289
 6590TIP3    H141329   2.303   5.470   1.269  1.5943  0.1092  0.3043
 6590TIP3    H241330   2.367   5.482   1.406 -0.3913  0.6999  1.2145
 6591TIP3   OH241331   4.882   0.516   0.005  0.1646  0.4831  0.6960
 6591TIP3    H141332   4.867   0.515   0.099 -0.2329 -1.1049  0.6484
 6591TIP3    H241333   4.974   0.544  -0.005  0.0903  1.0330  1.5134
 6592TIP3   OH241334   5.242   6.512   7.885 -0.2806 -0.1406  0.0170
 6592TIP3    H141335   5.180   6.578   7.853  0.3860  0.9868  0.9465
 6592TIP3    H241336   5.242   6.525   7.980  1.8961  0.3888 -0.0140
 6593TIP3   OH241337   2.587   4.560   0.910 -0.2051  0.2139 -0.3053
 6593TIP3    H141338   2.575   4.480   0.858 -4.4855 -0.1241  0.8257
 6593TIP3    H241339   2.607   4.528   0.998  1.7970  0.5992 -0.5868
 6594TIP3   OH241340   0.848   6.931   6.068 -0.1775 -0.0124 -0.6120
 6594TIP3    H141341   0.909   6.958   6.137  0.2341  2.0378 -1.6915
 6594TIP3    H241342   0.762   6.946   6.105 -0.1260 -2.6775  0.8314
 6595TIP3   OH241343   6.937   5.691   0.372  0.0745 -0.3734 -0.0220
 6595TIP3    H141344   6.922   5.775   0.327 -1.2974 -1.5952 -1.9932
 6595TIP3    H241345   6.853   5.646   0.366  0.9417 -2.1237  0.5274
 6596TIP3   OH241346   0.911   4.732   7.125  0.3101 -0.1330  0.0309
 6596TIP3    H141347   0.843   4.751   7.060  1.6786  2.7003 -0.7339
 6596TIP3    H241348   0.944   4.646   7.101 -0.7609 -0.1206 -1.6591
 6597TIP3   OH241349   6.426   4.019   2.189 -0.0949 -0.5945 -0.3799
 6597TIP3    H141350   6.450   3.943   2.242 -0.5260 -2.6603 -2.9651
 6597TIP3    H241351   6.343   3.996   2.149 -1.0732  1.9727 -0.0150
 6598TIP3   OH241352   2.978   2.399   1.281  0.7237 -0.2726 -0.4139
 6598TIP3    H141353   2.930   2.320   1.254  0.1459 -0.5073  1.1790
 6598TIP3    H241354   3.045   2.367   1.341  0.9213  0.3832 -0.2797
 6599TIP3   OH241355   2.985   1.131   0.915  0.4255 -0.0668  0.3705
 6599TIP3    H141356   3.059   1.125   0.854 -0.1261 -0.2044 -0.2991
 6599TIP3    H241357   3.001   1.211   0.964  1.2517 -0.3303  0.5439
 6600TIP3   OH241358   3.216   2.439   1.880 -0.0415  0.3037 -0.6472
 6600TIP3    H141359   3.282   2.447   1.810 -0.0897 -1.7717 -1.0091
 6600TIP3    H241360   3.135   2.419   1.833 -0.8843  2.3665 -0.1713
 6601TIP3   OH241361   6.497   4.726   1.583 -0.2705 -0.7558 -0.3582
 6601TIP3    H141362   6.414   4.717   1.536  0.2383  0.1219 -1.4767
 6601TIP3    H241363   6.482   4.796   1.646 -0.4417 -0.7688 -0.3839
 6602TIP3   OH241364   1.426   1.641   6.541 -0.0516 -0.6469  0.0145
 6602TIP3    H141365   1.341   1.684   6.530 -0.4077 -0.8801  1.6547
 6602TIP3    H241366   1.476   1.700   6.598  0.1086 -1.5209  0.8038
 6603TIP3   OH241367   4.851   5.946   0.225  0.3089 -0.2085  0.2410
 6603TIP3    H141368   4.942   5.971   0.235 -0.2126  1.5650  1.0543
 6603TIP3    H241369   4.843   5.864   0.273  1.6819 -0.9783 -0.7813
 6604TIP3   OH241370   5.405   1.472   0.965  0.4813  1.0415  0.1218
 6604TIP3    H141371   5.425   1.542   1.027  3.3224 -1.0291  1.8049
 6604TIP3    H241372   5.422   1.509   0.879 -0.1901  3.0079  0.7941
 6605TIP3   OH241373   0.795   3.362   0.784 -0.1572  0.2000  1.1546
 6605TIP3    H141374   0.774   3.277   0.822 -0.7386  0.4090  1.3254
 6605TIP3    H241375   0.713   3.411   0.791 -1.1412 -0.5916 -2.8031
 6606TIP3   OH241376   6.759   1.067   7.715  0.3173 -0.8244  0.2021
 6606TIP3    H141377   6.752   0.973   7.697 -2.1962 -0.8779  1.1292
 6606TIP3    H241378   6.784   1.073   7.807 -2.2020 -0.6690  0.9428
 6607TIP3   OH241379   0.817   4.820   7.372 -0.5839  1.0390 -0.1651
 6607TIP3    H141380   0.856   4.788   7.291 -0.1495 -2.2481  1.1583
 6607TIP3    H241381   0.723   4.801   7.363 -0.2923 -1.0813  0.7198
 6608TIP3   OH241382   2.408   2.458   0.586 -0.1409  0.8053 -0.0017
 6608TIP3    H141383   2.419   2.370   0.549  1.2890  0.1868  1.7205
 6608TIP3    H241384   2.374   2.511   0.514  0.4459 -0.7940 -1.5245
 6609TIP3   OH241385   4.712   6.638   1.834 -0.2165  0.4019  0.1610
 6609TIP3    H141386   4.742   6.681   1.914  0.8739  1.6542 -0.8838
 6609TIP3    H241387   4.783   6.577   1.812  0.2192  1.1949 -0.6841
 6610TIP3   OH241388   6.439   6.836   1.447 -0.2391  0.6610  0.0625
 6610TIP3    H141389   6.493   6.789   1.511 -0.1286  0.8600  0.1129
 6610TIP3    H241390   6.432   6.775   1.373  0.1484  0.6809  0.0059
 6611TIP3   OH241391   6.510   5.297   5.707  0.3740 -0.2160  0.2363
 6611TIP3    H141392   6.587   5.353   5.696  0.5330 -0.2611  1.0883
 6611TIP3    H241393   6.524   5.225   5.645  0.0143  0.8158 -1.1102
 6612TIP3   OH241394   5.347   5.931   0.853 -0.6804 -0.3631  0.2357
 6612TIP3    H141395   5.422   5.990   0.853 -1.0131  0.0897 -1.4042
 6612TIP3    H241396   5.385   5.843   0.851 -0.1104 -0.1434 -2.6381
 6613TIP3   OH241397   5.360   1.337   7.832  0.4148  0.7822  0.6345
 6613TIP3    H141398   5.340   1.248   7.858  1.6694  0.4495  0.5299
 6613TIP3    H241399   5.278   1.371   7.796  0.5392 -1.2567 -1.8915
 6614TIP3   OH241400   4.156   5.225   0.996 -0.3751 -0.2101  0.3899
 6614TIP3    H141401   4.232   5.281   1.012 -0.0920 -0.3750 -0.3183
 6614TIP3    H241402   4.082   5.272   1.035  0.2375 -0.5711  2.0974
 6615TIP3   OH241403   5.881   5.340   1.729 -0.2055 -0.1288  0.0543
 6615TIP3    H141404   5.929   5.277   1.676  0.3708  0.8296 -0.6165
 6615TIP3    H241405   5.870   5.298   1.814  1.6654 -0.4795  0.1687
 6616TIP3   OH241406   6.333   5.927   6.465  0.2308  0.1517  0.1922
 6616TIP3    H141407   6.405   5.894   6.410  1.4909  0.0684  1.8106
 6616TIP3    H241408   6.351   6.021   6.474 -0.5544  0.3648 -0.3563
 6617TIP3   OH241409   0.076   3.129   6.276 -0.0979  0.0456  0.1667
 6617TIP3    H141410   0.020   3.099   6.204  0.9476  1.3475 -1.2671
 6617TIP3    H241411   0.016   3.176   6.334 -0.8424 -0.3922 -0.2247
 6618TIP3   OH241412   2.724   4.722   0.182  0.0732 -0.4873  0.3389
 6618TIP3    H141413   2.663   4.727   0.255 -0.0480 -0.9715  0.2732
 6618TIP3    H241414   2.760   4.633   0.186  0.6757 -0.2539  0.2989
 6619TIP3   OH241415   5.024   2.206   0.870 -0.1418 -0.1343  0.8114
 6619TIP3    H141416   5.011   2.137   0.805  1.1314  0.3352  0.0238
 6619TIP3    H241417   4.937   2.244   0.883 -0.0606  1.7905 -2.9191
 6620TIP3   OH241418   5.546   3.583   8.194 -0.4103 -0.0436 -0.3970
 6620TIP3    H141419   5.451   3.594   8.206 -0.3918 -0.2087 -0.0989
 6620TIP3    H241420   5.582   3.585   8.282 -0.2119 -0.6967 -0.4589
 6621TIP3   OH241421   6.676   6.089   7.812  0.2215  0.7951  0.7105
 6621TIP3    H141422   6.646   6.112   7.724 -2.3165 -1.3647  0.8964
 6621TIP3    H241423   6.767   6.062   7.800 -0.7481 -1.8420 -1.7860
 6622TIP3   OH241424   1.301   5.042   7.176  0.3073 -0.5964  0.1796
 6622TIP3    H141425   1.360   4.992   7.120 -0.5324 -2.3592  0.7933
 6622TIP3    H241426   1.282   5.121   7.127  1.0171 -1.2646 -1.2173
 6623TIP3   OH241427   2.565   5.205   0.339  0.0371  0.1874  0.1100
 6623TIP3    H141428   2.529   5.117   0.324 -0.4764  0.4230 -0.0569
 6623TIP3    H241429   2.582   5.239   0.251  1.7326 -0.3499  0.2069
 6624TIP3   OH241430   3.811   2.678   8.128 -0.4668 -0.1219 -0.3086
 6624TIP3    H141431   3.873   2.675   8.055  1.0307  1.0263  0.8581
 6624TIP3    H241432   3.830   2.761   8.172 -0.5286 -1.2928  2.0602
 6625TIP3   OH241433   3.354   1.977   1.668  0.2759 -0.0378 -0.2403
 6625TIP3    H141434   3.336   1.929   1.587  0.8491 -1.3592  0.3720
 6625TIP3    H241435   3.295   1.938   1.733  0.2692  0.5652  0.1252
 6626TIP3   OH241436   0.689   6.409   2.370  0.6891  0.3788  0.4974
 6626TIP3    H141437   0.646   6.494   2.378  0.0347  0.0731  0.3416
 6626TIP3    H241438   0.698   6.378   2.460 -1.4823 -0.5387  0.4670
 6627TIP3   OH241439   3.051   0.111   7.198 -0.1881  0.0385 -0.3761
 6627TIP3    H141440   2.991   0.185   7.191 -0.4740 -0.2595 -1.1817
 6627TIP3    H241441   3.118   0.127   7.132  0.2859  0.0564  0.0980
 6628TIP3   OH241442   0.937   4.451   1.762 -0.2241  0.7592  0.3578
 6628TIP3    H141443   0.872   4.426   1.828  0.2712  1.8352  1.2723
 6628TIP3    H241444   0.907   4.407   1.682  0.1519 -2.0768  1.6439
 6629TIP3   OH241445   6.192   2.486   7.049  0.8152  0.2187  0.1914
 6629TIP3    H141446   6.271   2.530   7.019  1.2571  0.0357  1.0556
 6629TIP3    H241447   6.168   2.531   7.130  0.5948 -0.3606  0.4566
 6630TIP3   OH241448   0.008   3.889   6.235 -0.6581 -0.1713 -0.3671
 6630TIP3    H141449  -0.085   3.899   6.256 -0.7410 -0.8246 -0.4008
 6630TIP3    H241450   0.038   3.978   6.216 -1.1803  0.0965  0.0352
 6631TIP3   OH241451   6.438   6.496   1.848 -0.1173  0.5002 -0.5500
 6631TIP3    H141452   6.499   6.550   1.897  0.0875  0.2495 -0.5323
 6631TIP3    H241453   6.486   6.471   1.769 -0.7382  1.6401 -1.3202
 6632TIP3   OH241454   1.802   6.669   6.729 -0.3313 -0.1769  0.3561
 6632TIP3    H141455   1.852   6.608   6.784 -0.0512  1.1605  1.6557
 6632TIP3    H241456   1.716   6.672   6.770  0.3728  2.1356  1.8909
 6633TIP3   OH241457   2.540   6.845   0.824 -0.8127 -0.9497  0.2502
 6633TIP3    H141458   2.452   6.812   0.840 -1.2967 -0.2365 -0.8088
 6633TIP3    H241459   2.535   6.885   0.736  0.5391 -0.8440  0.2009
 6634TIP3   OH241460   1.883   6.789   7.414  0.1432 -0.6611 -0.6536
 6634TIP3    H141461   1.795   6.762   7.386 -0.7163  0.0400  1.2331
 6634TIP3    H241462   1.885   6.883   7.399  1.1435 -0.8802 -2.0686
 6635TIP3   OH241463   1.178   0.212   7.962  0.5996 -0.0717  0.4928
 6635TIP3    H141464   1.139   0.126   7.945 -1.0245  0.5391  0.9167
 6635TIP3    H241465   1.242   0.197   8.031 -1.8684 -0.5132  2.8611
 6636TIP3   OH241466   1.414   4.005   1.159 -0.2926  0.3196  0.7275
 6636TIP3    H141467   1.322   4.021   1.180 -0.4181  0.4474  0.1005
 6636TIP3    H241468   1.462   4.026   1.239 -0.5809  2.4109  0.3888
 6637TIP3   OH241469   1.682   2.371   0.359  0.0881 -0.1468  0.2882
 6637TIP3    H141470   1.747   2.303   0.342 -2.1231 -2.0335 -1.2711
 6637TIP3    H241471   1.667   2.412   0.274 -0.1762  0.8343  0.7900
 6638TIP3   OH241472   1.107   0.591   6.216  0.5430  0.0666 -0.4691
 6638TIP3    H141473   1.071   0.547   6.139  0.1897 -0.4390 -0.0128
 6638TIP3    H241474   1.163   0.526   6.258  0.3002  0.1600  0.0081
 6639TIP3   OH241475   1.450   1.436   7.278 -0.6976 -0.5312  0.7840
 6639TIP3    H141476   1.507   1.388   7.338  0.9533  0.2305 -0.0982
 6639TIP3    H241477   1.412   1.368   7.222 -0.3824 -1.0271  1.1618
 6640TIP3   OH241478   4.305   4.169   6.997  0.4867 -0.0689 -0.3876
 6640TIP3    H141479   4.359   4.140   6.924  0.7617 -1.9588  0.5043
 6640TIP3    H241480   4.243   4.097   7.011 -0.8225  1.0894  0.0200
 6641TIP3   OH241481   2.560   5.561   1.215 -0.2274 -0.1171 -0.4210
 6641TIP3    H141482   2.500   5.508   1.163  0.5027  0.1909 -1.6000
 6641TIP3    H241483   2.643   5.558   1.167  0.3585  0.4885  0.5239
 6642TIP3   OH241484   3.324   5.029   0.666 -0.2455  0.4144 -0.6910
 6642TIP3    H141485   3.253   5.042   0.602 -1.7606 -0.4884  0.7384
 6642TIP3    H241486   3.374   4.956   0.630 -0.7570  0.2628 -1.1260
 6643TIP3   OH241487   2.885   2.460   7.198  0.4859 -0.0741 -0.1814
 6643TIP3    H141488   2.867   2.367   7.208  2.0928 -0.2974  0.9592
 6643TIP3    H241489   2.884   2.475   7.103 -0.5395 -1.0617 -0.3513
 6644TIP3   OH241490   2.449   5.627   0.692  0.4420 -0.2155 -0.0445
 6644TIP3    H141491   2.520   5.584   0.739  2.4803  0.9157 -1.8721
 6644TIP3    H241492   2.490   5.658   0.611 -1.6048  2.4694 -0.1894
 6645TIP3   OH241493   1.903   3.833   1.611  0.0233  0.1014  0.0257
 6645TIP3    H141494   1.909   3.813   1.704 -1.0377  0.6148  0.2205
 6645TIP3    H241495   1.832   3.897   1.604 -0.0243 -0.0444 -1.1507
 6646TIP3   OH241496   5.449   4.586   0.549  0.2517 -0.1135 -0.4459
 6646TIP3    H141497   5.440   4.681   0.549  0.7659  0.3227  5.5349
 6646TIP3    H241498   5.360   4.553   0.558  0.3228  0.3579  3.0645
 6647TIP3   OH241499   3.354   1.665   2.048  0.3072  0.7149  0.5411
 6647TIP3    H141500   3.329   1.626   2.132 -3.4691  1.7307  0.0527
 6647TIP3    H241501   3.374   1.756   2.068 -0.1021  0.8300  0.4441
 6648TIP3   OH241502   4.264   3.080   2.728  0.1262 -0.3001  0.1318
 6648TIP3    H141503   4.324   3.150   2.703 -1.5661  0.5214 -1.9008
 6648TIP3    H241504   4.293   3.005   2.676  0.7853 -0.5943  0.9037
 6649TIP3   OH241505   3.602   6.635   7.402  0.1072  0.5264  0.3442
 6649TIP3    H141506   3.566   6.561   7.353  1.9345  0.2374 -0.6273
 6649TIP3    H241507   3.524   6.680   7.436 -1.0793 -2.5167  2.1151
 6650TIP3   OH241508   3.892   3.895   8.106 -0.4141 -0.3481  0.5882
 6650TIP3    H141509   3.931   3.875   8.191 -0.3432  2.3495  1.3054
 6650TIP3    H241510   3.798   3.895   8.122 -0.4117 -0.1646  0.6134
 6651TIP3   OH241511   0.194   3.374   0.846  0.0409  0.2336 -0.0777
 6651TIP3    H141512   0.151   3.312   0.904  1.2442 -0.7481 -0.2011
 6651TIP3    H241513   0.201   3.329   0.762 -0.5466  1.1649 -0.6539
 6652TIP3   OH241514   3.439   1.209   5.892 -0.0506 -0.1560  0.4289
 6652TIP3    H141515   3.385   1.261   5.831  2.2048  1.9044  0.0211
 6652TIP3    H241516   3.423   1.250   5.977  0.7931  0.4744  0.3037
 6653TIP3   OH241517   2.900   4.543   0.306 -0.8129  0.3736  0.2953
 6653TIP3    H141518   2.939   4.490   0.236 -1.5504 -2.2741  1.7804
 6653TIP3    H241519   2.974   4.592   0.343  0.6209 -2.1481  0.9812
 6654TIP3   OH241520   5.576   4.237   1.186 -0.0444  0.0746  0.1980
 6654TIP3    H141521   5.667   4.268   1.192  0.1290 -0.6636  1.7425
 6654TIP3    H241522   5.585   4.143   1.171 -0.5803  0.2281 -1.2508
 6655TIP3   OH241523   1.094   2.539   7.860  1.0357  0.4759 -0.0916
 6655TIP3    H141524   1.126   2.515   7.774  1.0914 -1.2348  0.3744
 6655TIP3    H241525   1.171   2.534   7.917  0.8516  0.8458  0.1978
 6656TIP3   OH241526   1.174   1.338   7.428  0.7320 -0.2339 -0.5116
 6656TIP3    H141527   1.213   1.310   7.345 -0.2963 -0.2572 -1.0151
 6656TIP3    H241528   1.079   1.337   7.411  0.5592  1.5194  0.0796
 6657TIP3   OH241529   2.575   1.560   1.519 -0.9104 -0.1301 -0.1923
 6657TIP3    H141530   2.482   1.537   1.514 -0.9707  0.2881 -1.1926
 6657TIP3    H241531   2.598   1.583   1.430 -0.3002  1.5400  0.3684
 6658TIP3   OH241532   4.056   5.116   0.675  0.3654  0.3910  0.0401
 6658TIP3    H141533   4.140   5.133   0.718  0.3494 -1.0988  0.7153
 6658TIP3    H241534   4.029   5.030   0.708 -1.6052  1.0019  0.1119
 6659TIP3   OH241535   0.407   4.620   7.516 -0.2969  0.4500 -0.4126
 6659TIP3    H141536   0.374   4.531   7.503 -0.5558  0.4287  0.3100
 6659TIP3    H241537   0.475   4.611   7.583  0.1972  0.6967 -0.8703
 6660TIP3   OH241538   3.064   1.950   6.890 -0.3772  0.2634 -0.0034
 6660TIP3    H141539   3.135   1.977   6.949 -1.0031 -1.9708  1.9132
 6660TIP3    H241540   2.989   1.935   6.947 -1.2844 -1.1628 -1.4866
 6661TIP3   OH241541   6.466   5.210   8.035 -0.8298 -0.0959 -0.1096
 6661TIP3    H141542   6.372   5.219   8.018 -1.2450 -1.6679  1.1325
 6661TIP3    H241543   6.496   5.148   7.969 -0.4758  0.9858 -0.9936
 6662TIP3   OH241544   4.778   0.937   6.049  0.0275 -0.2599 -0.3766
 6662TIP3    H141545   4.793   0.994   5.973  1.9231  1.4301  1.1370
 6662TIP3    H241546   4.694   0.967   6.085  0.5419  0.9804 -0.1500
 6663TIP3   OH241547   6.248   1.119   1.163 -0.6506  0.9580 -0.1065
 6663TIP3    H141548   6.160   1.148   1.187 -1.5635 -2.9631  2.0370
 6663TIP3    H241549   6.296   1.114   1.246 -0.2793 -2.3185 -0.4109
 6664TIP3   OH241550   6.559   0.311   7.637 -0.1394 -0.1068 -0.0601
 6664TIP3    H141551   6.591   0.289   7.549  0.0878  0.0854 -0.0267
 6664TIP3    H241552   6.639   0.321   7.689 -0.2808 -0.3836  0.2071
 6665TIP3   OH241553   3.795   6.375   7.001  0.6070  0.1981  0.0541
 6665TIP3    H141554   3.756   6.328   6.928  2.1920 -2.1721  0.6164
 6665TIP3    H241555   3.862   6.431   6.961 -0.6038  1.2986 -0.5250
 6666TIP3   OH241556   1.514   6.218   2.035  0.0097  0.2543 -0.7498
 6666TIP3    H141557   1.429   6.237   2.076 -0.2685  1.3092 -1.7675
 6666TIP3    H241558   1.563   6.300   2.043  1.3357 -0.6409  0.7192
 6667TIP3   OH241559   3.033   3.188   8.210  0.1371 -0.2196  0.4660
 6667TIP3    H141560   2.966   3.219   8.150  0.1570 -1.1052 -0.0292
 6667TIP3    H241561   2.984   3.141   8.278  0.1654  0.2006  0.7784
 6668TIP3   OH241562   5.327   2.140   1.687  0.0933 -0.6205  0.0669
 6668TIP3    H141563   5.263   2.088   1.638 -1.4315  2.8884 -2.0424
 6668TIP3    H241564   5.409   2.128   1.638 -0.5677  0.0227 -1.2355
 6669TIP3   OH241565   4.207   4.695   8.088  0.4197 -0.0604 -0.1482
 6669TIP3    H141566   4.125   4.657   8.120 -0.2340  0.6741 -0.8853
 6669TIP3    H241567   4.268   4.622   8.086 -0.6191 -0.9640 -0.9235
 6670TIP3   OH241568   0.880   6.424   7.932  0.0147 -0.4875  0.2092
 6670TIP3    H141569   0.955   6.411   7.874  0.7442 -0.5723  1.1345
 6670TIP3    H241570   0.893   6.360   8.002 -0.1715  0.4203  1.1059
 6671TIP3   OH241571   3.715   4.159   1.838  0.4428  0.0584  0.2832
 6671TIP3    H141572   3.745   4.244   1.870  1.0845 -0.5306  1.2859
 6671TIP3    H241573   3.622   4.156   1.862  1.1757 -0.8915  3.3753
 6672TIP3   OH241574   0.994   1.836   6.851  0.5485 -0.2023  0.2662
 6672TIP3    H141575   0.968   1.901   6.786 -1.0938 -2.5025 -1.5324
 6672TIP3    H241576   1.075   1.798   6.816 -0.2596 -1.3442 -0.4166
 6673TIP3   OH241577   0.686   0.813   0.181  0.6971 -0.1314  0.2208
 6673TIP3    H141578   0.685   0.729   0.226 -0.7380 -0.5113 -0.4666
 6673TIP3    H241579   0.718   0.792   0.093 -0.2521 -0.0892 -0.1474
 6674TIP3   OH241580   4.861   6.134   8.251 -0.8343 -0.3532 -0.6176
 6674TIP3    H141581   4.816   6.165   8.330  2.0927 -0.6163  1.3144
 6674TIP3    H241582   4.806   6.063   8.218 -2.2507 -0.1091  1.0593
 6675TIP3   OH241583   3.092   0.994   7.004  0.1460  0.1960 -0.1467
 6675TIP3    H141584   3.155   1.062   7.028 -0.2259  0.6492 -0.4359
 6675TIP3    H241585   3.111   0.975   6.912  0.5756 -0.4545  0.0681
 6676TIP3   OH241586   6.561   3.598   6.450  0.1443  0.2874  0.1691
 6676TIP3    H141587   6.531   3.581   6.539 -1.8171  0.5032 -0.4071
 6676TIP3    H241588   6.521   3.682   6.427  0.9975  0.4581 -0.7652
 6677TIP3   OH241589   5.521   3.518   1.459 -0.0771  0.6649 -0.2101
 6677TIP3    H141590   5.453   3.532   1.392  0.0332  0.0719 -0.4449
 6677TIP3    H241591   5.548   3.607   1.484 -2.2040  0.9929  1.2074
 6678TIP3   OH241592   5.731   2.402   1.310 -0.7309  0.0582  0.2419
 6678TIP3    H141593   5.714   2.496   1.308 -1.2050 -0.0375 -0.5141
 6678TIP3    H241594   5.748   2.379   1.218 -1.5065 -0.7542  0.2946
 6679TIP3   OH241595   6.437   1.266   1.793  0.0438  0.8371 -0.1069
 6679TIP3    H141596   6.448   1.220   1.709  0.5205 -0.2682  0.5333
 6679TIP3    H241597   6.347   1.249   1.818  0.8662 -2.0043  1.3408
 6680TIP3   OH241598   6.194   5.256   1.072  0.0784  0.2431 -0.2462
 6680TIP3    H141599   6.206   5.345   1.105 -2.7775  0.6759 -0.1101
 6680TIP3    H241600   6.103   5.254   1.042  0.7586 -1.9524 -2.4728
 6681TIP3   OH241601   2.370   6.343   0.509 -0.3374  0.0243 -0.3232
 6681TIP3    H141602   2.302   6.291   0.467  0.6676  1.1163 -3.6321
 6681TIP3    H241603   2.434   6.360   0.439  1.1793  2.6217  1.5028
 6682TIP3   OH241604   3.664   4.054   7.658  0.1661  0.1538 -0.1271
 6682TIP3    H141605   3.715   3.988   7.707  1.8121  1.6627  0.3016
 6682TIP3    H241606   3.688   4.040   7.567 -0.1067 -0.3409 -0.1265
 6683TIP3   OH241607   3.979   3.607   1.496 -0.0183 -0.3188 -0.6176
 6683TIP3    H141608   3.940   3.614   1.583 -2.3233 -0.6509 -1.5520
 6683TIP3    H241609   4.000   3.698   1.472  1.2462 -0.2788  0.4805
 6684TIP3   OH241610   6.105   6.256   2.081 -0.0371  0.0592  0.0198
 6684TIP3    H141611   6.136   6.166   2.067 -0.4181  0.0530 -0.8824
 6684TIP3    H241612   6.183   6.304   2.108  0.2903 -0.4334 -0.0381
 6685TIP3   OH241613   3.108   1.645   6.944  0.0162  0.3437 -0.0857
 6685TIP3    H141614   3.015   1.667   6.929  0.0884  0.4875 -0.3347
 6685TIP3    H241615   3.139   1.713   7.004 -0.3926 -0.4959  1.1082
 6686TIP3   OH241616   1.832   5.309   7.714  0.2686 -0.0202  0.2422
 6686TIP3    H141617   1.904   5.257   7.750  0.2322 -0.2280  0.0198
 6686TIP3    H241618   1.793   5.253   7.647  0.0484  0.1838  0.1973
 6687TIP3   OH241619   5.004   6.373   7.724  0.7948 -0.2955 -0.3937
 6687TIP3    H141620   5.044   6.402   7.806  1.7116 -1.1981 -0.5050
 6687TIP3    H241621   4.912   6.400   7.732  1.0709  0.4386  0.5320
 6688TIP3   OH241622   3.081   5.391   1.691  0.2498 -0.1279  0.6701
 6688TIP3    H141623   3.059   5.412   1.782 -1.5729 -1.5941  0.6260
 6688TIP3    H241624   2.999   5.404   1.643  1.3800  1.4592 -0.9717
 6689TIP3   OH241625   5.750   5.735   0.318  0.1077  0.5140  0.2239
 6689TIP3    H141626   5.804   5.815   0.318  0.1663  0.4769  0.6221
 6689TIP3    H241627   5.677   5.755   0.259  0.0838  0.8892  0.3774
 6690TIP3   OH241628   5.780   1.633   0.693  0.4549  0.1446 -0.1594
 6690TIP3    H141629   5.784   1.639   0.598 -0.0901 -2.7843 -0.4573
 6690TIP3    H241630   5.694   1.668   0.715  0.2147 -0.0008 -0.8448
 6691TIP3   OH241631   2.281   4.487   2.028 -0.3329 -0.2692  0.2717
 6691TIP3    H141632   2.193   4.493   1.989 -0.5411  0.5313  0.8325
 6691TIP3    H241633   2.279   4.550   2.100  1.0786  0.6421 -0.4453
 6692TIP3   OH241634   1.236   5.138   7.591  0.0332 -0.5162 -0.5390
 6692TIP3    H141635   1.224   5.061   7.534 -0.3068 -2.1548  1.6051
 6692TIP3    H241636   1.195   5.112   7.674  0.2474  1.8783  0.3785
 6693TIP3   OH241637   4.027   3.580   6.780  0.0243  0.4974 -0.1750
 6693TIP3    H141638   4.043   3.638   6.706  0.3950  1.1266  0.3823
 6693TIP3    H241639   3.975   3.632   6.841 -1.8851 -0.6168 -0.7581
 6694TIP3   OH241640   1.365   1.298   1.059  0.0895 -0.2355  0.1343
 6694TIP3    H141641   1.455   1.322   1.035  0.6775  0.2780  2.5754
 6694TIP3    H241642   1.365   1.299   1.155 -2.3698 -0.8799  0.2005
 6695TIP3   OH241643   6.508   6.828   6.468  1.5278  0.6472  0.4505
 6695TIP3    H141644   6.532   6.802   6.379 -0.1451  0.7934 -0.0624
 6695TIP3    H241645   6.570   6.781   6.524  0.2613 -2.4597 -0.5661
 6696TIP3   OH241646   2.253   5.088   0.746 -0.2247  0.1129 -0.0577
 6696TIP3    H141647   2.275   5.169   0.792  1.2968  0.9644 -2.1121
 6696TIP3    H241648   2.158   5.090   0.737 -0.1246  2.3979 -1.2447
 6697TIP3   OH241649   5.389   3.167   8.038  0.0649  0.8911 -0.4774
 6697TIP3    H141650   5.311   3.190   8.090 -1.9364 -1.2706 -2.2800
 6697TIP3    H241651   5.382   3.220   7.960  0.3496  0.6319 -0.6818
 6698TIP3   OH241652   0.205   3.192   8.141 -0.2945 -0.6640 -0.3692
 6698TIP3    H141653   0.216   3.284   8.166 -0.4480 -0.8211  0.3039
 6698TIP3    H241654   0.240   3.187   8.053 -1.1704  0.2532 -0.7936
 6699TIP3   OH241655   0.683   3.903   7.158  0.5764 -0.3818  0.1176
 6699TIP3    H141656   0.589   3.921   7.149  0.6976 -0.3866 -1.2822
 6699TIP3    H241657   0.724   3.988   7.147  0.8213 -0.6167 -0.8101
 6700TIP3   OH241658   4.372   5.857   0.552  0.2455  0.0420  0.0295
 6700TIP3    H141659   4.337   5.849   0.641  0.7913  2.0446  0.4806
 6700TIP3    H241660   4.338   5.941   0.521 -1.0954 -1.2535 -2.2257
 6701TIP3   OH241661   1.137   2.841   7.867  0.3378  0.4565  0.0827
 6701TIP3    H141662   1.147   2.848   7.962 -1.1339  2.2867  0.1598
 6701TIP3    H241663   1.078   2.766   7.854 -0.9828  1.3337  0.7720
 6702TIP3   OH241664   6.916   5.666   6.688  0.3581 -0.6102  0.2137
 6702TIP3    H141665   6.996   5.614   6.698 -0.1231 -2.0638 -2.5682
 6702TIP3    H241666   6.858   5.611   6.636 -2.6871  0.2433  2.3873
 6703TIP3   OH241667   3.874   4.687   2.083  0.0839  0.1728 -0.1178
 6703TIP3    H141668   3.803   4.628   2.055 -0.4315  0.7032  0.0594
 6703TIP3    H241669   3.893   4.661   2.173 -0.2697  0.4018  0.0223
 6704TIP3   OH241670   5.632   0.767   7.446 -0.3572  0.5027 -0.3080
 6704TIP3    H141671   5.617   0.718   7.527 -1.3338  2.3738  0.7015
 6704TIP3    H241672   5.603   0.708   7.377 -0.8957 -0.5901  0.8130
 6705TIP3   OH241673   5.354   2.219   0.099  0.4879 -0.8706 -0.1202
 6705TIP3    H141674   5.400   2.255   0.175  0.4709 -3.0684  1.0176
 6705TIP3    H241675   5.327   2.296   0.049  1.0276  0.6474  1.7816
 6706TIP3   OH241676   2.970   3.339   6.850 -0.3325  0.3019 -0.2721
 6706TIP3    H141677   2.991   3.397   6.777  1.4435  0.3813  0.2727
 6706TIP3    H241678   2.973   3.394   6.928 -0.2005 -0.1992  0.0835
 6707TIP3   OH241679   4.789   1.282   1.964 -0.0136 -0.3364  0.4703
 6707TIP3    H141680   4.807   1.204   2.016  1.2260  0.8515  1.9213
 6707TIP3    H241681   4.866   1.336   1.975 -1.0831  1.3597 -0.0101
 6708TIP3   OH241682   2.241   6.945   6.339 -0.3010  0.7217 -0.0344
 6708TIP3    H141683   2.306   6.882   6.368 -1.7444 -0.2512  1.2396
 6708TIP3    H241684   2.219   6.918   6.250  1.2476  1.2850 -0.6175
 6709TIP3   OH241685   1.199   3.536   7.803  0.0399  0.1380  0.1773
 6709TIP3    H141686   1.175   3.525   7.895 -2.0437  2.1821 -0.0195
 6709TIP3    H241687   1.142   3.606   7.772 -0.1273 -1.2159 -2.9698
 6710TIP3   OH241688   3.067   0.494   0.017  0.0152 -0.3181  0.1885
 6710TIP3    H141689   3.105   0.580   0.035  1.8759 -0.9666 -0.4340
 6710TIP3    H241690   3.092   0.474  -0.073 -0.8495 -1.2941  0.1349
 6711TIP3   OH241691   5.338   6.263   1.382  0.2339  0.9471  0.4185
 6711TIP3    H141692   5.321   6.216   1.464 -0.2840  2.1983  1.0663
 6711TIP3    H241693   5.428   6.239   1.359  0.0802 -0.1113  0.8765
 6712TIP3   OH241694   0.270   0.145   6.620 -0.1341  0.2202  0.1349
 6712TIP3    H141695   0.344   0.118   6.565 -0.3725 -0.7149  0.2642
 6712TIP3    H241696   0.285   0.101   6.704 -0.2304  0.9520  0.5499
 6713TIP3   OH241697   5.407   5.948   1.232 -0.4828  0.2444 -0.3929
 6713TIP3    H141698   5.403   5.872   1.290 -1.1040  0.9840  0.5661
 6713TIP3    H241699   5.316   5.973   1.217 -0.2804  1.1020 -0.2696
 6714TIP3   OH241700   4.747   2.980   1.673  0.5414 -0.0721 -0.7519
 6714TIP3    H141701   4.666   3.015   1.636 -0.4217  0.8511  1.9783
 6714TIP3    H241702   4.722   2.894   1.708  0.4510  0.5525  0.8195
 6715TIP3   OH241703   1.711   4.548   1.855  0.3169 -0.0392 -0.2417
 6715TIP3    H141704   1.753   4.612   1.797 -0.7967 -0.9268 -2.1289
 6715TIP3    H241705   1.618   4.570   1.850 -0.0349 -1.5440 -0.6237
 6716TIP3   OH241706   0.206   3.360   7.324 -0.3781 -0.3771 -0.3499
 6716TIP3    H141707   0.240   3.277   7.357 -0.0800 -0.9042 -1.9087
 6716TIP3    H241708   0.246   3.371   7.238  1.1924  2.4178  0.6140
 6717TIP3   OH241709   4.855   5.508   6.487  0.5232  0.1491 -0.1157
 6717TIP3    H141710   4.902   5.561   6.551  2.1154 -1.5544  0.2257
 6717TIP3    H241711   4.814   5.439   6.540 -1.3841  0.8856 -0.5554
 6718TIP3   OH241712   4.389   5.419   7.442 -0.0316 -0.8519 -0.2122
 6718TIP3    H141713   4.375   5.399   7.535  0.8965  1.7015  0.5642
 6718TIP3    H241714   4.482   5.402   7.428  0.0189 -0.4146 -0.4263
 6719TIP3   OH241715   4.772   5.153   0.906 -0.4799 -0.0365  0.0995
 6719TIP3    H141716   4.829   5.227   0.927 -2.1232  1.2297  0.2314
 6719TIP3    H241717   4.785   5.092   0.979  0.0549  0.6218  0.5715
 6720TIP3   OH241718   4.087   5.466   7.155 -0.0569  0.4406 -0.0690
 6720TIP3    H141719   4.135   5.549   7.160 -1.1572  1.0442  2.5884
 6720TIP3    H241720   4.084   5.445   7.062  1.2873  2.7705 -0.7186
 6721TIP3   OH241721   5.890   3.183   0.218  0.3061  0.1160  0.0098
 6721TIP3    H141722   5.981   3.210   0.212  0.6063 -0.7410  0.6026
 6721TIP3    H241723   5.859   3.184   0.128  0.6004  1.3812 -0.0985
 6722TIP3   OH241724   5.003   2.083   7.652 -0.3039 -0.2681  0.3242
 6722TIP3    H141725   5.037   2.149   7.712 -0.0689  0.4072 -0.5324
 6722TIP3    H241726   4.981   2.132   7.573 -0.2283 -1.1999 -0.2837
 6723TIP3   OH241727   1.805   4.959   1.874 -0.0021  0.3588 -0.3571
 6723TIP3    H141728   1.753   5.009   1.937  0.7343  0.6913  0.0091
 6723TIP3    H241729   1.837   5.025   1.812 -0.5405  0.0653 -0.9491
 6724TIP3   OH241730   5.536   4.739   5.971  0.1994 -0.1226 -0.3619
 6724TIP3    H141731   5.580   4.715   6.053 -0.4354 -0.5913 -0.1549
 6724TIP3    H241732   5.560   4.670   5.910  0.8021  0.3093 -0.6338
 6725TIP3   OH241733   4.694   4.932   1.900 -0.1385  0.4903 -0.5064
 6725TIP3    H141734   4.703   4.928   1.805 -1.5576  1.1061 -0.6912
 6725TIP3    H241735   4.725   5.020   1.923 -0.8242  0.7454 -0.5400
 6726TIP3   OH241736   4.910   4.915   0.989  0.3434 -0.1983 -0.2677
 6726TIP3    H141737   4.963   4.931   1.067  0.8975  0.8901 -0.8444
 6726TIP3    H241738   4.973   4.885   0.924  0.6974  2.9088 -1.5486
 6727TIP3   OH241739   0.672   5.269   1.620 -0.1768  0.2146  0.1313
 6727TIP3    H141740   0.669   5.355   1.578 -1.6380 -0.3696 -1.0056
 6727TIP3    H241741   0.764   5.243   1.613  0.3117  1.7016  0.5794
 6728TIP3   OH241742   3.240   5.458   7.472 -0.3964  0.2256 -0.1401
 6728TIP3    H141743   3.303   5.526   7.447  0.0485 -0.7354 -1.7600
 6728TIP3    H241744   3.198   5.433   7.389 -0.7790 -1.2519  0.4817
 6729TIP3   OH241745   1.285   6.216   6.538  0.1164  0.0220 -0.1860
 6729TIP3    H141746   1.367   6.168   6.521  0.1569  0.3304 -0.9230
 6729TIP3    H241747   1.249   6.231   6.450 -0.3956  0.4683  0.1024
 6730TIP3   OH241748   6.269   0.993   0.928  0.1466  0.1166  0.2773
 6730TIP3    H141749   6.259   1.031   1.015 -1.5238 -0.6491  0.4406
 6730TIP3    H241750   6.201   1.034   0.875  0.3999 -0.2775 -0.3707
 6731TIP3   OH241751   6.967   1.234   0.308  0.4551 -0.4775 -0.2699
 6731TIP3    H141752   7.021   1.162   0.340 -0.2344 -0.6723  0.4995
 6731TIP3    H241753   6.971   1.299   0.378 -1.0409 -0.8903  0.2331
 6732TIP3   OH241754   3.349   3.577   0.083 -0.7690 -0.3614  0.1367
 6732TIP3    H141755   3.279   3.530   0.038 -0.7962  1.1334 -1.4642
 6732TIP3    H241756   3.321   3.668   0.083  1.4416  0.3984 -1.1575
 6733TIP3   OH241757   0.831   1.927   1.452 -0.1582 -0.6195 -0.0618
 6733TIP3    H141758   0.867   2.010   1.419 -0.0865 -0.4728  0.3770
 6733TIP3    H241759   0.767   1.954   1.517  0.2160 -0.9196  0.4328
 6734TIP3   OH241760   0.853   4.724   7.740  0.3411 -0.7896  0.5171
 6734TIP3    H141761   0.887   4.721   7.829  0.1950 -1.0920  0.5638
 6734TIP3    H241762   0.929   4.704   7.685  0.6102  0.1339  0.5205
 6735TIP3   OH241763   1.359   0.073   8.172 -0.1512  0.3849 -0.2272
 6735TIP3    H141764   1.319  -0.002   8.129 -1.3592  0.0818  1.3386
 6735TIP3    H241765   1.435   0.037   8.217  0.1680  0.3974 -0.7529
 6736TIP3   OH241766   4.771   3.242   1.752 -0.0794 -0.3951 -0.0702
 6736TIP3    H141767   4.769   3.148   1.734 -0.5247 -0.4824  0.3792
 6736TIP3    H241768   4.679   3.270   1.743 -0.7000 -0.7670  3.4451
 6737TIP3   OH241769   1.725   4.769   0.057 -0.6421 -0.8114 -0.4869
 6737TIP3    H141770   1.801   4.823   0.078 -1.0989  0.1685 -1.2902
 6737TIP3    H241771   1.707   4.721   0.138 -0.1290  0.1178  0.1922
 6738TIP3   OH241772   1.298   0.325   8.217  0.1661  0.5228  0.3309
 6738TIP3    H141773   1.343   0.241   8.204 -2.5656 -1.0762  0.4402
 6738TIP3    H241774   1.245   0.312   8.296 -0.8942  2.0840 -0.0755
 6739TIP3   OH241775   2.254   5.184   7.667 -0.1531  0.0395  0.5307
 6739TIP3    H141776   2.298   5.168   7.583 -0.2272  2.9096 -0.1629
 6739TIP3    H241777   2.274   5.106   7.719  3.4302 -0.0811 -0.7109
 6740TIP3   OH241778   4.964   6.591   8.044 -0.0419 -0.4626  0.3271
 6740TIP3    H141779   5.053   6.588   8.077  0.1327 -0.2310 -0.1082
 6740TIP3    H241780   4.909   6.578   8.121  0.3577 -0.0668  0.6859
 6741TIP3   OH241781   5.126   2.010   0.334  0.0413  0.0706 -0.2213
 6741TIP3    H141782   5.045   2.045   0.371 -0.1205 -0.3111 -0.2130
 6741TIP3    H241783   5.122   1.916   0.353  1.5631  0.3553  1.8800
 6742TIP3   OH241784   4.300   4.627   1.207 -0.0360 -0.1976 -0.2240
 6742TIP3    H141785   4.216   4.599   1.244  0.0990  0.2128  0.3925
 6742TIP3    H241786   4.352   4.546   1.202 -0.5754 -0.5166 -0.9257
 6743TIP3   OH241787   3.594   5.836   0.319 -0.0260 -0.5744  0.5738
 6743TIP3    H141788   3.500   5.833   0.334 -0.0445 -1.0888  0.3597
 6743TIP3    H241789   3.605   5.820   0.226  0.2174  0.5113  0.4021
 6744TIP3   OH241790   3.841   3.424   0.804 -0.1467 -0.2846  0.2505
 6744TIP3    H141791   3.874   3.334   0.804 -0.2436 -0.3203  0.1827
 6744TIP3    H241792   3.756   3.418   0.760 -0.8071 -0.3909  1.5154
 6745TIP3   OH241793   6.089   6.072   0.102  0.0829 -0.2812 -0.3114
 6745TIP3    H141794   6.174   6.033   0.125 -0.2461 -0.5924  0.4085
 6745TIP3    H241795   6.110   6.163   0.081  0.4853 -0.1075  0.7619
 6746TIP3   OH241796   2.103   0.825   7.582 -0.1419  0.9057  0.3824
 6746TIP3    H141797   2.106   0.805   7.675  1.4343  1.5304  0.5008
 6746TIP3    H241798   2.012   0.809   7.557  0.0159 -2.1030  1.3508
 6747TIP3   OH241799   4.583   1.509   1.761 -0.3320  0.3330  0.8002
 6747TIP3    H141800   4.513   1.461   1.805 -1.9182  1.7540 -0.0313
 6747TIP3    H241801   4.538   1.579   1.714  1.4305  0.0663 -1.5061
 6748TIP3   OH241802   6.901   2.876   7.654  0.3653 -0.1334  0.6057
 6748TIP3    H141803   6.960   2.890   7.580 -0.1759 -0.3571  0.1295
 6748TIP3    H241804   6.956   2.832   7.719  0.4628 -1.3078 -0.2389
 6749TIP3   OH241805   3.048   5.801   7.972 -0.0453  0.6239  0.2940
 6749TIP3    H141806   3.126   5.827   8.021 -0.7585  1.8376  0.8501
 6749TIP3    H241807   3.026   5.714   8.006  0.5488  0.6550  0.7806
 6750TIP3   OH241808   6.899   6.521   7.414 -0.4467  0.0158 -0.2702
 6750TIP3    H141809   6.897   6.463   7.490 -0.5730 -1.4696 -1.3668
 6750TIP3    H241810   6.935   6.467   7.343 -0.3405  1.3527 -1.2766
 6751TIP3   OH241811   4.687   2.935   8.305  0.8155 -0.0047  0.7081
 6751TIP3    H141812   4.610   2.992   8.294  1.5054  0.5931 -1.7035
 6751TIP3    H241813   4.668   2.858   8.252  2.3555  0.7645 -1.1113
 6752TIP3   OH241814   5.807   0.998   7.720  0.2570  0.2878 -0.2385
 6752TIP3    H141815   5.827   1.090   7.733  1.3054  0.1374 -0.7145
 6752TIP3    H241816   5.886   0.961   7.681  0.2197 -1.0244  0.8550
 6753TIP3   OH241817   6.041   1.452   5.874 -0.6335  0.4269  0.0595
 6753TIP3    H141818   6.034   1.365   5.914 -0.4876  0.6258  0.5115
 6753TIP3    H241819   5.974   1.451   5.805 -0.1414 -0.3013 -0.4148
 6754TIP3   OH241820   2.826   3.986   7.633  0.1791  0.0653  0.4128
 6754TIP3    H141821   2.859   4.076   7.627  2.1059 -0.5345  1.4145
 6754TIP3    H241822   2.878   3.937   7.570 -1.2584 -0.2931 -0.5522
 6755TIP3   OH241823   2.657   6.528   6.304 -0.3024  0.4285 -0.3254
 6755TIP3    H141824   2.584   6.482   6.261 -0.0375 -0.4063  0.1192
 6755TIP3    H241825   2.616   6.607   6.340 -1.1146 -0.3107  0.4166
 6756TIP3   OH241826   3.541   3.641   7.012 -0.0927  0.2550  0.3063
 6756TIP3    H141827   3.580   3.665   6.928  0.9071 -1.2415  0.3093
 6756TIP3    H241828   3.560   3.548   7.022 -1.5628  0.0432  1.4787
 6757TIP3   OH241829   2.021   4.036   7.503 -0.3164 -0.4830  0.5577
 6757TIP3    H141830   2.043   4.121   7.540  1.3432 -1.3605  1.7696
 6757TIP3    H241831   2.061   3.973   7.563 -1.0040 -2.1063 -0.6026
 6758TIP3   OH241832   4.399   6.855   0.546  0.2960 -0.6784  0.3320
 6758TIP3    H141833   4.418   6.906   0.467 -2.2550 -1.1162 -0.6349
 6758TIP3    H241834   4.418   6.764   0.521  1.2415 -0.6467  0.8616
 6759TIP3   OH241835   5.141   2.026   8.221  0.2161 -0.0853 -0.5536
 6759TIP3    H141836   5.109   1.996   8.136 -0.1646  0.7139 -0.7058
 6759TIP3    H241837   5.202   2.097   8.201 -0.9383  1.0661 -0.1377
 6760TIP3   OH241838   6.297   4.629   6.013  0.6473 -0.4500 -0.2239
 6760TIP3    H141839   6.273   4.719   5.995  1.5697  0.0783  1.0035
 6760TIP3    H241840   6.223   4.577   5.983  0.6643  0.5919 -2.1912
 6761TIP3   OH241841   3.967   3.612   0.282  0.2098 -0.0883 -0.0497
 6761TIP3    H141842   3.953   3.573   0.195  1.1712 -1.2191  0.2697
 6761TIP3    H241843   3.880   3.628   0.316 -0.1891 -0.4714 -0.8629
 6762TIP3   OH241844   3.653   1.246   0.774 -0.0165 -0.3694 -0.4578
 6762TIP3    H141845   3.734   1.223   0.819 -0.9424 -1.8958  0.4846
 6762TIP3    H241846   3.682   1.297   0.698  1.6700  1.0271  1.0339
 6763TIP3   OH241847   2.462   6.373   8.309 -0.0227  0.1323 -0.0691
 6763TIP3    H141848   2.468   6.446   8.248 -1.8777  1.5990  1.3533
 6763TIP3    H241849   2.380   6.329   8.286 -0.8250  0.7906  1.3421
 6764TIP3   OH241850   0.291   0.649   6.948 -0.9881 -0.0862 -0.0762
 6764TIP3    H141851   0.287   0.704   7.026  0.7544 -0.7452  0.5203
 6764TIP3    H241852   0.382   0.619   6.944 -0.8633  0.4514 -2.7476
 6765TIP3   OH241853   3.293   3.164   1.866 -0.5874 -0.2364 -0.3768
 6765TIP3    H141854   3.200   3.150   1.884 -0.3563 -0.4821  0.7489
 6765TIP3    H241855   3.336   3.084   1.897  0.2026  0.6994  1.0818
 6766TIP3   OH241856   3.022   4.088   0.328  0.3476  0.2718 -0.1955
 6766TIP3    H141857   2.930   4.114   0.324  0.8601  2.2571 -0.1570
 6766TIP3    H241858   3.042   4.083   0.421  0.1365 -0.8390 -0.1910
 6767TIP3   OH241859   1.492   4.123   7.023  0.2005  0.4028  0.1854
 6767TIP3    H141860   1.399   4.106   7.038  0.2257  1.2315  1.3561
 6767TIP3    H241861   1.509   4.085   6.937 -0.0724 -4.0866  1.8591
 6768TIP3   OH241862   3.924   2.125   1.993  0.3693  0.3406 -0.5602
 6768TIP3    H141863   3.850   2.067   2.007 -0.7413  2.0835  1.2767
 6768TIP3    H241864   4.001   2.069   2.006 -0.6131 -1.0579 -0.5194
 6769TIP3   OH241865   1.806   5.556   1.943  0.1018  0.1457  0.8137
 6769TIP3    H141866   1.819   5.581   2.035 -1.2182  1.5100  0.6640
 6769TIP3    H241867   1.894   5.535   1.912  0.8166  1.2798  1.9396
 6770TIP3   OH241868   3.130   6.217   0.673  0.3117 -0.8400  0.5618
 6770TIP3    H141869   3.222   6.232   0.648  0.2504 -1.2413  0.0706
 6770TIP3    H241870   3.080   6.255   0.601  0.0932 -0.6757  0.8017
 6771TIP3   OH241871   0.084   5.522   0.099  0.1960  0.2294 -0.3668
 6771TIP3    H141872   0.109   5.518   0.006 -1.7173 -0.3934 -0.8967
 6771TIP3    H241873   0.026   5.598   0.105 -0.3969 -0.2537  0.1276
 6772TIP3   OH241874   6.093   0.806   7.819  0.5978  0.9990 -0.3159
 6772TIP3    H141875   6.115   0.742   7.886 -0.5499  0.0304 -0.8454
 6772TIP3    H241876   6.157   0.876   7.832  1.8506 -0.2107  0.3079
 6773TIP3   OH241877   4.988   1.826   2.206 -0.1823  0.0761 -0.2966
 6773TIP3    H141878   5.007   1.855   2.295  0.4908 -1.0341 -0.0499
 6773TIP3    H241879   4.898   1.794   2.210  1.0311 -3.8129  1.1421
 6774TIP3   OH241880   1.317   4.936   0.841  0.0216  0.4607  0.5384
 6774TIP3    H141881   1.338   5.029   0.839 -0.6754  0.6428  1.1850
 6774TIP3    H241882   1.379   4.898   0.903  0.1221  0.5397  0.4872
 6775TIP3   OH241883   4.073   6.929   6.757  0.2594 -0.0138  0.2238
 6775TIP3    H141884   4.102   6.855   6.703 -1.0512  0.0276 -0.5708
 6775TIP3    H241885   4.139   6.936   6.825  0.1295 -2.2730  0.6345
 6776TIP3   OH241886   4.557   3.812   0.938 -0.0971 -0.2666 -0.3125
 6776TIP3    H141887   4.607   3.854   0.868 -0.5292 -0.0582 -0.5022
 6776TIP3    H241888   4.483   3.871   0.953  0.1063 -0.2008  0.4721
 6777TIP3   OH241889   1.631   3.095   7.347 -0.2816 -0.4380 -0.1035
 6777TIP3    H141890   1.619   3.172   7.293  0.3510 -0.6353 -0.5426
 6777TIP3    H241891   1.698   3.044   7.301  1.8269  0.3697  1.8897
 6778TIP3   OH241892   4.172   0.555   6.203 -0.0045 -0.3560  0.5001
 6778TIP3    H141893   4.147   0.622   6.266  0.3866 -0.5707  0.8836
 6778TIP3    H241894   4.225   0.493   6.253  1.8762  0.4264 -0.4366
 6779TIP3   OH241895   6.968   3.686   8.296 -0.1946 -0.2485 -0.2072
 6779TIP3    H141896   7.042   3.744   8.315  0.9628 -1.9151  0.6868
 6779TIP3    H241897   6.931   3.664   8.381 -0.6162 -0.7873 -0.5185
 6780TIP3   OH241898   0.981   5.164   0.400  0.0287  0.3890  0.4212
 6780TIP3    H141899   1.065   5.188   0.439  0.1530  0.1781  0.2853
 6780TIP3    H241900   0.943   5.247   0.371 -0.0763  0.5522  1.0126
 6781TIP3   OH241901   4.564   4.262   1.890 -0.7381  0.4797  0.3085
 6781TIP3    H141902   4.488   4.300   1.935 -1.1141  2.1464 -1.6224
 6781TIP3    H241903   4.633   4.326   1.901  0.2944 -0.7756  1.5571
 6782TIP3   OH241904   5.066   5.995   6.660 -0.3799  0.1981  0.0828
 6782TIP3    H141905   5.123   6.023   6.732  0.6248 -1.0127 -0.2137
 6782TIP3    H241906   5.109   6.028   6.581 -0.4383 -0.1426 -0.0941
 6783TIP3   OH241907   5.226   1.237   0.919  0.1753  0.2728 -0.1474
 6783TIP3    H141908   5.308   1.190   0.935  0.4935  0.7847 -0.2604
 6783TIP3    H241909   5.244   1.327   0.947  0.2680  0.8508 -1.9361
 6784TIP3   OH241910   3.538   3.360   0.719  0.3035  0.1107  0.0179
 6784TIP3    H141911   3.476   3.338   0.788  1.2022  2.6376  1.8041
 6784TIP3    H241912   3.550   3.455   0.728  2.5021  0.0864 -1.8760
 6785TIP3   OH241913   0.532   0.653   7.434 -0.1051 -0.8218 -0.4391
 6785TIP3    H141914   0.618   0.686   7.458  0.0606 -0.4076 -1.5417
 6785TIP3    H241915   0.471   0.708   7.484  0.2589 -1.2896  0.5446
 6786TIP3   OH241916   4.908   4.796   1.551  0.0130  0.2174  0.0169
 6786TIP3    H141917   4.820   4.783   1.586  0.4317 -0.0935  0.9791
 6786TIP3    H241918   4.916   4.732   1.481 -0.0100 -0.7686  0.8979
 6787TIP3   OH241919   4.290   4.333   1.432 -0.4864  0.0716 -0.0190
 6787TIP3    H141920   4.300   4.313   1.524  1.3705 -1.5144 -0.5210
 6787TIP3    H241921   4.367   4.386   1.409  1.0981 -2.6219 -1.3982
 6788TIP3   OH241922   6.735   2.262   0.723  0.1989  0.1764 -0.3353
 6788TIP3    H141923   6.684   2.215   0.789  0.5046 -1.3834 -1.1638
 6788TIP3    H241924   6.813   2.292   0.770 -0.5077  0.8309  0.4591
 6789TIP3   OH241925   0.661   3.852   7.521 -0.2313 -0.1568  0.0933
 6789TIP3    H141926   0.653   3.899   7.439  0.9817  0.4058  0.2677
 6789TIP3    H241927   0.713   3.774   7.499  0.5705  0.2733  0.4067
 6790TIP3   OH241928   2.392   0.865   1.463 -0.3249 -0.1456  0.0863
 6790TIP3    H141929   2.385   0.816   1.545  0.7670  1.2427  1.0559
 6790TIP3    H241930   2.301   0.886   1.441 -0.6078  0.0556  1.3360
 6791TIP3   OH241931   1.842   2.792   7.387 -0.0147 -0.0148 -0.0608
 6791TIP3    H141932   1.916   2.771   7.444 -0.2385  1.4697  0.8563
 6791TIP3    H241933   1.769   2.805   7.448 -0.3490  1.2832 -0.7071
 6792TIP3   OH241934   3.157   4.746   7.287  0.4807  0.8298  0.2288
 6792TIP3    H141935   3.245   4.782   7.286  0.6463  0.4456  0.7419
 6792TIP3    H241936   3.100   4.823   7.288  0.7893  1.0873 -0.6539
 6793TIP3   OH241937   0.484   6.173   6.809 -0.2717  0.0314  0.0682
 6793TIP3    H141938   0.511   6.250   6.759 -2.9919  0.6117 -0.6589
 6793TIP3    H241939   0.447   6.208   6.889  0.2543 -0.6708  0.6365
 6794TIP3   OH241940   1.716   4.328   1.139 -0.1400  0.7870  0.0490
 6794TIP3    H141941   1.778   4.363   1.203 -0.1362 -0.0278  0.5024
 6794TIP3    H241942   1.643   4.295   1.191 -0.4515  0.7346 -0.4103
 6795TIP3   OH241943   1.335   5.971   2.657 -0.0000 -0.5550 -0.4923
 6795TIP3    H141944   1.263   5.919   2.623 -1.6012  1.0375  0.3046
 6795TIP3    H241945   1.320   6.059   2.623  1.2506 -0.0644  0.1409
 6796TIP3   OH241946   5.943   2.667   1.070 -0.0935  0.3394  0.0948
 6796TIP3    H141947   6.036   2.689   1.064 -0.2109  0.9214  0.3242
 6796TIP3    H241948   5.942   2.572   1.076  0.5307  0.3591  0.7350
 6797TIP3   OH241949   3.919   0.523   7.122 -0.2810  0.2428  0.1852
 6797TIP3    H141950   3.866   0.494   7.047 -0.0098 -0.3967  0.2365
 6797TIP3    H241951   3.998   0.469   7.118 -0.2884  0.1702  0.9612
 6798TIP3   OH241952   0.151   5.202   0.503  0.1138  0.1290  0.0900
 6798TIP3    H141953   0.100   5.249   0.569 -0.5689 -0.8575  0.2993
 6798TIP3    H241954   0.128   5.243   0.420 -0.0127  0.5521  0.3313
 6799TIP3   OH241955   2.803   6.864   0.009  0.1790  0.6910 -0.6392
 6799TIP3    H141956   2.863   6.838   0.079  0.0868 -2.0921 -1.4619
 6799TIP3    H241957   2.717   6.836   0.038 -0.0867  0.8473 -1.2477
 6800TIP3   OH241958   6.417   5.106   5.943  0.1848 -0.0017 -0.0979
 6800TIP3    H141959   6.381   5.193   5.930 -0.9442 -0.5265 -0.6751
 6800TIP3    H241960   6.492   5.102   5.883  1.4019  1.1667  1.2565
 6801TIP3   OH241961   1.315   3.766   0.908  0.4076  0.7333  0.7752
 6801TIP3    H141962   1.349   3.797   0.992  2.7464 -1.2671  0.6606
 6801TIP3    H241963   1.385   3.712   0.871 -1.1718  0.2034 -1.7360
 6802TIP3   OH241964   6.390   1.680   7.003  0.0535  0.2302 -0.6941
 6802TIP3    H141965   6.421   1.619   7.070 -0.5899  0.4314 -0.2022
 6802TIP3    H241966   6.304   1.645   6.978 -0.4364  1.0603 -0.2233
 6803TIP3   OH241967   6.799   2.276   2.008  0.1189 -0.1391  0.1372
 6803TIP3    H141968   6.751   2.335   1.949  0.3214 -0.7272 -0.6277
 6803TIP3    H241969   6.811   2.328   2.087  1.2670  1.2798 -0.9039
 6804TIP3   OH241970   1.469   3.860   7.651  0.1267  0.5917 -0.2496
 6804TIP3    H141971   1.415   3.939   7.654 -1.7450 -0.6218 -0.6588
 6804TIP3    H241972   1.435   3.809   7.578  0.8391 -0.9266  0.4214
 6805TIP3   OH241973   5.535   6.512   8.299  0.4100 -0.0509  0.2046
 6805TIP3    H141974   5.611   6.520   8.358 -0.5504  0.2617  1.4411
 6805TIP3    H241975   5.492   6.431   8.326 -0.6328  0.6385  0.6651
 6806TIP3   OH241976   3.362   1.765   0.331  0.7932  0.2502 -0.5161
 6806TIP3    H141977   3.408   1.849   0.323 -0.3370  1.0109  0.5837
 6806TIP3    H241978   3.416   1.714   0.392 -0.2084  1.4786  1.4913
 6807TIP3   OH241979   5.795   1.345   7.017  0.2270 -1.0012  0.0576
 6807TIP3    H141980   5.725   1.331   7.081  1.3447 -1.7375  1.1758
 6807TIP3    H241981   5.757   1.403   6.951 -0.4536  1.4297  2.3904
 6808TIP3   OH241982   0.435   0.688   2.295 -0.1154  0.0456 -0.0221
 6808TIP3    H141983   0.351   0.723   2.266  0.7149  0.9663 -1.4495
 6808TIP3    H241984   0.422   0.593   2.298 -0.6956  0.0022 -2.0807
 6809TIP3   OH241985   3.402   6.855   7.719  0.1363 -0.3484 -0.4689
 6809TIP3    H141986   3.368   6.880   7.633 -0.8346 -0.4980 -0.1423
 6809TIP3    H241987   3.496   6.843   7.705 -0.1458 -1.2563 -1.7143
 6810TIP3   OH241988   3.188   3.785   0.000  0.6969 -0.0611  1.0500
 6810TIP3    H141989   3.204   3.867   0.047 -0.8765  0.8220  0.1068
 6810TIP3    H241990   3.105   3.798  -0.044  0.8734 -1.8366  0.1046
 6811TIP3   OH241991   0.991   2.839   7.271  0.0990  0.5597  0.4821
 6811TIP3    H141992   1.010   2.761   7.220  0.5053 -0.7806  2.5359
 6811TIP3    H241993   1.018   2.912   7.216  0.4433 -0.7747 -1.1912
 6812TIP3   OH241994   5.712   6.582   1.460  0.5232  0.4897 -0.1854
 6812TIP3    H141995   5.658   6.562   1.537  1.6492 -0.2554  0.4441
 6812TIP3    H241996   5.689   6.672   1.436 -0.5789  0.3756  0.3999
 6813TIP3   OH241997   2.129   6.623   1.930  0.2061  0.1717 -0.5196
 6813TIP3    H141998   2.071   6.559   1.889 -0.8803  0.8659 -0.1280
 6813TIP3    H241999   2.071   6.675   1.986  1.1890  1.0015 -0.2394
 6814TIP3   OH242000   1.127   3.311   7.530 -0.3050  0.4133 -0.0903
 6814TIP3    H142001   1.078   3.316   7.612 -1.4654 -0.2500 -0.7272
 6814TIP3    H242002   1.218   3.326   7.556 -0.5274 -0.6514  1.4488
 6815TIP3   OH242003   1.583   3.308   1.393  0.2361  0.3308 -0.3638
 6815TIP3    H142004   1.528   3.232   1.406 -0.0828  0.4363 -1.0106
 6815TIP3    H242005   1.672   3.273   1.384  0.3502  0.1962  1.1043
 6816TIP3   OH242006   4.958   1.363   7.516  0.0403  0.4205  0.2093
 6816TIP3    H142007   4.943   1.442   7.464 -1.3819 -0.2778 -0.4807
 6816TIP3    H242008   4.883   1.358   7.574  0.3835 -0.1641  0.6122
 6817TIP3   OH242009   3.485   4.110   0.050  0.0420 -0.0563 -0.5326
 6817TIP3    H142010   3.447   4.179  -0.004 -0.3546  2.1579  2.3308
 6817TIP3    H242011   3.410   4.058   0.077  0.1778 -0.8412 -1.5994
 6818TIP3   OH242012   0.081   2.877   7.424 -0.0372  0.8017 -0.4539
 6818TIP3    H142013   0.053   2.963   7.391 -0.7530  0.1323 -1.6892
 6818TIP3    H242014   0.086   2.823   7.345  0.0545 -0.3823  0.3530
 6819TIP3   OH242015   0.612   5.879   0.864 -0.0002 -0.3807  0.0571
 6819TIP3    H142016   0.678   5.949   0.863 -0.5422  0.1506  0.3483
 6819TIP3    H242017   0.598   5.858   0.771 -0.4920  0.5570 -0.0972
 6820TIP3   OH242018   5.011   5.697   6.241 -0.0626 -0.0428  0.3676
 6820TIP3    H142019   5.010   5.729   6.151 -2.9878  1.4119  0.7871
 6820TIP3    H242020   5.066   5.761   6.288  1.1230 -0.5700 -0.2615
 6821TIP3   OH242021   4.007   0.363   6.044 -0.2513  0.8505  0.6266
 6821TIP3    H142022   3.931   0.395   5.997  0.4157 -1.7414 -2.5898
 6821TIP3    H242023   4.051   0.442   6.075 -2.8122  2.5199  0.2767
 6822TIP3   OH242024   3.053   1.349   7.033 -0.7756  0.0335 -0.1337
 6822TIP3    H142025   3.073   1.356   7.126 -1.6215 -1.1852  0.1712
 6822TIP3    H242026   2.980   1.410   7.019 -0.6399  0.2260 -0.0049
 6823TIP3   OH242027   1.022   1.567   0.384  0.3589  0.0756  0.2333
 6823TIP3    H142028   1.061   1.487   0.348 -0.0070  0.0848 -0.2054
 6823TIP3    H242029   0.940   1.538   0.423 -0.2688  0.3691 -0.8168
 6824TIP3   OH242030   0.078   6.811   6.579 -0.1496 -0.7246 -0.2625
 6824TIP3    H142031   0.024   6.812   6.500  1.0655  1.0956 -1.1646
 6824TIP3    H242032   0.165   6.784   6.547  0.3612  0.0687  0.4014
 6825TIP3   OH242033   1.544   5.580   1.041 -0.0133  0.0684  0.3843
 6825TIP3    H142034   1.458   5.602   1.076  0.2735  2.9325 -0.4138
 6825TIP3    H242035   1.533   5.580   0.946  0.3605 -2.2309  0.2781
 6826TIP3   OH242036   5.570   3.785   1.621 -0.1393  0.0958 -0.4864
 6826TIP3    H142037   5.632   3.719   1.652 -0.5100  0.6010  1.4718
 6826TIP3    H242038   5.625   3.849   1.574  0.3534 -1.0255 -1.5062
 6827TIP3   OH242039   4.495   6.069   0.003  0.2448  0.4257 -0.3058
 6827TIP3    H142040   4.448   6.117  -0.065 -0.8422 -0.3645 -0.1447
 6827TIP3    H242041   4.465   5.978  -0.006 -0.3755  0.3885  1.5762
 6828TIP3   OH242042   2.873   4.414   0.569  0.3736 -0.1056 -0.1096
 6828TIP3    H142043   2.884   4.443   0.479  0.2127  0.4516  0.0405
 6828TIP3    H242044   2.962   4.399   0.601  0.4006 -0.9745 -0.5625
 6829TIP3   OH242045   4.118   4.390   7.345  0.0789  0.3112  0.2908
 6829TIP3    H142046   4.092   4.480   7.364 -1.7307 -0.1867  0.2878
 6829TIP3    H242047   4.036   4.343   7.333  1.0145 -1.1931 -0.4493
 6830TIP3   OH242048   4.627   6.807   1.130  0.4024 -0.2829  0.1428
 6830TIP3    H142049   4.663   6.875   1.073 -0.4611  0.7805  0.8279
 6830TIP3    H242050   4.602   6.853   1.210 -1.6373 -1.1057  0.0367
 6831TIP3   OH242051   0.067   4.122   1.346 -0.5117 -0.2786  0.1856
 6831TIP3    H142052   0.131   4.191   1.364  0.0712 -0.8784  0.4740
 6831TIP3    H242053   0.063   4.071   1.427 -2.4725  0.6011  0.6977
 6832TIP3   OH242054   3.359   6.033   1.968  0.1361  0.4871 -0.8510
 6832TIP3    H142055   3.436   6.069   2.013 -1.2134  0.7741  1.3321
 6832TIP3    H242056   3.334   5.958   2.020 -2.2013  1.5343 -0.3539
 6833TIP3   OH242057   3.426   2.235   6.536 -0.4650  0.4000  0.5286
 6833TIP3    H142058   3.349   2.187   6.507  0.3360  0.6271 -2.2115
 6833TIP3    H242059   3.408   2.327   6.513 -0.0367  0.7034  1.3535
 6834TIP3   OH242060   6.652   4.687   0.574  0.7497 -0.1542 -0.4131
 6834TIP3    H142061   6.588   4.643   0.630  1.9126 -1.5444 -0.1039
 6834TIP3    H242062   6.721   4.715   0.635 -0.3768  3.0900 -0.4414
 6835TIP3   OH242063   1.674   5.308   1.538 -0.0401  0.3366  0.0656
 6835TIP3    H142064   1.757   5.293   1.585  1.5424  2.5156 -1.8228
 6835TIP3    H242065   1.640   5.220   1.522  2.5195 -0.7164 -0.0659
 6836TIP3   OH242066   1.812   3.433   1.936  0.4230 -0.0906 -0.1327
 6836TIP3    H142067   1.720   3.423   1.960  0.5875  0.1626  0.6268
 6836TIP3    H242068   1.855   3.461   2.016  1.1711 -0.2290 -0.4741
 6837TIP3   OH242069   4.261   3.381   5.968 -0.4184 -0.7496 -0.1235
 6837TIP3    H142070   4.277   3.324   6.043  0.4238 -1.1640 -0.6096
 6837TIP3    H242071   4.283   3.469   5.999 -1.4947 -0.7040  0.5543
 6838TIP3   OH242072   2.339   1.463   7.623  0.4114  0.1467 -0.3813
 6838TIP3    H142073   2.416   1.516   7.601  0.6374  0.2176  0.5126
 6838TIP3    H242074   2.314   1.493   7.711 -1.5138  1.1322 -1.2077
 6839TIP3   OH242075   5.108   1.130   6.531 -0.1361 -0.0748 -0.5675
 6839TIP3    H142076   5.014   1.120   6.548 -0.1043  0.5024 -0.0139
 6839TIP3    H242077   5.125   1.223   6.547  0.3907 -0.0161 -1.3978
 6840TIP3   OH242078   1.410   1.667   7.130  0.5722 -0.5633 -0.0702
 6840TIP3    H142079   1.400   1.600   7.198  1.9063 -0.2449  0.4782
 6840TIP3    H242080   1.440   1.745   7.178 -0.8304  0.4139 -0.7039
 6841TIP3   OH242081   1.269   5.249   1.778  0.1743 -0.3365 -0.2168
 6841TIP3    H142082   1.307   5.164   1.759  0.3089 -0.2898 -0.1564
 6841TIP3    H242083   1.277   5.259   1.872  0.1680 -0.2519 -0.2251
 6842TIP3   OH242084   1.365   2.430   0.655  0.6331 -0.0891 -0.0049
 6842TIP3    H142085   1.269   2.427   0.662  0.6685 -0.4885  0.4064
 6842TIP3    H242086   1.394   2.347   0.693  1.0275 -1.1096 -2.3673
 6843TIP3   OH242087   0.853   0.979   0.997  0.1475  0.2442  0.6114
 6843TIP3    H142088   0.872   0.889   1.023 -0.0261  0.1062  0.2776
 6843TIP3    H242089   0.766   0.975   0.958  1.5962 -0.2226 -3.0046
 6844TIP3   OH242090   6.637   2.327   7.263  0.6569  0.0508  0.0535
 6844TIP3    H142091   6.652   2.267   7.190  0.3753  0.8259 -0.6639
 6844TIP3    H242092   6.573   2.281   7.318 -1.0450  0.4433 -1.4747
 6845TIP3   OH242093   3.831   1.040   0.238 -0.2298 -0.8130  0.6476
 6845TIP3    H142094   3.916   1.022   0.279  0.0121 -0.5883  0.2548
 6845TIP3    H242095   3.851   1.103   0.169 -0.1416 -3.2338 -1.7014
 6846TIP3   OH242096   0.355   5.084   6.928  0.2482  0.5839 -0.0602
 6846TIP3    H142097   0.328   5.006   6.977  3.7012 -1.3035 -0.7551
 6846TIP3    H242098   0.326   5.067   6.839  0.5470  0.2944 -0.1071
 6847TIP3   OH242099   5.529   4.218   0.579 -0.2281  0.1724 -0.0297
 6847TIP3    H142100   5.571   4.168   0.649  0.9477 -1.7957 -2.0415
 6847TIP3    H242101   5.585   4.296   0.569 -0.5288  0.5921  1.2979
 6848TIP3   OH242102   5.178   6.057   7.701  0.1617  0.1880  0.0917
 6848TIP3    H142103   5.173   5.976   7.753 -0.9045 -1.2673 -2.1443
 6848TIP3    H242104   5.256   6.045   7.647  0.2192  0.8583  0.0231
 6849TIP3   OH242105   1.159   0.559   6.916 -0.2020 -0.2112 -0.3373
 6849TIP3    H142106   1.205   0.476   6.904 -0.8177 -1.1986  3.1487
 6849TIP3    H242107   1.067   0.538   6.901 -0.3770 -0.2116  0.7145
 6850TIP3   OH242108   3.557   3.198   0.056 -0.1055 -0.3056  0.3544
 6850TIP3    H142109   3.583   3.116   0.015 -0.7752 -0.6086  0.5102
 6850TIP3    H242110   3.531   3.254  -0.018 -0.0528 -0.3821  0.2774
 6851TIP3   OH242111   5.893   6.002   1.446  0.1007 -0.0236 -0.1902
 6851TIP3    H142112   5.841   5.935   1.401  0.9923 -2.0804  1.6957
 6851TIP3    H242113   5.847   6.019   1.528  0.6147  0.6678 -0.0272
 6852TIP3   OH242114   1.089   3.490   0.374  0.2483  0.2306  0.2206
 6852TIP3    H142115   1.180   3.512   0.397  0.3596 -0.3334  0.3351
 6852TIP3    H242116   1.096   3.405   0.331  0.2097  1.7213 -3.0465
 6853TIP3   OH242117   3.922   1.223   0.620 -0.3747  0.5185  0.1294
 6853TIP3    H142118   3.975   1.143   0.617 -0.4909  0.4012  1.0523
 6853TIP3    H242119   3.980   1.289   0.658 -0.8062  0.4391  0.9534
 6854TIP3   OH242120   0.947   5.163   0.676  0.2390  0.4168  0.4529
 6854TIP3    H142121   0.948   5.214   0.595  0.5001 -0.4428 -0.0974
 6854TIP3    H242122   0.986   5.079   0.652  0.9035  0.3710  1.6291
 6855TIP3   OH242123   0.541   5.925   7.273  0.0597  0.0911  0.3835
 6855TIP3    H142124   0.617   5.941   7.329  1.0531 -0.7617 -0.6629
 6855TIP3    H242125   0.477   5.991   7.300  0.6739  0.0215  2.1601
 6856TIP3   OH242126   0.639   6.605   1.504 -0.0946  0.3086 -0.4906
 6856TIP3    H142127   0.571   6.650   1.455  0.8268  0.6295 -1.5180
 6856TIP3    H242128   0.637   6.515   1.472  2.0829  1.0271 -3.0098
 6857TIP3   OH242129   4.563   6.127   1.439  0.3239  0.5184 -0.0913
 6857TIP3    H142130   4.568   6.164   1.527 -2.0773 -0.7298  0.6709
 6857TIP3    H242131   4.592   6.198   1.381 -0.3783  2.2167  1.5395
 6858TIP3   OH242132   5.779   0.421   1.236  0.3081 -0.0595  0.0263
 6858TIP3    H142133   5.723   0.447   1.309  2.0073  0.8645  1.0719
 6858TIP3    H242134   5.793   0.502   1.187  1.4526 -0.0713  0.3140
 6859TIP3   OH242135   3.437   6.935   7.977 -0.3621 -0.6100  0.6403
 6859TIP3    H142136   3.409   6.876   7.907 -1.3943 -0.3526  0.8125
 6859TIP3    H242137   3.432   7.022   7.938  1.4185 -0.6291  0.3018
 6860TIP3   OH242138   2.825   0.607   7.271  0.2235  0.6745  0.3182
 6860TIP3    H142139   2.745   0.590   7.222  0.4015  0.8656 -0.0413
 6860TIP3    H242140   2.894   0.611   7.205  0.2535  2.4044  0.4087
 6861TIP3   OH242141   0.875   0.593   0.338  0.2057  0.2748 -0.0591
 6861TIP3    H142142   0.916   0.557   0.259  1.5818  0.5798  0.4897
 6861TIP3    H242143   0.781   0.579   0.324  0.4505 -0.1703 -1.5003
 6862TIP3   OH242144   5.379   5.479   7.528  0.3139  0.0355 -0.1856
 6862TIP3    H142145   5.467   5.475   7.492  0.6455  1.5220  0.4163
 6862TIP3    H242146   5.388   5.525   7.611 -0.6200 -2.2437  1.2828
 6863TIP3   OH242147   4.094   0.826   1.474 -0.0761 -0.4458 -0.7161
 6863TIP3    H142148   4.079   0.916   1.504  1.4027 -0.2064 -0.6282
 6863TIP3    H242149   4.136   0.783   1.549  1.0111 -0.6487 -1.4243
 6864TIP3   OH242150   1.355   5.209   0.862  0.7806 -0.0111 -0.5061
 6864TIP3    H142151   1.262   5.205   0.884  0.8787  0.9483  0.1515
 6864TIP3    H242152   1.395   5.256   0.936  1.5659  0.7824 -1.4142
 6865TIP3   OH242153   0.416   6.500   1.340  0.3020  0.4683 -0.3767
 6865TIP3    H142154   0.322   6.492   1.350  0.4657  0.6714  2.1643
 6865TIP3    H242155   0.431   6.594   1.330  0.2910  0.6275  0.8879
 6866TIP3   OH242156   1.768   6.156   6.831  0.6037  0.3884 -0.2018
 6866TIP3    H142157   1.701   6.159   6.763 -2.4819 -0.2704  2.5269
 6866TIP3    H242158   1.796   6.065   6.834  1.0578  0.5000 -0.7968
 6867TIP3   OH242159   4.080   6.164   8.107 -0.2786  0.3978 -0.6268
 6867TIP3    H142160   3.993   6.139   8.077  0.0197  0.9339 -2.0007
 6867TIP3    H242161   4.080   6.260   8.106  0.8027  0.4114 -2.1610
 6868TIP3   OH242162   5.488   1.551   0.310 -0.2119  0.5622 -0.3822
 6868TIP3    H142163   5.503   1.646   0.312  0.2018  0.5030 -0.6164
 6868TIP3    H242164   5.395   1.543   0.289 -0.8464  0.9412  1.9611
 6869TIP3   OH242165   3.906   5.623   0.453 -0.4048 -0.3566 -0.3317
 6869TIP3    H142166   3.831   5.596   0.400 -0.0309 -1.3849 -0.3658
 6869TIP3    H242167   3.869   5.641   0.539 -1.0843  1.7590 -1.0231
 6870TIP3   OH242168   6.013   4.556   8.111 -0.3194 -0.4267 -0.5683
 6870TIP3    H142169   5.948   4.599   8.055 -1.0598 -2.2643 -1.2183
 6870TIP3    H242170   5.971   4.549   8.196  0.7696  2.2836  0.2904
 6871TIP3   OH242171   5.837   5.655   7.126 -0.0232  0.0195  0.0609
 6871TIP3    H142172   5.927   5.653   7.159  0.2877  0.2109 -0.7517
 6871TIP3    H242173   5.789   5.705   7.192 -0.4089 -3.2546  2.4817
 6872TIP3   OH242174   5.143   5.689   0.439 -0.1141 -0.5236  0.0140
 6872TIP3    H142175   5.067   5.717   0.490  0.3630  1.3080 -0.2078
 6872TIP3    H242176   5.115   5.701   0.348  0.1086 -0.7948 -0.0897
 6873TIP3   OH242177   4.839   2.069   1.742  0.0157  0.2006 -0.4864
 6873TIP3    H142178   4.826   2.136   1.809  0.3353  0.3777 -0.6008
 6873TIP3    H242179   4.894   2.003   1.784 -2.2127 -1.1930  0.4366
 6874TIP3   OH242180   3.458   6.711   1.071 -0.3341  0.6144  0.6360
 6874TIP3    H142181   3.425   6.783   1.124  0.1646  1.2834  0.0525
 6874TIP3    H242182   3.504   6.655   1.134 -0.3777  1.0138  1.0296
 6875TIP3   OH242183   2.774   1.476   0.656  0.2773 -0.3040 -0.4722
 6875TIP3    H142184   2.776   1.410   0.587  0.6599 -1.2381  0.3987
 6875TIP3    H242185   2.856   1.463   0.704  0.6844  1.2701 -0.6825
 6876TIP3   OH242186   5.515   4.638   7.509  0.6985 -0.5804 -0.2187
 6876TIP3    H142187   5.485   4.587   7.434 -0.6054 -0.1069 -0.0482
 6876TIP3    H242188   5.536   4.724   7.474 -0.3882 -0.2051  0.0133
 6877TIP3   OH242189   2.509   5.118   6.244  0.1328 -0.2307  0.3733
 6877TIP3    H142190   2.506   5.032   6.203 -2.0195  0.0332 -0.1504
 6877TIP3    H242191   2.519   5.179   6.171 -1.6117  0.1172  0.3842
 6878TIP3   OH242192   4.873   4.093   7.062  0.2840  0.2053 -0.5164
 6878TIP3    H142193   4.873   4.013   7.114  0.3809  0.8579  0.5232
 6878TIP3    H242194   4.792   4.089   7.012  0.0357 -0.3053 -0.0911
 6879TIP3   OH242195   6.059   5.871   1.274 -0.1298 -0.2362 -0.4691
 6879TIP3    H142196   6.010   5.922   1.339 -0.0439 -0.5717 -0.1385
 6879TIP3    H242197   6.058   5.781   1.308  0.3427 -0.3228 -0.6802
 6880TIP3   OH242198   6.907   5.208   7.400  0.2183 -0.5344  0.1155
 6880TIP3    H142199   6.967   5.160   7.343 -0.4560 -1.0993 -0.1261
 6880TIP3    H242200   6.824   5.161   7.392 -0.1486 -0.0010  0.7628
 6881TIP3   OH242201   1.290   4.167   6.750  0.3124 -0.1311 -0.1495
 6881TIP3    H142202   1.359   4.226   6.779 -0.6019  0.9455 -0.1140
 6881TIP3    H242203   1.217   4.184   6.809  0.4549 -2.3098  0.7568
 6882TIP3   OH242204   4.505   5.404   0.062 -0.5551 -0.1150 -0.4908
 6882TIP3    H142205   4.467   5.438   0.142 -2.6657  1.7363 -2.1480
 6882TIP3    H242206   4.465   5.318   0.050  0.5380 -0.8502  0.8796
 6883TIP3   OH242207   0.110   6.688   0.280  0.1076  0.1736 -0.1659
 6883TIP3    H142208   0.166   6.687   0.358 -1.2024  0.4385  0.8226
 6883TIP3    H242209   0.158   6.740   0.216  2.1551 -1.7767 -0.2972
 6884TIP3   OH242210   3.770   0.171   0.623 -0.3058 -0.3837  0.2533
 6884TIP3    H142211   3.743   0.243   0.680 -0.9487  1.4136 -2.1632
 6884TIP3    H242212   3.693   0.153   0.569  0.7156 -0.9547 -1.0718
 6885TIP3   OH242213   5.598   4.084   6.732 -0.8479 -0.2124 -0.1731
 6885TIP3    H142214   5.639   4.068   6.817 -0.1031  0.3595 -0.4134
 6885TIP3    H242215   5.667   4.067   6.669 -0.8261  1.2210 -0.5689
 6886TIP3   OH242216   3.155   4.756   1.606  0.5632 -0.5451  0.2923
 6886TIP3    H142217   3.235   4.802   1.580  0.4440 -0.3735  0.2278
 6886TIP3    H242218   3.128   4.797   1.688  0.1350 -0.1032 -0.0642
 6887TIP3   OH242219   5.517   4.798   6.345  0.2930 -0.2121 -0.4320
 6887TIP3    H142220   5.427   4.831   6.342 -0.6537 -2.3821  0.9493
 6887TIP3    H242221   5.522   4.734   6.275  0.7784 -0.0796 -0.5221
 6888TIP3   OH242222   1.278   6.258   0.394  0.4486  0.3035 -0.0124
 6888TIP3    H142223   1.222   6.186   0.423 -0.1635  0.2468 -1.2875
 6888TIP3    H242224   1.238   6.336   0.433 -0.3739  0.2310 -0.6884
 6889TIP3   OH242225   3.576   1.021   1.010 -0.4383 -1.1031 -0.3124
 6889TIP3    H142226   3.599   1.097   0.956 -0.2801 -0.6662  0.3590
 6889TIP3    H242227   3.566   1.056   1.098  2.7928 -2.3049  0.6804
 6890TIP3   OH242228   0.739   5.495   2.251  0.4987  0.0881 -0.0695
 6890TIP3    H142229   0.764   5.579   2.212 -0.4789  0.8483  0.8911
 6890TIP3    H242230   0.685   5.518   2.326 -0.5178 -1.4234 -0.2842
 6891TIP3   OH242231   0.792   4.024   1.103  0.1643  0.8025  0.3210
 6891TIP3    H142232   0.819   3.940   1.067 -2.7021 -0.1423  0.1057
 6891TIP3    H242233   0.841   4.089   1.052 -0.2857 -0.6545 -2.1180
 6892TIP3   OH242234   2.866   2.837   7.257  0.2550  0.2927 -0.4452
 6892TIP3    H142235   2.821   2.778   7.318 -1.1121 -0.3407 -1.9938
 6892TIP3    H242236   2.875   2.786   7.177 -0.0971  1.8648 -1.5281
 6893TIP3   OH242237   6.967   5.777   0.009  0.0687 -0.1374  0.5097
 6893TIP3    H142238   6.873   5.761   0.020  0.1707 -0.7349  0.5183
 6893TIP3    H242239   6.973   5.869  -0.016 -0.5701 -0.2957 -0.2293
 6894TIP3   OH242240   6.178   1.953   0.362  0.0853 -0.1255  0.0943
 6894TIP3    H142241   6.097   2.003   0.368 -0.5026 -0.9104 -0.9277
 6894TIP3    H242242   6.246   2.019   0.350 -0.4751  0.5022  0.2786
 6895TIP3   OH242243   6.148   5.443   6.917  0.4820 -0.4003 -0.2191
 6895TIP3    H142244   6.074   5.503   6.908 -0.0615 -0.9662  0.4296
 6895TIP3    H242245   6.198   5.455   6.836  0.6810  1.3241  0.1169
 6896TIP3   OH242246   5.948   2.963   7.545  0.2373  0.2473  0.4134
 6896TIP3    H142247   5.960   3.008   7.462 -1.8675  1.9538  0.9526
 6896TIP3    H242248   6.016   2.999   7.603  0.2664  0.7257  0.0798
 6897TIP3   OH242249   1.101   6.321   6.249 -1.1615  0.2011  0.5721
 6897TIP3    H142250   1.032   6.385   6.232 -0.1222  1.4373  0.9063
 6897TIP3    H242251   1.078   6.246   6.194 -1.4623  1.5243 -1.1794
 6898TIP3   OH242252   4.745   0.439   6.368  0.4092 -0.1698 -0.4853
 6898TIP3    H142253   4.665   0.487   6.346  0.9625  0.6970 -0.6552
 6898TIP3    H242254   4.722   0.387   6.445 -0.5257 -0.4947 -0.9696
 6899TIP3   OH242255   0.837   5.256   2.149 -0.2639 -0.0425  0.8854
 6899TIP3    H142256   0.813   5.340   2.189 -2.4410 -0.5729  0.7982
 6899TIP3    H242257   0.797   5.259   2.062 -1.1285 -1.5182  1.2111
 6900TIP3   OH242258   3.395   5.664   2.274  0.4107  0.4728 -0.4364
 6900TIP3    H142259   3.440   5.597   2.326  0.5739  0.6916 -0.2930
 6900TIP3    H242260   3.440   5.663   2.190 -0.9922 -1.1431 -1.2420
 6901TIP3   OH242261   6.039   4.491   6.493 -0.6046  0.5920 -0.4161
 6901TIP3    H142262   6.064   4.407   6.455 -0.5775  0.1980  0.4628
 6901TIP3    H242263   5.949   4.505   6.462 -1.3040 -0.6689  0.9345
 6902TIP3   OH242264   4.113   2.476   1.499  0.4448 -0.3265  0.1827
 6902TIP3    H142265   4.028   2.485   1.542 -0.6829  2.5188 -2.2790
 6902TIP3    H242266   4.177   2.497   1.567 -1.0287  0.7431  1.2862
 6903TIP3   OH242267   0.525   5.531   1.231 -0.4309  0.2340 -0.1995
 6903TIP3    H142268   0.515   5.475   1.153 -0.6995  0.1875 -0.1320
 6903TIP3    H242269   0.564   5.612   1.197 -0.4179  0.1616 -0.3607
 6904TIP3   OH242270   0.062   1.974   0.597  0.0097  0.5222  0.0484
 6904TIP3    H142271   0.049   1.894   0.647 -2.0303  1.2182  0.7223
 6904TIP3    H242272   0.145   2.010   0.629  0.4681 -0.8044  0.3977
 6905TIP3   OH242273   5.436   1.558   0.687  0.2435  0.1218 -0.0486
 6905TIP3    H142274   5.376   1.633   0.676 -1.4585 -0.8572  1.8550
 6905TIP3    H242275   5.406   1.494   0.623  1.0575  0.6477 -0.9829
 6906TIP3   OH242276   5.949   3.608   6.317  0.2092  0.4142 -0.3580
 6906TIP3    H142277   5.965   3.521   6.351  0.0635  0.8819  0.9703
 6906TIP3    H242278   5.873   3.598   6.259 -0.9422 -0.0516  1.1576
 6907TIP3   OH242279   1.892   0.449   7.308  0.2996 -0.0325 -0.3714
 6907TIP3    H142280   1.896   0.518   7.242  0.0328  1.9509  1.5347
 6907TIP3    H242281   1.982   0.443   7.342  0.2041 -0.1854 -0.1426
 6908TIP3   OH242282   0.945   6.949   2.424 -0.6667 -0.2816 -0.0540
 6908TIP3    H142283   0.859   6.908   2.433 -0.7892 -0.7537 -2.7606
 6908TIP3    H242284   1.007   6.879   2.444 -0.7671  0.4027  3.3319
 6909TIP3   OH242285   0.613   0.988   8.277  1.0025 -0.2192  0.5363
 6909TIP3    H142286   0.527   0.967   8.313  1.2050 -0.1452  1.0741
 6909TIP3    H242287   0.625   1.082   8.295  1.2789 -0.2736  0.6464
 6910TIP3   OH242288   5.760   6.985   6.477  0.6288 -0.0625 -0.2278
 6910TIP3    H142289   5.715   7.042   6.414  0.8191  0.2419 -0.0920
 6910TIP3    H242290   5.847   7.024   6.486  0.5351  0.0150  0.3800
 6911TIP3   OH242291   4.045   4.289   8.050  0.1524  0.7495 -0.5051
 6911TIP3    H142292   4.139   4.274   8.063  0.1339  0.5531 -0.5914
 6911TIP3    H242293   4.023   4.236   7.973 -0.4164 -0.6689  0.5957
 6912TIP3   OH242294   4.984   2.698   7.937  0.2679 -0.0683  0.6184
 6912TIP3    H142295   5.002   2.791   7.920  0.1255 -0.0609  0.5036
 6912TIP3    H242296   5.045   2.674   8.007  1.6414 -0.3792 -0.6310
 6913TIP3   OH242297   6.395   5.568   6.227 -0.3891 -0.0585  0.2685
 6913TIP3    H142298   6.433   5.595   6.143  2.2682 -1.0559  1.0478
 6913TIP3    H242299   6.395   5.472   6.224 -1.9888 -0.1037  0.7325
 6914TIP3   OH242300   0.685   0.654   2.047  0.2759 -0.2916 -0.4341
 6914TIP3    H142301   0.657   0.716   2.113  0.1720 -1.8418  1.0418
 6914TIP3    H242302   0.609   0.645   1.988  0.3649  1.0743 -0.7762
 6915TIP3   OH242303   4.859   1.791   1.002  0.2446  0.1648 -0.1289
 6915TIP3    H142304   4.929   1.787   1.068 -0.0460 -1.4205  0.1282
 6915TIP3    H242305   4.838   1.884   0.995  2.3351  0.6881 -0.1790
 6916TIP3   OH242306   3.440   5.054   8.250  1.0021  0.4038 -0.0617
 6916TIP3    H142307   3.348   5.079   8.239  1.1849  0.5145 -1.7279
 6916TIP3    H242308   3.442   4.960   8.234  1.1936  0.4266 -0.1791
 6917TIP3   OH242309   1.141   0.646   1.582  0.1647  0.5725 -0.3444
 6917TIP3    H142310   1.183   0.654   1.668 -0.8429 -0.9731  0.3349
 6917TIP3    H242311   1.049   0.630   1.602  0.0829 -0.8234 -1.6777
 6918TIP3   OH242312   5.615   1.948   0.849  0.3362  0.4571  0.1799
 6918TIP3    H142313   5.530   1.990   0.863  0.6419  0.9281  0.6494
 6918TIP3    H242314   5.650   1.990   0.770 -0.0109  0.0159 -0.2188
 6919TIP3   OH242315   0.515   5.060   1.471 -0.0796  0.1222 -0.5316
 6919TIP3    H142316   0.432   5.105   1.486 -0.1581  0.0287 -0.6814
 6919TIP3    H242317   0.580   5.113   1.518 -0.0548  0.8425 -1.3422
 6920TIP3   OH242318   3.268   4.513   1.171 -0.0074  0.3803  0.6871
 6920TIP3    H142319   3.244   4.602   1.147 -0.3148 -0.3672 -2.0454
 6920TIP3    H242320   3.185   4.469   1.191  0.0651  0.4322  1.1286
 6921TIP3   OH242321   6.164   2.981   0.945  0.2205 -0.4187 -0.1636
 6921TIP3    H142322   6.201   2.910   0.998  1.5065 -0.1808 -0.7190
 6921TIP3    H242323   6.224   2.990   0.871  0.4038  1.6291  0.1861
 6922TIP3   OH242324   2.968   4.497   2.062  0.0392  0.0252 -0.0774
 6922TIP3    H142325   2.995   4.556   2.132  0.8298 -0.2642 -0.1319
 6922TIP3    H242326   2.887   4.535   2.029 -1.0520 -0.5231  1.8354
 6923TIP3   OH242327   1.333   5.256   7.858 -0.0393 -0.0607  0.0078
 6923TIP3    H142328   1.244   5.242   7.825 -0.0160 -0.4368  0.0935
 6923TIP3    H242329   1.388   5.258   7.780 -0.0797 -0.1837 -0.0237
 6924TIP3   OH242330   3.172   3.349   1.129 -0.1396 -0.2264 -0.0226
 6924TIP3    H142331   3.110   3.276   1.133 -0.4968  0.0197 -0.9707
 6924TIP3    H242332   3.145   3.400   1.053  0.0656  0.9443  0.6736
 6925TIP3   OH242333   3.257   4.546   0.656 -0.1850  0.0861 -0.0556
 6925TIP3    H142334   3.270   4.482   0.725 -0.7318  0.0745  0.0406
 6925TIP3    H242335   3.316   4.619   0.680 -0.7712  0.3182  0.7249
 6926TIP3   OH242336   2.915   3.609   1.183 -0.7192  0.4201 -0.2206
 6926TIP3    H142337   2.829   3.567   1.194 -0.6377 -0.2412 -1.8449
 6926TIP3    H242338   2.961   3.590   1.264 -1.7681 -0.0676  0.2842
 6927TIP3   OH242339   2.262   2.361   7.694  0.1059 -0.1058 -0.1014
 6927TIP3    H142340   2.355   2.382   7.702  0.2791 -0.8963  0.0960
 6927TIP3    H242341   2.246   2.362   7.600 -0.0100  1.3377 -0.0776
 6928TIP3   OH242342   2.979   4.105   0.000 -0.1889 -0.4090 -0.7604
 6928TIP3    H142343   2.886   4.114  -0.023 -0.4707 -0.4960  0.2876
 6928TIP3    H242344   2.984   4.024   0.050 -0.0145  0.8304  1.3422
 6929TIP3   OH242345   0.516   1.867   8.350  0.5010  0.5041  0.0432
 6929TIP3    H142346   0.554   1.871   8.438  1.3319  0.2938 -0.2970
 6929TIP3    H242347   0.454   1.939   8.348  1.8811  1.7556  0.1637
 6930TIP3   OH242348   2.315   6.574   1.028  0.7322 -0.2187 -0.5946
 6930TIP3    H142349   2.313   6.641   0.959  0.0639 -0.8185 -1.1719
 6930TIP3    H242350   2.407   6.548   1.034  1.1631  1.3587  0.2558
 6931TIP3   OH242351   4.836   1.166   6.549  0.0861  0.0921 -0.2328
 6931TIP3    H142352   4.816   1.259   6.560 -1.4904 -0.3472  1.0088
 6931TIP3    H242353   4.754   1.122   6.566  0.4900 -1.5069 -2.0723
 6932TIP3   OH242354   5.521   0.217   2.326 -0.2044 -0.4493  0.8595
 6932TIP3    H142355   5.491   0.180   2.243  0.9346  0.1453  0.1671
 6932TIP3    H242356   5.587   0.155   2.358 -1.0335 -0.9654  1.6183
 6933TIP3   OH242357   2.648   0.099   1.269 -0.1080 -0.1957  0.6839
 6933TIP3    H142358   2.650   0.035   1.197  0.3088 -0.2300  0.7217
 6933TIP3    H242359   2.625   0.047   1.346 -1.5929  0.0126  0.4136
 6934TIP3   OH242360   2.247   0.339   2.359 -0.2785 -0.1067 -0.2516
 6934TIP3    H142361   2.172   0.280   2.357  0.5699 -1.2508  0.0174
 6934TIP3    H242362   2.257   0.363   2.451 -0.5371  0.3372 -0.3404
 6935TIP3   OH242363   6.705   6.909   8.077 -0.0109 -0.3865  0.2062
 6935TIP3    H142364   6.692   6.924   8.171  1.3841 -0.3077  0.3992
 6935TIP3    H242365   6.644   6.838   8.056  0.2111 -0.9397  1.3471
 6936TIP3   OH242366   0.613   3.318   1.727  0.1907 -0.5702 -0.4333
 6936TIP3    H142367   0.595   3.226   1.705 -2.5147 -0.0793 -0.5972
 6936TIP3    H242368   0.647   3.315   1.817 -0.7654 -1.6979 -0.0795
 6937TIP3   OH242369   6.944   4.326   6.472 -0.3032  0.2190 -0.4141
 6937TIP3    H142370   7.007   4.358   6.537 -0.7594  2.1146 -0.8385
 6937TIP3    H242371   6.869   4.296   6.523  0.8972 -2.1292  0.1030
 6938TIP3   OH242372   3.759   5.891   1.798  0.2636  0.3929 -0.5180
 6938TIP3    H142373   3.735   5.811   1.846 -0.7265  0.0319 -1.5753
 6938TIP3    H242374   3.797   5.948   1.865  0.2803 -0.6563  0.4090
 6939TIP3   OH242375   4.781   2.421   0.949  0.4807 -0.5285  0.2612
 6939TIP3    H142376   4.709   2.479   0.974  0.8878  0.0535  0.1103
 6939TIP3    H242377   4.749   2.333   0.969  0.1813 -0.1976  1.2965
 6940TIP3   OH242378   2.471   5.292   7.213  0.2478  0.3802 -0.2513
 6940TIP3    H142379   2.456   5.232   7.286  0.2714  1.2225  0.4622
 6940TIP3    H242380   2.391   5.285   7.160  0.2915 -0.3397 -0.2400
 6941TIP3   OH242381   3.518   6.360   0.875 -0.0335  0.1761  0.5107
 6941TIP3    H142382   3.446   6.314   0.830 -0.6581  1.8017 -0.2316
 6941TIP3    H242383   3.526   6.443   0.828  2.6882 -0.1477  0.2637
 6942TIP3   OH242384   1.066   6.850   1.816 -1.2005  0.0645  0.2912
 6942TIP3    H142385   1.059   6.943   1.791  0.9208  0.2503  0.1895
 6942TIP3    H242386   0.990   6.809   1.775 -2.2437  1.7521  0.3969
 6943TIP3   OH242387   5.372   0.775   0.292  0.0582 -0.5483  0.2837
 6943TIP3    H142388   5.417   0.794   0.375 -1.6014  0.8368  0.9229
 6943TIP3    H242389   5.414   0.833   0.228  0.0988 -0.2611  0.5681
 6944TIP3   OH242390   3.023   4.952   1.351 -0.2340 -0.5763 -0.3599
 6944TIP3    H142391   3.056   5.014   1.417  0.9041 -1.4076 -0.1184
 6944TIP3    H242392   2.971   4.889   1.401 -1.3642  0.1257 -0.6019
 6945TIP3   OH242393   6.490   1.921   6.952 -0.5615  0.0347 -0.1679
 6945TIP3    H142394   6.462   1.830   6.961 -1.4036  0.2870 -0.1523
 6945TIP3    H242395   6.514   1.930   6.860  0.2686 -0.4054  0.0026
 6946TIP3   OH242396   1.841   2.249   0.001 -0.2966  0.0044 -0.6195
 6946TIP3    H142397   1.884   2.285  -0.076 -1.3271 -1.6948 -2.0857
 6946TIP3    H242398   1.747   2.261  -0.015 -0.5481 -0.6594  0.2056
 6947TIP3   OH242399   1.258   0.777   1.370  0.2752  0.3992  0.2966
 6947TIP3    H142400   1.221   0.715   1.432  1.5924  0.4715  1.1890
 6947TIP3    H242401   1.187   0.794   1.308 -0.6972 -0.5559  1.1106
 6948TIP3   OH242402   0.914   1.373   1.962 -0.1540  0.4660 -0.7287
 6948TIP3    H142403   0.897   1.457   2.005  1.3787  0.6536 -0.4182
 6948TIP3    H242404   0.986   1.391   1.902  1.4971 -1.0013  0.6973
 6949TIP3   OH242405   0.524   2.660   6.836  0.1373  0.0115  0.4917
 6949TIP3    H142406   0.480   2.641   6.753  1.0835 -1.0902  0.2091
 6949TIP3    H242407   0.477   2.735   6.872 -1.1548 -0.3439 -0.3866
 6950TIP3   OH242408   6.813   4.027   5.929  0.8091  0.5231 -0.0438
 6950TIP3    H142409   6.755   4.100   5.906  0.6934  0.1029 -1.1104
 6950TIP3    H242410   6.901   4.067   5.932  0.7002  0.7820 -0.2501
 6951TIP3   OH242411   6.787   2.272   0.108  0.1116  0.7073 -0.3520
 6951TIP3    H142412   6.853   2.306   0.047  1.3571  0.7063  0.9375
 6951TIP3    H242413   6.778   2.180   0.083  0.7448  0.6622 -0.4445
 6952TIP3   OH242414   0.886   0.181   1.005  0.3692 -0.0065  0.2315
 6952TIP3    H142415   0.795   0.151   1.000  0.0126  1.2225 -1.6193
 6952TIP3    H242416   0.890   0.256   0.945  2.4051  0.5001  0.9198
 6953TIP3   OH242417   6.419   3.245   1.087 -0.3621 -0.3248  0.6731
 6953TIP3    H142418   6.374   3.165   1.114 -0.1932 -0.3350  0.9299
 6953TIP3    H242419   6.489   3.256   1.152 -0.6261  0.2440  0.8636
 6954TIP3   OH242420   2.236   6.203   1.787  0.3228 -0.6596 -0.0729
 6954TIP3    H142421   2.214   6.156   1.707  0.2776 -0.7903  0.0159
 6954TIP3    H242422   2.322   6.169   1.812  1.4754  1.1157 -1.3888
 6955TIP3   OH242423   3.524   6.505   7.840  0.8601  0.1096  0.5841
 6955TIP3    H142424   3.501   6.431   7.784  0.4346 -0.8972  2.0490
 6955TIP3    H242425   3.526   6.469   7.929 -0.3671  2.0771  1.4650
 6956TIP3   OH242426   5.696   6.264   1.117  0.0463  0.1495  0.2060
 6956TIP3    H142427   5.649   6.192   1.159  0.3916 -0.1116  0.1492
 6956TIP3    H242428   5.772   6.280   1.173 -0.6612  1.2987  0.8929
 6957TIP3   OH242429   1.814   2.102   7.490  0.2870  0.0156  0.0822
 6957TIP3    H142430   1.823   2.036   7.421 -0.5059  0.0527 -0.0589
 6957TIP3    H242431   1.723   2.130   7.485  0.0820 -0.3314  1.4537
 6958TIP3   OH242432   1.899   0.597   1.228 -0.0757 -0.2345  0.5003
 6958TIP3    H142433   1.985   0.589   1.186 -0.1988 -0.7146  0.3330
 6958TIP3    H242434   1.873   0.507   1.247 -0.7271 -0.1204  0.1729
 6959TIP3   OH242435   3.774   0.334   6.301  0.3439  0.2005 -0.1877
 6959TIP3    H142436   3.845   0.291   6.254  0.5226 -0.4974  0.7156
 6959TIP3    H242437   3.698   0.325   6.242  0.7334 -0.0063 -0.6673
 6960TIP3   OH242438   1.674   6.815   1.837  0.5896 -0.0330 -0.6321
 6960TIP3    H142439   1.685   6.746   1.771  1.0936 -0.8699  0.3036
 6960TIP3    H242440   1.716   6.892   1.798 -0.0867 -0.2024 -1.7391
 6961TIP3   OH242441   6.553   5.292   7.219 -0.1437  0.4673 -0.3538
 6961TIP3    H142442   6.632   5.345   7.225  0.2386 -0.0988 -0.3560
 6961TIP3    H242443   6.557   5.231   7.293  0.0494 -0.3879 -1.0444
 6962TIP3   OH242444   3.368   0.605   1.459  0.6130 -0.6778  0.0573
 6962TIP3    H142445   3.444   0.592   1.515  1.0746 -0.6124 -0.5418
 6962TIP3    H242446   3.370   0.698   1.436 -0.5760 -0.2920  1.3334
 6963TIP3   OH242447   5.771   3.332   0.989  0.2676 -0.3234  0.5065
 6963TIP3    H142448   5.854   3.321   1.037 -0.3318 -1.4105  1.3477
 6963TIP3    H242449   5.753   3.245   0.953  0.9293  0.5615 -2.1760
 6964TIP3   OH242450   1.697   0.617   6.707 -0.8341  0.0716  0.0553
 6964TIP3    H142451   1.742   0.560   6.644  0.0426 -0.2166  0.9183
 6964TIP3    H242452   1.716   0.706   6.676 -0.8636 -0.0723 -0.3877
 6965TIP3   OH242453   0.911   5.372   8.322 -0.4773  0.5051 -0.1929
 6965TIP3    H142454   0.936   5.400   8.410 -0.3880  1.0999 -0.4010
 6965TIP3    H242455   0.929   5.448   8.267 -1.0761  0.3388 -0.6289
 6966TIP3   OH242456   0.801   6.306   1.477 -0.0445 -0.6133 -0.3560
 6966TIP3    H142457   0.763   6.282   1.393  1.1364 -3.0231 -0.2972
 6966TIP3    H242458   0.886   6.262   1.479 -0.6152 -1.8550  2.6434
 6967TIP3   OH242459   6.500   4.588   1.248 -0.5425  0.4288 -0.0475
 6967TIP3    H142460   6.537   4.597   1.160  1.6444 -0.6431  0.7063
 6967TIP3    H242461   6.472   4.676   1.271  0.4899  1.0743 -1.1424
 6968TIP3   OH242462   5.826   6.133   7.607 -0.5087 -0.4747  0.0693
 6968TIP3    H142463   5.746   6.082   7.598 -1.3461  0.9517 -1.0071
 6968TIP3    H242464   5.849   6.157   7.517 -1.2583  2.6600  0.6158
 6969TIP3   OH242465   6.726   3.875   6.336 -0.4339  0.0612  0.1354
 6969TIP3    H142466   6.766   3.923   6.409 -0.0384 -0.0274 -0.0209
 6969TIP3    H242467   6.640   3.848   6.370 -1.2431  2.0005 -0.2130
 6970TIP3   OH242468   1.194   4.432   7.767 -0.2059 -0.1520  0.0529
 6970TIP3    H142469   1.259   4.443   7.836 -0.0038 -0.5630 -0.0650
 6970TIP3    H242470   1.173   4.521   7.739 -0.5919  0.0377  0.9191
 6971TIP3   OH242471   4.042   1.025   1.909 -0.1726  0.0023  0.2197
 6971TIP3    H142472   3.969   1.086   1.922 -0.5601 -0.4542  0.2495
 6971TIP3    H242473   4.053   1.021   1.814 -0.0868  0.1891  0.2224
 6972TIP3   OH242474   2.289   6.641   7.310 -0.4930 -0.5397  0.0080
 6972TIP3    H142475   2.352   6.713   7.302 -0.1247 -0.8263  0.2539
 6972TIP3    H242476   2.214   6.668   7.258 -1.8250  1.5909  2.7746
 6973TIP3   OH242477   3.940   6.924   0.225 -0.8459  0.0280 -0.1433
 6973TIP3    H142478   3.962   7.012   0.254 -0.3447  0.4039 -1.5621
 6973TIP3    H242479   3.993   6.866   0.280  0.0986  0.7038 -0.3232
 6974TIP3   OH242480   5.094   2.472   8.060  0.4519  0.1371  0.2453
 6974TIP3    H142481   5.000   2.483   8.071  0.3729 -0.7729  0.6390
 6974TIP3    H242482   5.116   2.398   8.117  1.6622  1.2578  1.3203
 6975TIP3   OH242483   3.956   3.995   0.701 -0.0711  0.5952  0.1526
 6975TIP3    H142484   3.964   4.083   0.738  2.1494  0.3570  0.3977
 6975TIP3    H242485   3.983   3.937   0.773 -0.0696 -0.1789 -0.4666
 6976TIP3   OH242486   1.316   1.010   0.551 -0.2896  0.0674 -0.2278
 6976TIP3    H142487   1.271   1.020   0.467  1.7245 -0.2190 -1.4192
 6976TIP3    H242488   1.279   1.078   0.606 -3.1341 -1.0394 -0.6228
 6977TIP3   OH242489   5.962   2.368   1.462 -0.4163 -0.6130 -0.1551
 6977TIP3    H142490   5.943   2.306   1.532  0.4538 -0.7534 -0.0410
 6977TIP3    H242491   5.877   2.381   1.418 -0.9893 -0.4813  0.9486
 6978TIP3   OH242492   0.270   0.933   7.775  0.2219 -0.2433 -0.2876
 6978TIP3    H142493   0.195   0.951   7.719 -0.0731  2.7554  0.8809
 6978TIP3    H242494   0.239   0.868   7.838 -1.0468  0.0966 -0.5390
 6979TIP3   OH242495   3.827   0.793   1.917 -0.2048 -0.4424 -0.3408
 6979TIP3    H142496   3.843   0.887   1.910  1.0456 -0.7154 -1.7035
 6979TIP3    H242497   3.766   0.774   1.845 -1.7221 -0.4646  0.8881
 6980TIP3   OH242498   1.335   2.795   0.804 -0.1427  0.1822 -0.4655
 6980TIP3    H142499   1.374   2.859   0.863  2.0399 -1.4735  0.0157
 6980TIP3    H242500   1.242   2.796   0.826  0.0740  2.0176  0.6104
 6981TIP3   OH242501   5.965   6.734   0.242 -0.4934  0.7053 -0.1194
 6981TIP3    H142502   6.003   6.821   0.247  2.6284 -0.4609 -1.1683
 6981TIP3    H242503   6.019   6.687   0.178 -0.5186 -2.6905  2.0494
 6982TIP3   OH242504   2.867   0.781   6.942 -0.1287  0.8552 -0.2129
 6982TIP3    H142505   2.786   0.831   6.953 -0.9602 -0.7796  1.4829
 6982TIP3    H242506   2.934   0.836   6.982 -0.7509  1.3259  0.2113
 6983TIP3   OH242507   5.709   5.630   8.122 -0.0360 -0.6392  0.5951
 6983TIP3    H142508   5.754   5.713   8.135 -0.1425 -0.1985 -1.5457
 6983TIP3    H242509   5.624   5.654   8.086  0.9557 -1.6544 -2.7879
 6984TIP3   OH242510   4.520   6.177   1.083 -0.2243  0.4127  0.1159
 6984TIP3    H142511   4.549   6.252   1.032 -0.1308  0.7128  0.6058
 6984TIP3    H242512   4.598   6.123   1.094 -0.4510 -0.1450 -0.8775
 6985TIP3   OH242513   4.134   4.783   6.907  0.4730 -0.1685  0.1035
 6985TIP3    H142514   4.118   4.800   6.814  2.0150 -0.7322 -0.2882
 6985TIP3    H242515   4.048   4.760   6.942 -0.0181 -0.6216 -1.3363
 6986TIP3   OH242516   4.226   4.941   6.642  0.1290  0.0087 -0.3384
 6986TIP3    H142517   4.169   4.870   6.612 -0.8358 -0.0911  1.5857
 6986TIP3    H242518   4.273   4.968   6.564 -0.9028 -1.4433 -1.5270
 6987TIP3   OH242519   3.853   4.711   0.528 -0.2001  0.1337  0.5231
 6987TIP3    H142520   3.888   4.798   0.506 -0.5536 -0.0157 -0.6529
 6987TIP3    H242521   3.803   4.726   0.609  0.5209  0.8271  0.8641
 6988TIP3   OH242522   5.470   1.168   6.896 -0.3137  0.3232  0.5815
 6988TIP3    H142523   5.421   1.099   6.850 -1.8497  1.3206  0.6680
 6988TIP3    H242524   5.552   1.175   6.847  1.1431 -3.3711  2.0978
 6989TIP3   OH242525   4.107   5.857   8.015 -0.4597  0.1505 -0.7955
 6989TIP3    H142526   4.130   5.798   8.086 -0.7689 -1.1075 -1.6949
 6989TIP3    H242527   4.185   5.909   8.000  0.2035 -0.7863 -0.6806
 6990TIP3   OH242528   4.666   5.808   0.620  0.1925 -0.1332 -0.4016
 6990TIP3    H142529   4.571   5.804   0.626  0.0581  0.8548 -1.5500
 6990TIP3    H242530   4.691   5.878   0.681  0.1333 -0.0775 -0.4409
 6991TIP3   OH242531   5.775   0.308   0.180 -0.2309  0.6442  0.1509
 6991TIP3    H142532   5.680   0.302   0.187 -0.3958 -0.1840 -2.0267
 6991TIP3    H242533   5.802   0.223   0.144  0.9214  1.9690 -2.3686
 6992TIP3   OH242534   3.911   5.590   6.387 -0.1326  0.3986  0.7900
 6992TIP3    H142535   3.941   5.670   6.430 -0.8296  1.4506 -0.5867
 6992TIP3    H242536   3.825   5.613   6.352  0.7272 -0.1066 -1.8503
 6993TIP3   OH242537   5.002   3.745   0.202 -0.2321  0.3417 -0.3508
 6993TIP3    H142538   5.065   3.815   0.218  0.9337 -0.7885  0.1614
 6993TIP3    H242539   4.940   3.751   0.275  1.6013 -0.9959  1.4132
 6994TIP3   OH242540   1.527   6.208   7.605  0.0894  0.1417  0.0808
 6994TIP3    H142541   1.529   6.227   7.699 -1.1450  0.3418  0.0849
 6994TIP3    H242542   1.617   6.218   7.576  0.4783  0.1026  1.2435
 6995TIP3   OH242543   0.379   0.434   2.222  0.2022  0.4451 -0.4281
 6995TIP3    H142544   0.395   0.457   2.130 -0.2646 -0.1218 -0.6627
 6995TIP3    H242545   0.366   0.339   2.220 -0.6438  0.5428  0.1020
 6996TIP3   OH242546   4.035   4.967   6.247 -0.2806  0.2646  0.0151
 6996TIP3    H142547   4.022   4.950   6.340 -0.9298 -0.6719 -0.2238
 6996TIP3    H242548   3.960   4.923   6.204  0.8057 -0.6202 -1.0487
 6997TIP3   OH242549   1.721   0.190   6.978  0.0867 -0.2448  0.0934
 6997TIP3    H142550   1.658   0.119   6.989 -0.9365  0.5878 -0.1935
 6997TIP3    H242551   1.707   0.247   7.054 -0.7987  0.8770 -0.8683
 6998TIP3   OH242552   6.362   0.253   8.335 -0.4106  0.3058 -0.0559
 6998TIP3    H142553   6.271   0.224   8.324 -0.6626  1.2506 -0.5951
 6998TIP3    H242554   6.405   0.179   8.378 -1.5348  0.0085  0.6273
 6999TIP3   OH242555   2.550   0.930   7.952  0.3200  0.3758 -0.1627
 6999TIP3    H142556   2.590   0.986   7.886  0.6131  0.7277  0.3048
 6999TIP3    H242557   2.596   0.952   8.033  0.0538 -0.1389  0.1345
 7000TIP3   OH242558   5.025   0.791   8.112  0.4522 -0.9813 -0.1396
 7000TIP3    H142559   5.107   0.838   8.124  0.2435  0.3097 -2.9981
 7000TIP3    H242560   5.050   0.699   8.112  1.6278 -0.6877  0.5723
 7001TIP3   OH242561   0.469   5.414   2.023 -0.1228  0.1418  0.2961
 7001TIP3    H142562   0.458   5.505   2.051  0.6459  0.4542 -0.3705
 7001TIP3    H242563   0.381   5.386   2.000 -0.4205  0.6107  0.8317
 7002TIP3   OH242564   2.577   6.082   1.244 -0.2446 -0.1006  0.4249
 7002TIP3    H142565   2.545   6.002   1.285 -2.7417  1.0546  0.9075
 7002TIP3    H242566   2.532   6.086   1.159 -0.4086  0.9131  0.5414
 7003TIP3   OH242567   2.256   0.822   8.011 -0.0494  0.0671 -0.2054
 7003TIP3    H142568   2.327   0.784   8.063  0.8730  1.0329 -0.7114
 7003TIP3    H242569   2.301   0.878   7.947 -1.2824  0.8004 -0.4590
 7004TIP3   OH242570   4.093   3.719   7.430  0.0244 -0.3642  0.5291
 7004TIP3    H142571   4.077   3.649   7.493 -0.8074 -0.2053  0.4999
 7004TIP3    H242572   4.138   3.787   7.481  1.0774 -1.0114  0.4950
 7005TIP3   OH242573   3.989   6.520   0.751 -0.0834 -0.3096 -0.6489
 7005TIP3    H142574   4.023   6.432   0.736  0.0555 -0.1715 -1.1625
 7005TIP3    H242575   4.062   6.578   0.730 -0.3957 -0.0407 -1.0113
 7006TIP3   OH242576   3.641   6.234   6.817  0.4359  0.4898 -0.1586
 7006TIP3    H142577   3.693   6.183   6.755  0.6633  1.7642 -1.0562
 7006TIP3    H242578   3.585   6.288   6.762 -1.3338 -0.3157  0.7913
 7007TIP3   OH242579   5.007   3.280   1.667 -0.1632  0.4759  0.8067
 7007TIP3    H142580   5.033   3.367   1.698 -0.1671  0.1044  1.8902
 7007TIP3    H242581   4.916   3.271   1.694  0.0932 -0.2010  1.4541
 7008TIP3   OH242582   1.891   3.260   6.380  0.2245  0.1196  0.0021
 7008TIP3    H142583   1.952   3.262   6.306  2.7852 -0.3764  1.9728
 7008TIP3    H242584   1.852   3.347   6.382  1.7138  0.8314 -0.6832
 7009TIP3   OH242585   3.731   3.128   6.443  0.5065 -0.4729 -0.2395
 7009TIP3    H142586   3.720   3.038   6.411 -1.3022 -0.4071  0.0732
 7009TIP3    H242587   3.773   3.174   6.371  1.1274 -1.4738 -0.5457
 7010TIP3   OH242588   4.544   0.753   1.585  0.2164  0.3857 -0.1557
 7010TIP3    H142589   4.596   0.726   1.509 -1.0151  0.6179 -1.1176
 7010TIP3    H242590   4.570   0.844   1.601  0.4377  0.3549 -0.3362
 7011TIP3   OH242591   2.183   0.219   1.810 -0.0947 -0.0101 -0.3299
 7011TIP3    H142592   2.134   0.169   1.875  0.5969  0.3940  0.5143
 7011TIP3    H242593   2.273   0.189   1.819  0.2530  1.0569 -0.1252
 7012TIP3   OH242594   1.782   2.874   6.245 -0.4412  0.3953  0.3818
 7012TIP3    H142595   1.808   2.895   6.335  0.1412  1.4257 -0.0158
 7012TIP3    H242596   1.696   2.832   6.255 -1.2238  2.0790  1.3184
 7013TIP3   OH242597   0.647   3.153   8.330 -0.1386 -0.9837  0.2854
 7013TIP3    H142598   0.607   3.205   8.260  2.8085 -0.0323 -0.8863
 7013TIP3    H242599   0.637   3.062   8.302  0.3991 -0.6433 -1.0942
 7014TIP3   OH242600   0.120   4.754   7.425 -0.3148  0.0214 -0.2295
 7014TIP3    H142601   0.167   4.777   7.345  0.7902  0.5200  0.5467
 7014TIP3    H242602   0.162   4.805   7.494 -0.3892 -1.3481  0.8889
 7015TIP3   OH242603   3.346   5.389   1.709 -0.2236 -0.1548 -0.1908
 7015TIP3    H142604   3.253   5.392   1.730 -0.0311  0.9745  0.5629
 7015TIP3    H242605   3.350   5.415   1.617 -0.7278 -1.2896 -0.5549
 7016TIP3   OH242606   1.980   3.867   7.004  0.5643 -0.3697  0.3266
 7016TIP3    H142607   1.945   3.937   6.950  0.0011 -0.1449  0.9645
 7016TIP3    H242608   2.020   3.913   7.079  1.3607 -0.6706  0.0982
 7017TIP3   OH242609   6.454   5.511   7.471 -0.5025 -0.3042  0.3842
 7017TIP3    H142610   6.410   5.578   7.524 -2.2273 -1.7281  0.8435
 7017TIP3    H242611   6.515   5.469   7.533 -0.2602  0.0700  0.4027
 7018TIP3   OH242612   6.050   2.658   8.312  0.2130  0.0996  0.2889
 7018TIP3    H142613   6.141   2.686   8.311 -0.3673  2.3411  1.5022
 7018TIP3    H242614   6.017   2.681   8.225  0.5558  0.3161  0.2155
 7019TIP3   OH242615   4.203   3.259   7.745 -0.2907  0.1277  0.0628
 7019TIP3    H142616   4.267   3.190   7.757 -0.4303  0.2504  1.6954
 7019TIP3    H242617   4.146   3.253   7.822 -1.7657  0.5258 -0.9499
 7020TIP3   OH242618   6.485   3.474   2.140  0.0409  0.0645 -0.1700
 7020TIP3    H142619   6.493   3.510   2.052 -1.0663  4.5460  1.3074
 7020TIP3    H242620   6.393   3.483   2.162  0.6797  1.6333  2.3115
 7021TIP3   OH242621   4.203   6.974   1.738 -0.0481  0.2935  0.1957
 7021TIP3    H142622   4.112   6.947   1.754 -0.1916 -0.2908 -1.3743
 7021TIP3    H242623   4.200   7.070   1.737 -0.8621  0.2792 -0.7798
 7022TIP3   OH242624   0.659   4.680   1.318  0.1038  0.2363 -0.0203
 7022TIP3    H142625   0.583   4.665   1.262  0.2429  2.8307 -1.0503
 7022TIP3    H242626   0.734   4.674   1.259  0.5000  0.2555  0.4714
 7023TIP3   OH242627   5.186   3.966   7.026 -0.0995  0.0418 -0.1776
 7023TIP3    H142628   5.273   3.958   6.986 -0.2822 -0.6294 -0.4643
 7023TIP3    H242629   5.197   4.031   7.094  0.2729  1.0734 -1.1860
 7024TIP3   OH242630   1.972   2.603   0.803  0.0352  0.2728 -0.1572
 7024TIP3    H142631   1.943   2.526   0.755 -2.1091  1.6582 -1.2614
 7024TIP3    H242632   1.896   2.628   0.857  1.0642  0.9814  1.0201
 7025TIP3   OH242633   5.748   5.157   6.822 -0.3143 -0.3105 -0.5255
 7025TIP3    H142634   5.837   5.147   6.788 -0.0729 -0.6110  0.1785
 7025TIP3    H242635   5.694   5.170   6.744  0.6358  2.1484 -0.8631
 7026TIP3   OH242636   0.752   6.205   7.068 -0.4401  0.3229  0.2081
 7026TIP3    H142637   0.841   6.233   7.046 -0.7347  0.1352 -1.3945
 7026TIP3    H242638   0.756   6.109   7.064 -0.9095  0.3317 -0.8466
 7027TIP3   OH242639   3.035   1.518   0.772  0.2563  0.1689  0.1177
 7027TIP3    H142640   3.060   1.606   0.802  2.1691 -0.7418  1.3578
 7027TIP3    H242641   3.005   1.473   0.851 -0.6241 -0.3538 -0.4924
 7028TIP3   OH242642   0.047   3.845   7.641 -0.6509  0.2964  0.4944
 7028TIP3    H142643   0.131   3.887   7.661 -0.2946  0.0554 -0.4690
 7028TIP3    H242644  -0.014   3.919   7.631 -0.0424  0.6171 -1.1268
 7029TIP3   OH242645   3.252   1.821   1.120  0.5190 -0.2382 -0.0264
 7029TIP3    H142646   3.211   1.741   1.153  2.4057 -0.9968  0.5885
 7029TIP3    H242647   3.196   1.848   1.047 -0.5540 -1.7080  0.2111
 7030TIP3   OH242648   0.119   6.433   5.829  0.3202 -0.1445  0.3328
 7030TIP3    H142649   0.145   6.453   5.919  1.0226 -0.2532  0.1587
 7030TIP3    H242650   0.072   6.512   5.801  1.9022  0.7630  0.1058
 7031TIP3   OH242651   3.501   6.623   6.585 -0.1084 -0.2794 -0.3564
 7031TIP3    H142652   3.428   6.639   6.525 -0.9394 -1.3146  0.3442
 7031TIP3    H242653   3.488   6.533   6.615  2.1432 -0.9423 -1.1463
 7032TIP3   OH242654   4.765   6.479   6.778  0.4715  0.0978  0.5358
 7032TIP3    H142655   4.682   6.512   6.742  0.1628 -0.9640  0.2359
 7032TIP3    H242656   4.821   6.557   6.782 -0.0533  0.5773 -0.6466
 7033TIP3   OH242657   4.052   1.518   1.213 -0.2254  0.4160  0.2087
 7033TIP3    H142658   4.075   1.603   1.176  1.3647  0.4807  1.2510
 7033TIP3    H242659   4.034   1.535   1.305  0.5915 -0.4316  0.5418
 7034TIP3   OH242660   0.936   6.682   0.265 -0.3630  0.1367 -0.6780
 7034TIP3    H142661   0.849   6.704   0.231 -1.0955  0.1777  1.1001
 7034TIP3    H242662   0.920   6.658   0.357  1.2460 -1.8021 -0.8539
 7035TIP3   OH242663   3.463   6.313   7.624  0.4148  0.3132  0.4250
 7035TIP3    H142664   3.390   6.264   7.660  0.6150 -3.2179 -3.2617
 7035TIP3    H242665   3.429   6.351   7.543  2.1898  0.0786 -0.4727
 7036TIP3   OH242666   6.406   6.528   6.713 -0.3122  0.1595  0.4622
 7036TIP3    H142667   6.377   6.437   6.714  0.1861 -0.0032  0.7267
 7036TIP3    H242668   6.445   6.541   6.800  0.6404  0.2795  0.0265
 7037TIP3   OH242669   2.622   3.078   7.295  0.0108 -0.0588 -0.3579
 7037TIP3    H142670   2.576   3.161   7.281  0.7705  0.4939  0.3401
 7037TIP3    H242671   2.678   3.094   7.370 -0.1784 -1.3612  0.0917
 7038TIP3   OH242672   2.951   3.564   0.537  0.1655 -0.8649 -0.1204
 7038TIP3    H142673   3.006   3.495   0.576 -0.1564 -0.8017  0.4480
 7038TIP3    H242674   2.868   3.521   0.519 -1.3204  0.1518  3.4939
 7039TIP3   OH242675   6.033   2.826   0.501  0.2354 -0.0499 -0.1117
 7039TIP3    H142676   6.083   2.779   0.434  0.3351  1.3445 -1.0462
 7039TIP3    H242677   6.076   2.804   0.584  0.6110 -1.1432 -0.5870
 7040TIP3   OH242678   0.298   6.575   6.510  0.0525 -0.2060  0.6098
 7040TIP3    H142679   0.360   6.646   6.523  1.1501 -1.0266  0.0261
 7040TIP3    H242680   0.294   6.563   6.416  0.5899 -1.5066  0.7363
 7041TIP3   OH242681   5.165   2.603   6.125 -0.4214 -0.0598 -0.3342
 7041TIP3    H142682   5.250   2.609   6.168 -1.0400  0.1076  0.9092
 7041TIP3    H242683   5.151   2.509   6.114  0.6415 -0.0528 -2.0774
 7042TIP3   OH242684   0.608   6.268   2.150  0.2654 -0.1442 -0.7874
 7042TIP3    H142685   0.639   6.313   2.229 -0.8208 -0.4125 -0.1802
 7042TIP3    H242686   0.610   6.175   2.173  0.3049 -0.2484 -1.2086
 7043TIP3   OH242687   0.325   0.158   2.314 -0.3625 -0.8200 -0.1909
 7043TIP3    H142688   0.385   0.115   2.375  1.4619  1.0976 -0.5022
 7043TIP3    H242689   0.361   0.139   2.227  0.3613  1.0364 -0.3444
 7044TIP3   OH242690   6.758   6.230   1.757 -0.2886 -0.6159 -0.3602
 7044TIP3    H142691   6.787   6.197   1.842 -2.0890 -1.3995  0.0192
 7044TIP3    H242692   6.809   6.180   1.693  2.3185  1.1712  0.1864
 7045TIP3   OH242693   0.874   6.475   0.696  0.3309  0.4137 -0.1649
 7045TIP3    H142694   0.898   6.401   0.751 -0.0390  1.3185  1.2607
 7045TIP3    H242695   0.875   6.550   0.755  0.5748  1.5310 -1.5545
 7046TIP3   OH242696   2.847   4.907   1.618  0.2007  0.1536 -0.4409
 7046TIP3    H142697   2.772   4.858   1.652 -0.5868  1.2684 -0.5084
 7046TIP3    H242698   2.913   4.900   1.687 -1.0066  1.5179  0.9433
 7047TIP3   OH242699   6.511   3.091   6.434  0.7883 -0.6503 -0.0018
 7047TIP3    H142700   6.582   3.155   6.430 -0.8731  1.3916  0.7721
 7047TIP3    H242701   6.484   3.079   6.343  1.2623 -0.4181 -0.1757
 7048TIP3   OH242702   2.412   0.304   0.657 -0.5134 -0.4300  0.4174
 7048TIP3    H142703   2.411   0.373   0.590  0.8547 -0.1863  0.6297
 7048TIP3    H242704   2.493   0.256   0.641 -0.7283 -1.0691  1.2051
 7049TIP3   OH242705   5.702   6.882   0.071  0.0903  0.3949 -0.1140
 7049TIP3    H142706   5.724   6.924   0.154  1.1274  1.1503 -0.7442
 7049TIP3    H242707   5.766   6.916   0.009 -1.4513  0.8443 -1.5299
 7050TIP3   OH242708   6.546   1.556   6.217 -0.3786  0.4756  0.3602
 7050TIP3    H142709   6.506   1.520   6.295 -1.5943 -1.3707 -1.0434
 7050TIP3    H242710   6.620   1.498   6.198  0.2801  1.2616  0.4520
 7051TIP3   OH242711   1.249   6.850   8.037  0.2352  0.2113  0.4700
 7051TIP3    H142712   1.217   6.773   8.083  1.1523  0.2314  1.1718
 7051TIP3    H242713   1.176   6.877   7.981 -0.5994 -0.3109  1.2863
 7052TIP3   OH242714   6.152   0.709   1.465  0.7483 -0.3077 -0.2965
 7052TIP3    H142715   6.179   0.621   1.439 -2.8714 -1.1159 -2.0252
 7052TIP3    H242716   6.065   0.697   1.504  0.2407  2.4796 -0.3409
 7053TIP3   OH242717   2.628   4.282   2.070 -0.3956  0.1423 -0.0818
 7053TIP3    H142718   2.592   4.200   2.036 -0.9539 -0.1009  1.0156
 7053TIP3    H242719   2.565   4.309   2.137  0.1911  1.0516  0.1207
 7054TIP3   OH242720   3.339   2.302   0.048  0.0565 -0.3726 -0.2390
 7054TIP3    H142721   3.311   2.380  -0.001  0.5648  0.0768  0.1724
 7054TIP3    H242722   3.344   2.331   0.139  0.4213 -0.8421 -0.1048
 7055TIP3   OH242723   2.408   0.439   0.409 -0.1574 -0.4386 -0.6016
 7055TIP3    H142724   2.420   0.534   0.408  0.1352 -0.4140  1.3442
 7055TIP3    H242725   2.478   0.405   0.353 -0.0067  0.4831 -0.9781
 7056TIP3   OH242726   4.706   1.527   0.290 -0.3348 -0.2828 -0.0324
 7056TIP3    H142727   4.649   1.467   0.337 -0.0867 -0.2883  0.2722
 7056TIP3    H242728   4.669   1.533   0.202 -1.7932  1.0093  0.6177
 7057LIG     O142729   0.896   2.429   1.185  0.1711 -0.4975 -0.5760
 7057LIG     O242730   0.976   2.658   1.148 -0.0025  0.1545  0.2346
 7057LIG     O342731   0.810   2.645   0.999  0.4203  0.2769 -0.0920
 7057LIG     O442732   1.196   2.397   1.233  0.4738 -0.4811 -0.1083
 7057LIG     O542733   1.161   2.308   0.962  0.0732 -0.1802 -0.8463
 7057LIG     O642734   0.828   2.883   1.272  0.0074  0.3058  0.0157
 7057LIG     O742735   1.014   2.938   1.036  0.2981 -0.0355  0.0891
 7057LIG     O842736   0.881   2.922   0.781 -0.1448  0.2143 -0.2772
 7057LIG     O942737   0.971   2.456   1.464 -0.1176  0.3005 -0.1131
 7057LIG    O1042738   0.711   2.407   0.971  0.3555  0.1322 -0.4848
 7057LIG    O1142739   0.875   2.693   0.639 -0.2712 -0.0557  0.3241
 7057LIG     C142740   0.995   2.531   1.215 -0.3266  0.3448  0.0335
 7057LIG     C242741   1.122   2.480   1.142 -0.0144 -0.6687 -0.3422
 7057LIG     C342742   1.061   2.400   1.023 -0.0953 -0.3555  0.6312
 7057LIG     C442743   0.933   2.336   1.076  0.0173 -0.6527 -0.3341
 7057LIG     C542744   0.841   2.688   1.130 -0.4131  0.3066  0.2745
 7057LIG     C642745   0.813   2.835   1.134  0.1367  0.8139 -0.6457
 7057LIG     C742746   0.872   2.917   1.028  0.3393  0.2232  0.4172
 7057LIG     C842747   0.827   2.856   0.898 -0.2233 -0.3875 -0.4367
 7057LIG     C942748   0.870   2.716   0.895 -0.8935 -0.6193  0.7173
 7057LIG    C1042749   1.007   2.564   1.373  0.2374  0.4456 -0.5369
 7057LIG    C1142750   0.818   2.311   0.973  0.2524  0.2425 -0.0659
 7057LIG    C1242751   0.828   2.641   0.763 -0.5729 -0.1544 -0.3733
 7057LIG     H142752   1.187   2.559   1.102  0.7304 -0.8283  0.5203
 7057LIG     H242753   1.031   2.475   0.949 -1.6973  0.9643  2.5011
 7057LIG     H342754   0.961   2.241   1.124 -0.3259 -1.0130 -0.8384
 7057LIG     H442755   0.785   2.635   1.211  2.4885  0.8724  2.8561
 7057LIG     H542756   0.703   2.850   1.130  0.0760  0.6322  0.1269
 7057LIG     H642757   0.829   3.019   1.039  0.2129  0.1723  0.3988
 7057LIG     H742758   0.717   2.860   0.882 -0.0622 -0.4412 -1.6587
 7057LIG     H842759   0.980   2.710   0.913 -0.8054 -1.5961 -0.0947
 7057LIG     H942760   1.106   2.610   1.392  0.2338  0.0274  0.5821
 7057LIG    H1042761   0.943   2.653   1.391  0.9316  0.6421  1.0983
 7057LIG    H1142762   0.866   2.290   0.876  0.8646  1.0922  0.0495
 7057LIG    H1242763   0.781   2.212   1.007 -2.3999  1.7200  1.7757
 7057LIG    H1342764   0.864   2.537   0.769 -1.1777 -0.5040 -2.2535
 7057LIG    H1442765   0.718   2.631   0.752 -0.8262  1.4591  0.4234
 7057LIG    H1542766   1.259   2.357   1.172  3.1691  0.3693  1.9041
 7057LIG    H1642767   1.156   2.226   1.012 -1.2892  0.4648  0.1285
 7057LIG    H1742768   0.813   2.977   1.260 -1.8825 -0.0825 -0.9317
 7057LIG    H1842769   1.035   2.949   0.943 -0.9883 -1.6160 -0.4301
 7057LIG    H1942770   0.866   2.856   0.713 -1.5775  0.7139 -0.4727
 7057LIG    H2042771   1.014   2.482   1.546 -0.1629  1.3214 -0.3974
 7057LIG    H2142772   0.742   2.498   0.982 -1.1660  1.1382 -3.3659
 7057LIG    H2242773   0.822   2.637   0.581  0.7046 -0.4802 -0.1744
   6.99499   6.99499   8.36470
